<event>
 6    0  0.6525019E+002  0.7870398E+02  0.7546771E-02  0.1332770E+00
         21   -1    0    0  503  502  0.00000000000E+00  0.00000000000E+00  0.14899904014E+03  0.14899904014E+03  0.00000000000E+00 0.  1.
          2   -1    0    0  504    0 -0.00000000000E+00 -0.00000000000E+00 -0.40091405084E+04  0.40091405084E+04  0.00000000000E+00 0. -1.
         21    1    1    2  503  501  0.28249574238E+02 -0.12417008045E+03 -0.48789354060E+03  0.50423839033E+03  0.00000000000E+00 0.  1.
         21    1    1    2  504  505 -0.18691116478E+02  0.42559073427E+02  0.19666992767E+02  0.50472003830E+02  0.00000000000E+00 0.  1.
         21    1    1    2  505  502 -0.16738444303E+02  0.30449843812E+02  0.10270692102E+03  0.10842545887E+03  0.00000000000E+00 0.  1.
          2    1    1    2  501    0  0.71799865429E+01  0.51161163211E+02 -0.34946218415E+04  0.34950036955E+04  0.00000000000E+00 0. -1.
<scales pt_clust_3="14000.00000" pt_clust_4="78.70398" pt_clust_5="34.74721" pt_clust_6="51.78494"></scales>
<clustering>
<clus scale="   34.747">  1  5  2 -1</clus>
<clus scale="   51.785">  2  6  1 -1</clus>
<clus scale="   78.704">  1  4  2 -1</clus>
<clus scale="   34.747">  1  3  2 -1</clus>
</clustering>
</event>
<event>
 6    0  0.6525019E+002  0.1204805E+03  0.7546771E-02  0.1242306E+00
         21   -1    0    0  503  502  0.00000000000E+00  0.00000000000E+00  0.49705960479E+03  0.49705960479E+03  0.00000000000E+00 0. -1.
         -1   -1    0    0    0  501 -0.00000000000E+00 -0.00000000000E+00 -0.40993893510E+03  0.40993893510E+03  0.00000000000E+00 0.  1.
         21    1    1    2  503  504  0.39294045612E+02  0.36508492573E+01  0.45164523101E+02  0.59976535977E+02  0.00000000000E+00 0. -1.
         21    1    1    2  504  501  0.35738319298E+02  0.58187259402E+02  0.32433289395E+03  0.33144352569E+03  0.00000000000E+00 0. -1.
         21    1    1    2  505  502 -0.24181155176E+02  0.49065466826E+02  0.10012345228E+03  0.11409142823E+03  0.00000000000E+00 0. -1.
         -1    1    1    2    0  505 -0.50851209734E+02 -0.11090357548E+03 -0.38250019964E+03  0.40148704999E+03  0.00000000000E+00 0.  1.
<scales pt_clust_3="39.46328" pt_clust_4="14000.00000" pt_clust_5="52.06710" pt_clust_6="120.48054"></scales>
<clustering>
<clus scale="   39.463">  1  3  2 -1</clus>
<clus scale="   52.067">  1  5  2 -1</clus>
<clus scale="  120.481">  2  6  1 -1</clus>
<clus scale="   39.463">  1  3  2 -1</clus>
</clustering>
</event>
<event>
 6    0  0.6525019E+002  0.1148668E+03  0.7546771E-02  0.1251814E+00
          2   -1    0    0  503    0 -0.00000000000E+00  0.00000000000E+00  0.23736713106E+04  0.23736713106E+04  0.00000000000E+00 0. -1.
         21   -1    0    0  504  502  0.00000000000E+00 -0.00000000000E+00 -0.20259589791E+03  0.20259589791E+03  0.00000000000E+00 0.  1.
         21    1    1    2  503  502  0.28044713926E+02  0.18058950149E+02 -0.85170219218E+02  0.91469109000E+02  0.00000000000E+00 0.  1.
         21    1    1    2  504  505 -0.42910167913E+02  0.96491437084E+02 -0.85087009355E+02  0.13561592496E+03  0.00000000000E+00 0.  1.
         21    1    1    2  505  501  0.48154715519E+02 -0.10548587025E+03  0.90033790484E+03  0.90777446997E+03  0.00000000000E+00 0.  1.
          2    1    1    2  501    0 -0.33289261532E+02 -0.90645169803E+01  0.14409947364E+04  0.14414077046E+04  0.00000000000E+00 0. -1.
<scales pt_clust_3="33.35613" pt_clust_4="14000.00000" pt_clust_5="114.86678" pt_clust_6="34.44385"></scales>
<clustering>
<clus scale="   33.356">  2  3  1 -1</clus>
<clus scale="   34.444">  1  6  2 -1</clus>
<clus scale="  114.867">  1  5  2 -1</clus>
<clus scale="   33.356">  2  3  1 -1</clus>
</clustering>
</event>
<event>
 6    0  0.6525019E+002  0.9214353E+02  0.7546771E-02  0.1297742E+00
          2   -1    0    0  502    0 -0.00000000000E+00  0.00000000000E+00  0.19111812612E+04  0.19111812612E+04  0.00000000000E+00 0.  1.
         21   -1    0    0  504  502  0.00000000000E+00 -0.00000000000E+00 -0.55881888934E+03  0.55881888934E+03  0.00000000000E+00 0. -1.
         21    1    1    2  503  505  0.46996454863E+02  0.65489327249E+02 -0.48624808738E+01  0.80753714920E+02  0.00000000000E+00 0.  1.
         21    1    1    2  504  503 -0.23487323280E+02  0.29948933053E+02 -0.49918193683E+03  0.50063080109E+03  0.00000000000E+00 0. -1.
         21    1    1    2  505  501  0.14645086170E+02 -0.10567459595E+03  0.16337482049E+03  0.19512286065E+03  0.00000000000E+00 0. -1.
          2    1    1    2  501    0 -0.38154217752E+02  0.10236335651E+02  0.16930319691E+04  0.16934927739E+04  0.00000000000E+00 0.  1.
<scales pt_clust_3="92.14353" pt_clust_4="38.06039" pt_clust_5="14000.00000" pt_clust_6="39.62268"></scales>
<clustering>
<clus scale="   38.060">  2  4  1 -1</clus>
<clus scale="   39.623">  1  6  2 -1</clus>
<clus scale="   92.144">  2  3  1 -1</clus>
<clus scale="   38.060">  2  3  1 -1</clus>
</clustering>
</event>
<event>
 6    0  0.6525019E+002  0.1040422E+03  0.7546771E-02  0.1272018E+00
         21   -1    0    0  505  502  0.00000000000E+00  0.00000000000E+00  0.20088871065E+03  0.20088871065E+03  0.00000000000E+00 0.  1.
          1   -1    0    0  503    0 -0.00000000000E+00 -0.00000000000E+00 -0.19699203940E+04  0.19699203940E+04  0.00000000000E+00 0.  1.
         21    1    1    2  503  502 -0.97868774723E+01  0.13878747599E+03 -0.31216775570E+03  0.34176959221E+03  0.00000000000E+00 0.  1.
         21    1    1    2  504  501  0.31711367740E+02 -0.52759271431E+01  0.75560738966E+02  0.82114989644E+02  0.00000000000E+00 0.  1.
         21    1    1    2  505  504  0.18137462400E+02 -0.39994465642E+02  0.10110468167E+03  0.11023012964E+03  0.00000000000E+00 0.  1.
          1    1    1    2  501    0 -0.40061952668E+02 -0.93517083201E+02 -0.16335293483E+04  0.16366943932E+04  0.00000000000E+00 0.  1.
<scales pt_clust_3="14000.00000" pt_clust_4="30.26975" pt_clust_5="76.06559" pt_clust_6="104.04217"></scales>
<clustering>
<clus scale="   30.270">  4  5 -1 -1</clus>
<clus scale="   76.066">  1  4  2 -1</clus>
<clus scale="  104.042">  2  6  1 -1</clus>
<clus scale="   76.066">  1  3  2 -1</clus>
</clustering>
</event>
<event>
 6    0  0.6525019E+002  0.9154192E+02  0.7546771E-02  0.1299160E+00
          2   -1    0    0  503    0 -0.00000000000E+00  0.00000000000E+00  0.73222220654E+03  0.73222220654E+03  0.00000000000E+00 0. -1.
         21   -1    0    0  501  502  0.00000000000E+00 -0.00000000000E+00 -0.95282366171E+02  0.95282366171E+02  0.00000000000E+00 0.  1.
         21    1    1    2  503  504 -0.80676315237E+02  0.44011783782E+02  0.12615322034E+03  0.15607799318E+03  0.00000000000E+00 0.  1.
         21    1    1    2  504  505  0.56617361479E+02 -0.57221118218E+02  0.23209729697E+02  0.83776330450E+02  0.00000000000E+00 0.  1.
         21    1    1    2  505  502  0.10296501733E+02 -0.35640231209E+02 -0.41775926042E+02  0.55870135361E+02  0.00000000000E+00 0.  1.
          2    1    1    2  501    0  0.13762452024E+02  0.48849565644E+02  0.52935281637E+03  0.53178011372E+03  0.00000000000E+00 0. -1.
<scales pt_clust_3="91.54192" pt_clust_4="14000.00000" pt_clust_5="37.09776" pt_clust_6="49.93063"></scales>
<clustering>
<clus scale="   37.098">  2  5  1 -1</clus>
<clus scale="   49.931">  1  6  2 -1</clus>
<clus scale="   91.542">  1  3  2 -1</clus>
<clus scale="   37.098">  2  3  1 -1</clus>
</clustering>
</event>
<event>
 6    0  0.6525019E+002  0.1163165E+03  0.7546771E-02  0.1249300E+00
          2   -1    0    0  505    0 -0.00000000000E+00  0.00000000000E+00  0.63723034714E+03  0.63723034714E+03  0.00000000000E+00 0.  1.
         21   -1    0    0  504  502  0.00000000000E+00 -0.00000000000E+00 -0.25298732748E+03  0.25298732748E+03  0.00000000000E+00 0.  1.
         21    1    1    2  503  502 -0.34561852560E+02  0.12329886934E+02 -0.17022344507E+03  0.17413376759E+03  0.00000000000E+00 0.  1.
         21    1    1    2  504  501 -0.68353231756E+02 -0.42472398895E+02  0.20079723295E+02  0.82941330149E+02  0.00000000000E+00 0.  1.
         21    1    1    2  505  503 -0.24284215796E+02  0.48080799081E+02 -0.24864853318E+02  0.59327458294E+02  0.00000000000E+00 0.  1.
          2    1    1    2  501    0  0.12719930011E+03 -0.17938287120E+02  0.55925159475E+03  0.57381511859E+03  0.00000000000E+00 0.  1.
<scales pt_clust_3="36.69534" pt_clust_4="116.31645" pt_clust_5="68.98557" pt_clust_6="14000.00000"></scales>
<clustering>
<clus scale="   36.695">  2  3  1 -1</clus>
<clus scale="   68.986">  2  5  1 -1</clus>
<clus scale="  116.316">  2  4  1 -1</clus>
<clus scale="   36.695">  2  3  1 -1</clus>
</clustering>
</event>
<event>
 6    0  0.6525019E+002  0.1893484E+03  0.7546771E-02  0.1159050E+00
         21   -1    0    0  505  502  0.00000000000E+00  0.00000000000E+00  0.33202366977E+03  0.33202366977E+03  0.00000000000E+00 0.  1.
          2   -1    0    0  504    0 -0.00000000000E+00 -0.00000000000E+00 -0.20883400838E+04  0.20883400838E+04  0.00000000000E+00 0. -1.
         21    1    1    2  503  502  0.81201833065E+02 -0.16907345250E+03  0.16673716496E+03  0.25095986176E+03  0.00000000000E+00 0.  1.
         21    1    1    2  504  503 -0.95863041880E+02  0.18676883316E+03  0.73124820655E+01  0.21006140110E+03  0.00000000000E+00 0.  1.
         21    1    1    2  505  501  0.25485573882E+02  0.35058041713E+02 -0.19178147537E+02  0.47396013628E+02  0.00000000000E+00 0. -1.
          2    1    1    2  501    0 -0.10824365068E+02 -0.52753422373E+02 -0.19111879135E+04  0.19119464771E+04  0.00000000000E+00 0. -1.
<scales pt_clust_3="14000.00000" pt_clust_4="189.34843" pt_clust_5="43.34260" pt_clust_6="53.80541"></scales>
<clustering>
<clus scale="   43.343">  1  5  2 -1</clus>
<clus scale="   53.805">  2  6  1 -1</clus>
<clus scale="  189.348">  2  4  1 -1</clus>
<clus scale="   43.343">  1  3  2 -1</clus>
</clustering>
</event>
<event>
 6    0  0.6525019E+002  0.1193251E+03  0.7546771E-02  0.1244215E+00
         21   -1    0    0  505  502  0.00000000000E+00  0.00000000000E+00  0.11148199536E+03  0.11148199536E+03  0.00000000000E+00 0. -1.
          2   -1    0    0  503    0 -0.00000000000E+00 -0.00000000000E+00 -0.22954423374E+04  0.22954423374E+04  0.00000000000E+00 0. -1.
         21    1    1    2  503  504 -0.59200020253E+02  0.11817172159E+03 -0.48978804435E+03  0.50730811798E+03  0.00000000000E+00 0. -1.
         21    1    1    2  504  502  0.66094493899E+02 -0.19262135437E+02  0.78465209655E+02  0.10438534912E+03  0.00000000000E+00 0. -1.
         21    1    1    2  505  501  0.34374863892E+02 -0.95893179401E+02 -0.22439041896E+03  0.24643090968E+03  0.00000000000E+00 0. -1.
          2    1    1    2  501    0 -0.41269337538E+02 -0.30164067544E+01 -0.15482470884E+04  0.15487999560E+04  0.00000000000E+00 0. -1.
<scales pt_clust_3="14000.00000" pt_clust_4="68.17174" pt_clust_5="119.32514" pt_clust_6="41.37943"></scales>
<clustering>
<clus scale="   41.379">  2  6  1 -1</clus>
<clus scale="   68.172">  1  4  2 -1</clus>
<clus scale="  119.325">  1  5  2 -1</clus>
<clus scale="   68.172">  1  3  2 -1</clus>
</clustering>
</event>
<event>
 6    0  0.6525019E+002  0.7769239E+02  0.7546771E-02  0.1335731E+00
          2   -1    0    0  504    0 -0.00000000000E+00  0.00000000000E+00  0.19515435634E+04  0.19515435634E+04  0.00000000000E+00 0. -1.
         21   -1    0    0  505  502  0.00000000000E+00 -0.00000000000E+00 -0.17712777561E+02  0.17712777561E+02  0.00000000000E+00 0. -1.
         21    1    1    2  503  501 -0.34450591173E+02 -0.47565264389E+02  0.27689799238E+03  0.28305793717E+03  0.00000000000E+00 0. -1.
         21    1    1    2  504  502  0.91215517299E+02  0.67328527304E+02  0.81555539239E+03  0.82339783777E+03  0.00000000000E+00 0. -1.
         21    1    1    2  505  503 -0.36062111417E+02  0.17947045330E+02  0.29855060027E+02  0.50138776662E+02  0.00000000000E+00 0. -1.
          2    1    1    2  501    0 -0.20702814708E+02 -0.37710308246E+02  0.81152234106E+03  0.81266178938E+03  0.00000000000E+00 0. -1.
<scales pt_clust_3="77.69239" pt_clust_4="14000.00000" pt_clust_5="40.28117" pt_clust_6="43.24774"></scales>
<clustering>
<clus scale="   40.281">  2  5  1 -1</clus>
<clus scale="   43.248">  1  6  2 -1</clus>
<clus scale="   77.692">  2  3  1 -1</clus>
<clus scale="   40.281">  2  3  1 -1</clus>
</clustering>
</event>
<event>
 6    0  0.6525019E+002  0.1015033E+03  0.7546771E-02  0.1277166E+00
          2   -1    0    0  505    0 -0.00000000000E+00  0.00000000000E+00  0.26548974582E+03  0.26548974582E+03  0.00000000000E+00 0.  1.
         21   -1    0    0  504  502  0.00000000000E+00 -0.00000000000E+00 -0.10137099946E+04  0.10137099946E+04  0.00000000000E+00 0. -1.
         21    1    1    2  503  502 -0.12231996125E+02 -0.32205417119E+02 -0.47724384163E+03  0.47848562674E+03  0.00000000000E+00 0. -1.
         21    1    1    2  504  501 -0.85577219874E+02 -0.29838603148E+02  0.19266631317E+03  0.21291808526E+03  0.00000000000E+00 0.  1.
         21    1    1    2  505  503  0.11370550231E+03  0.36466506601E+02 -0.51478126850E+03  0.52844914775E+03  0.00000000000E+00 0. -1.
          2    1    1    2  501    0 -0.15896286310E+02  0.25577513666E+02  0.51138548234E+02  0.59346880619E+02  0.00000000000E+00 0.  1.
<scales pt_clust_3="34.39625" pt_clust_4="101.50332" pt_clust_5="14000.00000" pt_clust_6="30.11480"></scales>
<clustering>
<clus scale="   30.115">  1  6  2 -1</clus>
<clus scale="   34.396">  2  3  1 -1</clus>
<clus scale="  101.503">  1  4  2 -1</clus>
<clus scale="   34.396">  2  3  1 -1</clus>
</clustering>
</event>
<event>
 6    0  0.6525019E+002  0.8593875E+02  0.7546771E-02  0.1312996E+00
          1   -1    0    0  504    0 -0.00000000000E+00  0.00000000000E+00  0.16861536465E+04  0.16861536465E+04  0.00000000000E+00 0.  1.
         21   -1    0    0  503  502  0.00000000000E+00 -0.00000000000E+00 -0.46195704039E+02  0.46195704039E+02  0.00000000000E+00 0.  1.
         21    1    1    2  503  505 -0.29282719845E+02  0.14865299725E+02  0.12725473947E+02  0.35219206474E+02  0.00000000000E+00 0.  1.
         21    1    1    2  504  502  0.66066693546E+02  0.49831087119E+02  0.73928613356E+02  0.11096569340E+03  0.00000000000E+00 0.  1.
         21    1    1    2  505  501 -0.76000740478E+02 -0.62463109295E+02  0.13357152698E+03  0.16588883445E+03  0.00000000000E+00 0.  1.
          1    1    1    2  501    0  0.39216766777E+02 -0.22332775488E+01  0.14197323282E+04  0.14202756162E+04  0.00000000000E+00 0.  1.
<scales pt_clust_3="32.83984" pt_clust_4="14000.00000" pt_clust_5="85.93875" pt_clust_6="39.04663"></scales>
<clustering>
<clus scale="   32.840">  2  3  1 -1</clus>
<clus scale="   39.047">  1  6  2 -1</clus>
<clus scale="   85.939">  1  5  2 -1</clus>
<clus scale="   32.840">  2  3  1 -1</clus>
</clustering>
</event>
<event>
 6    0  0.6525019E+002  0.1068977E+03  0.7546771E-02  0.1266425E+00
          2   -1    0    0  505    0 -0.00000000000E+00  0.00000000000E+00  0.26294969046E+04  0.26294969046E+04  0.00000000000E+00 0. -1.
         21   -1    0    0  504  502  0.00000000000E+00 -0.00000000000E+00 -0.18601723108E+03  0.18601723108E+03  0.00000000000E+00 0.  1.
         21    1    1    2  503  501  0.40991430986E+02 -0.63565911313E+02  0.10480929589E+04  0.10508186204E+04  0.00000000000E+00 0.  1.
         21    1    1    2  504  503 -0.60329264649E+02  0.12383641574E+03 -0.14640450595E+03  0.20102078847E+03  0.00000000000E+00 0.  1.
         21    1    1    2  505  502  0.18130732914E+02 -0.24605604549E+02  0.11023600741E+02  0.32491214574E+02  0.00000000000E+00 0. -1.
          2    1    1    2  501    0  0.12071007496E+01 -0.35664899878E+02  0.15307676198E+04  0.15311835122E+04  0.00000000000E+00 0. -1.
<scales pt_clust_3="14000.00000" pt_clust_4="106.89774" pt_clust_5="30.56402" pt_clust_6="35.71523"></scales>
<clustering>
<clus scale="   30.564">  2  5  1 -1</clus>
<clus scale="   35.715">  1  6  2 -1</clus>
<clus scale="  106.898">  2  4  1 -1</clus>
<clus scale="   30.564">  2  3  1 -1</clus>
</clustering>
</event>
<event>
 6    0  0.6525019E+002  0.1170691E+03  0.7546771E-02  0.1248012E+00
         21   -1    0    0  501  502  0.00000000000E+00  0.00000000000E+00  0.16877331024E+03  0.16877331024E+03  0.00000000000E+00 0.  1.
          2   -1    0    0  504    0 -0.00000000000E+00 -0.00000000000E+00 -0.17070230479E+04  0.17070230479E+04  0.00000000000E+00 0.  1.
         21    1    1    2  503  502 -0.43343755324E+02 -0.60302989427E+01  0.12974642505E+03  0.13692764674E+03  0.00000000000E+00 0.  1.
         21    1    1    2  504  505  0.27357349187E+02  0.10417141338E+03 -0.38261195113E+03  0.39748209150E+03  0.00000000000E+00 0.  1.
         21    1    1    2  505  503 -0.15122907432E+02 -0.10797597348E+03 -0.79196108291E+02  0.13475732539E+03  0.00000000000E+00 0.  1.
          2    1    1    2  501    0  0.31109313569E+02  0.98348590507E+01 -0.12061881033E+04  0.12066292945E+04  0.00000000000E+00 0.  1.
<scales pt_clust_3="43.53053" pt_clust_4="14000.00000" pt_clust_5="117.06913" pt_clust_6="32.62689"></scales>
<clustering>
<clus scale="   32.627">  2  6  1 -1</clus>
<clus scale="   43.531">  1  3  2 -1</clus>
<clus scale="  117.069">  1  5  2 -1</clus>
<clus scale="   43.531">  1  3  2 -1</clus>
</clustering>
</event>
<event>
 6    0  0.6525019E+002  0.1570245E+03  0.7546771E-02  0.1192098E+00
         21   -1    0    0  501  502  0.00000000000E+00  0.00000000000E+00  0.86832948442E+02  0.86832948442E+02  0.00000000000E+00 0.  1.
          2   -1    0    0  503    0 -0.00000000000E+00 -0.00000000000E+00 -0.91316875816E+03  0.91316875816E+03  0.00000000000E+00 0.  1.
         21    1    1    2  503  505  0.16021084448E+02 -0.33606030845E+02 -0.60607263992E+02  0.71128622261E+02  0.00000000000E+00 0. -1.
         21    1    1    2  504  502  0.34347612877E+02 -0.65642391638E+01 -0.97733293812E+01  0.36309306154E+02  0.00000000000E+00 0. -1.
         21    1    1    2  505  504  0.54374723236E+02 -0.10456949148E+03 -0.21569053694E+01  0.11788147147E+03  0.00000000000E+00 0.  1.
          2    1    1    2  501    0 -0.10474342056E+03  0.14473976149E+03 -0.75379831098E+03  0.77468230672E+03  0.00000000000E+00 0.  1.
<scales pt_clust_3="37.22956" pt_clust_4="31.80831" pt_clust_5="31.80831" pt_clust_6="145.76212"></scales>
<clustering>
<clus scale="   31.808">  4  5 -1 -1</clus>
<clus scale="   37.230">  2  3  1 -1</clus>
<clus scale="  145.762">  2  6  1 -1</clus>
<clus scale="  157.025">  1  3  2 -1</clus>
</clustering>
</event>
<event>
 6    0  0.6525019E+002  0.1043055E+03  0.7546771E-02  0.1271494E+00
          1   -1    0    0  502    0 -0.00000000000E+00  0.00000000000E+00  0.23784467399E+04  0.23784467399E+04  0.00000000000E+00 0.  1.
         21   -1    0    0  503  502  0.00000000000E+00 -0.00000000000E+00 -0.97368912513E+02  0.97368912513E+02  0.00000000000E+00 0.  1.
         21    1    1    2  503  505 -0.53881558642E+02 -0.27835525068E+02 -0.54898372835E+02  0.81803851727E+02  0.00000000000E+00 0.  1.
         21    1    1    2  504  501 -0.62459718309E+02 -0.56840834252E+02  0.11392256305E+04  0.11423515808E+04  0.00000000000E+00 0.  1.
         21    1    1    2  505  504  0.14940680723E+03  0.65895141840E+02  0.21903216812E+03  0.27320258864E+03  0.00000000000E+00 0.  1.
          1    1    1    2  501    0 -0.33065530281E+02  0.18781217479E+02  0.97771840153E+03  0.97845763123E+03  0.00000000000E+00 0.  1.
<scales pt_clust_3="60.84701" pt_clust_4="14000.00000" pt_clust_5="104.30550" pt_clust_6="38.02714"></scales>
<clustering>
<clus scale="   38.027">  1  6  2 -1</clus>
<clus scale="   60.847">  2  3  1 -1</clus>
<clus scale="  104.306">  2  5  1 -1</clus>
<clus scale="   60.847">  2  3  1 -1</clus>
</clustering>
</event>
<event>
 6    0  0.6525019E+002  0.1013603E+03  0.7546771E-02  0.1277461E+00
         21   -1    0    0  501  502  0.00000000000E+00  0.00000000000E+00  0.32394909633E+03  0.32394909633E+03  0.00000000000E+00 0. -1.
          2   -1    0    0  505    0 -0.00000000000E+00 -0.00000000000E+00 -0.20219173581E+04  0.20219173581E+04  0.00000000000E+00 0.  1.
         21    1    1    2  503  504 -0.17712580861E+03 -0.13668465629E+02 -0.14011712414E+03  0.22625911585E+03  0.00000000000E+00 0. -1.
         21    1    1    2  504  502  0.97501704202E+02 -0.87910785594E+01  0.27096744001E+03  0.28810973418E+03  0.00000000000E+00 0. -1.
         21    1    1    2  505  503  0.36430219593E+02  0.23072854550E+02 -0.46503798893E+03  0.46703302738E+03  0.00000000000E+00 0.  1.
          2    1    1    2  501    0  0.43193884812E+02 -0.61331036097E+00 -0.13637805887E+04  0.13644645771E+04  0.00000000000E+00 0.  1.
<scales pt_clust_3="101.36027" pt_clust_4="14000.00000" pt_clust_5="43.12212" pt_clust_6="77.65258"></scales>
<clustering>
<clus scale="   43.122">  2  5  1 -1</clus>
<clus scale="   77.653">  2  6  1 -1</clus>
<clus scale="  101.360">  2  3  1 -1</clus>
<clus scale="  101.360">  1  3  2 -1</clus>
</clustering>
</event>
<event>
 6    0  0.8089572E+002  0.9275153E+02  0.7546771E-02  0.1296322E+00
         21   -1    0    0  503  502  0.00000000000E+00  0.00000000000E+00  0.53338255699E+03  0.53338255699E+03  0.00000000000E+00 0. -1.
          2   -1    0    0  505    0 -0.00000000000E+00 -0.00000000000E+00 -0.20164808580E+04  0.20164808580E+04  0.00000000000E+00 0. -1.
         21    1    1    2  503  501 -0.29509493155E+02 -0.79261169166E+01  0.43348750627E+03  0.43456305826E+03  0.00000000000E+00 0. -1.
         21    1    1    2  504  502 -0.61623784205E+02  0.26924987122E+02  0.83364885360E+02  0.10710812211E+03  0.00000000000E+00 0. -1.
         21    1    1    2  505  504  0.12570852150E+03 -0.17545831271E+02 -0.10549659914E+04  0.10625741064E+04  0.00000000000E+00 0. -1.
          2    1    1    2  501    0 -0.34575244139E+02 -0.14530389340E+01 -0.94498470119E+03  0.94561812816E+03  0.00000000000E+00 0. -1.
<scales pt_clust_3="30.55542" pt_clust_4="14000.00000" pt_clust_5="92.75153" pt_clust_6="34.70081"></scales>
<clustering>
<clus scale="   30.555">  1  3  2 -1</clus>
<clus scale="   34.701">  2  6  1 -1</clus>
<clus scale="   92.752">  2  5  1 -1</clus>
<clus scale="   30.555">  1  3  2 -1</clus>
</clustering>
</event>
<event>
 6    0  0.6525019E+002  0.1471589E+03  0.7546771E-02  0.1204008E+00
          1   -1    0    0  503    0 -0.00000000000E+00  0.00000000000E+00  0.27440971553E+04  0.27440971553E+04  0.00000000000E+00 0. -1.
         21   -1    0    0  504  502  0.00000000000E+00 -0.00000000000E+00 -0.45115080027E+02  0.45115080027E+02  0.00000000000E+00 0. -1.
         21    1    1    2  503  502 -0.25877995599E+02  0.21863624025E+02  0.27383972170E+02  0.43561113893E+02  0.00000000000E+00 0. -1.
         21    1    1    2  504  505  0.83984312428E+02 -0.50769431371E+02  0.72261872434E+02  0.12187156397E+03  0.00000000000E+00 0. -1.
         21    1    1    2  505  501 -0.79811953754E+02  0.16531067153E+03  0.88214099662E+03  0.90103845867E+03  0.00000000000E+00 0. -1.
          1    1    1    2  501    0  0.21705636925E+02 -0.13640486419E+03  0.17171952340E+04  0.17227410988E+04  0.00000000000E+00 0. -1.
<scales pt_clust_3="33.87755" pt_clust_4="75.80768" pt_clust_5="147.15887" pt_clust_6="14000.00000"></scales>
<clustering>
<clus scale="   33.878">  2  3  1 -1</clus>
<clus scale="   75.808">  2  4  1 -1</clus>
<clus scale="  147.159">  2  5  1 -1</clus>
<clus scale="   33.878">  2  3  1 -1</clus>
</clustering>
</event>
<event>
 6    0  0.6525019E+002  0.1796603E+03  0.7546771E-02  0.1168132E+00
          2   -1    0    0  503    0 -0.00000000000E+00  0.00000000000E+00  0.15905073364E+04  0.15905073364E+04  0.00000000000E+00 0. -1.
         21   -1    0    0  504  502  0.00000000000E+00 -0.00000000000E+00 -0.73351117568E+03  0.73351117568E+03  0.00000000000E+00 0.  1.
         21    1    1    2  503  505  0.19037968896E+03 -0.54387167768E+02 -0.20167652654E+03  0.28262309061E+03  0.00000000000E+00 0.  1.
         21    1    1    2  504  501  0.51680754160E+01  0.31297694027E+02 -0.44247404478E+02  0.54443433561E+02  0.00000000000E+00 0. -1.
         21    1    1    2  505  502 -0.17561743127E+03 -0.16403766134E+02 -0.42408702855E+03  0.45930422760E+03  0.00000000000E+00 0.  1.
          2    1    1    2  501    0 -0.19930333108E+02  0.39493239876E+02  0.15270071203E+04  0.15276477604E+04  0.00000000000E+00 0. -1.
<scales pt_clust_3="179.66030" pt_clust_4="31.72152" pt_clust_5="14000.00000" pt_clust_6="44.24924"></scales>
<clustering>
<clus scale="   31.722">  2  4  1 -1</clus>
<clus scale="   44.249">  1  6  2 -1</clus>
<clus scale="  179.660">  1  3  2 -1</clus>
<clus scale="   31.722">  2  3  1 -1</clus>
</clustering>
</event>
<event>
 6    0  0.6525019E+002  0.1291719E+03  0.7546771E-02  0.1228690E+00
         21   -1    0    0  503  502  0.00000000000E+00  0.00000000000E+00  0.27920716787E+03  0.27920716787E+03  0.00000000000E+00 0.  1.
          2   -1    0    0  505    0 -0.00000000000E+00 -0.00000000000E+00 -0.92462035520E+03  0.92462035520E+03  0.00000000000E+00 0. -1.
         21    1    1    2  503  501 -0.58635907650E+02 -0.98932885825E+02  0.81975378251E+02  0.14122977095E+03  0.00000000000E+00 0.  1.
         21    1    1    2  504  502 -0.11981788007E+02  0.27921972245E+02  0.30429779228E+02  0.43001991137E+02  0.00000000000E+00 0.  1.
         21    1    1    2  505  504  0.62160412322E+02 -0.59026543973E+02  0.11145634527E+03  0.14060784706E+03  0.00000000000E+00 0.  1.
          2    1    1    2  501    0  0.84572833358E+01  0.13003745755E+03 -0.86927469008E+03  0.87898791393E+03  0.00000000000E+00 0. -1.
<scales pt_clust_3="129.17187" pt_clust_4="30.38420" pt_clust_5="71.48451" pt_clust_6="14000.00000"></scales>
<clustering>
<clus scale="   30.384">  1  4  2 -1</clus>
<clus scale="   71.485">  1  5  2 -1</clus>
<clus scale="  129.172">  1  3  2 -1</clus>
<clus scale="   30.384">  1  3  2 -1</clus>
</clustering>
</event>
<event>
 6    0  0.6525019E+002  0.9419859E+02  0.7546771E-02  0.1292991E+00
         21   -1    0    0  501  502  0.00000000000E+00  0.00000000000E+00  0.66475585072E+03  0.66475585072E+03  0.00000000000E+00 0.  1.
         -2   -1    0    0    0  501 -0.00000000000E+00 -0.00000000000E+00 -0.36775094293E+03  0.36775094293E+03  0.00000000000E+00 0.  1.
         21    1    1    2  503  502 -0.87678873195E+02  0.35389852886E+02  0.57177076624E+03  0.57953587949E+03  0.00000000000E+00 0.  1.
         21    1    1    2  504  503  0.63497949573E+02 -0.81519403713E+02  0.31034489931E+02  0.10789134510E+03  0.00000000000E+00 0. -1.
         21    1    1    2  505  504  0.38933831060E+02  0.17872104833E+02 -0.56148059641E+01  0.43206265497E+02  0.00000000000E+00 0. -1.
         -2    1    1    2    0  505 -0.14752907438E+02  0.28257445994E+02 -0.30018554242E+03  0.30187330357E+03  0.00000000000E+00 0.  1.
<scales pt_clust_3="94.19859" pt_clust_4="14000.00000" pt_clust_5="43.82361" pt_clust_6="31.87682"></scales>
<clustering>
<clus scale="   31.877">  2  6  1 -1</clus>
<clus scale="   43.824">  2  5  1 -1</clus>
<clus scale="   94.199">  1  3  2 -1</clus>
<clus scale="   94.199">  1  3  2 -1</clus>
</clustering>
</event>
<event>
 6    0  0.6525019E+002  0.1123316E+03  0.7546771E-02  0.1256312E+00
          2   -1    0    0  504    0 -0.00000000000E+00  0.00000000000E+00  0.22048551578E+04  0.22048551578E+04  0.00000000000E+00 0.  1.
         21   -1    0    0  503  502  0.00000000000E+00 -0.00000000000E+00 -0.80505455038E+02  0.80505455038E+02  0.00000000000E+00 0. -1.
         21    1    1    2  503  505  0.81332412764E+02  0.85470374794E+02 -0.55849520983E+01  0.11811578228E+03  0.00000000000E+00 0. -1.
         21    1    1    2  504  502  0.97668306599E+02 -0.32003532806E+02  0.25644319702E+03  0.27627239732E+03  0.00000000000E+00 0.  1.
         21    1    1    2  505  501 -0.94555814641E+02 -0.18732459692E+02  0.30599401336E+03  0.32081777279E+03  0.00000000000E+00 0. -1.
          2    1    1    2  501    0 -0.84444904722E+02 -0.34734382296E+02  0.15674974445E+04  0.15701546604E+04  0.00000000000E+00 0.  1.
<scales pt_clust_3="14000.00000" pt_clust_4="77.77335" pt_clust_5="112.33160" pt_clust_6="91.30947"></scales>
<clustering>
<clus scale="   91.309">  1  6  2 -1</clus>
<clus scale="   77.773">  1  4  2 -1</clus>
<clus scale="  112.332">  1  5  2 -1</clus>
<clus scale="  112.332">  2  3  1 -1</clus>
</clustering>
</event>
<event>
 6    0  0.6525019E+002  0.1203262E+03  0.7546771E-02  0.1242560E+00
         21   -1    0    0  501  502  0.00000000000E+00  0.00000000000E+00  0.10344330985E+04  0.10344330985E+04  0.00000000000E+00 0.  1.
          1   -1    0    0  505    0 -0.00000000000E+00 -0.00000000000E+00 -0.71017196176E+02  0.71017196176E+02  0.00000000000E+00 0.  1.
         21    1    1    2  503  502  0.10119482436E+03  0.64061633273E+01  0.40822028857E+03  0.42062481549E+03  0.00000000000E+00 0.  1.
         21    1    1    2  504  503 -0.16791857262E+03 -0.28911267831E+02  0.35708406014E+03  0.39565330081E+03  0.00000000000E+00 0.  1.
         21    1    1    2  505  504  0.89911539192E+02  0.90166214874E+02  0.16981841969E+03  0.21225533409E+03  0.00000000000E+00 0.  1.
          1    1    1    2  501    0 -0.23187790939E+02 -0.67661110371E+02  0.28293133908E+02  0.76916844265E+02  0.00000000000E+00 0.  1.
<scales pt_clust_3="98.14948" pt_clust_4="120.32622" pt_clust_5="14000.00000" pt_clust_6="71.52412"></scales>
<clustering>
<clus scale="   71.524">  2  6  1 -1</clus>
<clus scale="   98.149">  1  3  2 -1</clus>
<clus scale="  120.326">  1  4  2 -1</clus>
<clus scale="   98.149">  1  3  2 -1</clus>
</clustering>
</event>
<event>
 6    0  0.6525019E+002  0.1521203E+03  0.7546771E-02  0.1197892E+00
         21   -1    0    0  505  502  0.00000000000E+00  0.00000000000E+00  0.13173036421E+04  0.13173036421E+04  0.00000000000E+00 0. -1.
          1   -1    0    0  503    0 -0.00000000000E+00 -0.00000000000E+00 -0.10381242110E+04  0.10381242110E+04  0.00000000000E+00 0. -1.
         21    1    1    2  503  502 -0.13781491968E+03 -0.26805126493E+02  0.76958648716E+03  0.78228820016E+03  0.00000000000E+00 0. -1.
         21    1    1    2  504  501  0.59416530684E+01  0.41541411492E+02  0.12503673178E+03  0.13189077452E+03  0.00000000000E+00 0. -1.
         21    1    1    2  505  504 -0.19703855312E+02 -0.28608223824E+02  0.40652541353E+03  0.40800684336E+03  0.00000000000E+00 0. -1.
          1    1    1    2  501    0  0.15157712192E+03  0.13871938825E+02 -0.10219692014E+04  0.10332420351E+04  0.00000000000E+00 0. -1.
<scales pt_clust_3="14000.00000" pt_clust_4="37.63590" pt_clust_5="34.73719" pt_clust_6="152.12026"></scales>
<clustering>
<clus scale="   34.737">  1  5  2 -1</clus>
<clus scale="   37.636">  1  4  2 -1</clus>
<clus scale="  152.120">  2  6  1 -1</clus>
<clus scale="   34.737">  1  3  2 -1</clus>
</clustering>
</event>
<event>
 6    0  0.6525019E+002  0.1312757E+03  0.7546771E-02  0.1225575E+00
         -4   -1    0    0    0  501 -0.00000000000E+00  0.00000000000E+00  0.63344461794E+03  0.63344461794E+03  0.00000000000E+00 0. -1.
         21   -1    0    0  505  502  0.00000000000E+00 -0.00000000000E+00 -0.87466032972E+03  0.87466032972E+03  0.00000000000E+00 0.  1.
         21    1    1    2  503  504  0.27515909276E+02 -0.61888644700E+02  0.14378401165E+03  0.15893763434E+03  0.00000000000E+00 0. -1.
         21    1    1    2  504  502  0.31373923549E+02 -0.10387385321E+03 -0.22593470471E+03  0.25064036238E+03  0.00000000000E+00 0.  1.
         21    1    1    2  505  501 -0.77048107982E+02  0.12776684201E+03 -0.61896987987E+03  0.63669811453E+03  0.00000000000E+00 0.  1.
         -4    1    1    2    0  503  0.18158275157E+02  0.37995655903E+02  0.45990486115E+03  0.46182883640E+03  0.00000000000E+00 0. -1.
<scales pt_clust_3="51.99138" pt_clust_4="14000.00000" pt_clust_5="131.27571" pt_clust_6="42.11167"></scales>
<clustering>
<clus scale="   42.112">  1  6  2 -1</clus>
<clus scale="   51.991">  1  3  2 -1</clus>
<clus scale="  131.276">  2  5  1 -1</clus>
<clus scale="  131.276">  2  3  1 -1</clus>
</clustering>
</event>
<event>
 6    0  0.6525019E+002  0.1414750E+03  0.7546771E-02  0.1211358E+00
         21   -1    0    0  505  502  0.00000000000E+00  0.00000000000E+00  0.23497869690E+04  0.23497869690E+04  0.00000000000E+00 0.  1.
          2   -1    0    0  503    0 -0.00000000000E+00 -0.00000000000E+00 -0.93827470964E+03  0.93827470964E+03  0.00000000000E+00 0.  1.
         21    1    1    2  503  504  0.97107918261E+02  0.52394814648E+02  0.47047223955E+01  0.11044138175E+03  0.00000000000E+00 0. -1.
         21    1    1    2  504  502 -0.11271362299E+03  0.59009126827E+02  0.33746118195E+03  0.36064731689E+03  0.00000000000E+00 0.  1.
         21    1    1    2  505  501  0.17360692014E+02 -0.15782457270E+03  0.19392955086E+04  0.19457844328E+04  0.00000000000E+00 0.  1.
          2    1    1    2  501    0 -0.17549872879E+01  0.46420631227E+02 -0.86994915356E+03  0.87118854720E+03  0.00000000000E+00 0.  1.
<scales pt_clust_3="130.47287" pt_clust_4="14000.00000" pt_clust_5="141.47495" pt_clust_6="46.45379"></scales>
<clustering>
<clus scale="   46.454">  2  6  1 -1</clus>
<clus scale="  130.473">  2  3  1 -1</clus>
<clus scale="  141.475">  1  5  2 -1</clus>
<clus scale="  141.475">  1  3  2 -1</clus>
</clustering>
</event>
<event>
 6    0  0.6525019E+002  0.2801237E+03  0.7546771E-02  0.1095621E+00
         -1   -1    0    0    0  501 -0.00000000000E+00  0.00000000000E+00  0.34762982413E+03  0.34762982413E+03  0.00000000000E+00 0.  1.
         21   -1    0    0  504  502  0.00000000000E+00 -0.00000000000E+00 -0.56547262514E+03  0.56547262514E+03  0.00000000000E+00 0.  1.
         21    1    1    2  503  505 -0.27643409031E+03  0.78873603192E+02 -0.16574216350E+03  0.33182422505E+03  0.00000000000E+00 0.  1.
         21    1    1    2  504  501 -0.34406872566E+02 -0.71423257623E+00 -0.87842592669E+02  0.94343330950E+02  0.00000000000E+00 0. -1.
         21    1    1    2  505  502  0.43952961098E+02 -0.64478008178E+00 -0.14758929819E+03  0.15399636187E+03  0.00000000000E+00 0.  1.
         -1    1    1    2    0  503  0.26688800178E+03 -0.77514590534E+02  0.18333125335E+03  0.33293853140E+03  0.00000000000E+00 0.  1.
<scales pt_clust_3="14000.00000" pt_clust_4="34.41428" pt_clust_5="33.02743" pt_clust_6="280.12374"></scales>
<clustering>
<clus scale="   34.414">  2  4  1 -1</clus>
<clus scale="   33.027">  2  5  1 -1</clus>
<clus scale="  280.124">  1  6  2 -1</clus>
<clus scale="   34.414">  2  3  1 -1</clus>
</clustering>
</event>
<event>
 6    0  0.6525019E+002  0.3228441E+03  0.7546771E-02  0.1074348E+00
          2   -1    0    0  505    0 -0.00000000000E+00  0.00000000000E+00  0.19857510130E+04  0.19857510130E+04  0.00000000000E+00 0.  1.
         21   -1    0    0  504  502  0.00000000000E+00 -0.00000000000E+00 -0.29474355117E+03  0.29474355117E+03  0.00000000000E+00 0.  1.
         21    1    1    2  503  502  0.66852087054E+02  0.77153408100E+02 -0.81558499771E+02  0.13066613490E+03  0.00000000000E+00 0.  1.
         21    1    1    2  504  501  0.56141099149E+02 -0.11890609899E+03  0.67511736551E+02  0.14781176531E+03  0.00000000000E+00 0.  1.
         21    1    1    2  505  503  0.75552362379E+02  0.25340771109E+03 -0.80032207037E+01  0.26455184566E+03  0.00000000000E+00 0.  1.
          2    1    1    2  501    0 -0.19854554858E+03 -0.21165502020E+03  0.17130574457E+04  0.17374648183E+04  0.00000000000E+00 0.  1.
<scales pt_clust_3="84.79947" pt_clust_4="131.49328" pt_clust_5="84.79947" pt_clust_6="292.57824"></scales>
<clustering>
<clus scale="   84.799">  3  5 -1 -1</clus>
<clus scale="  131.493">  2  4  1 -1</clus>
<clus scale="  292.578">  1  6  2 -1</clus>
<clus scale="  131.493">  2  3  1 -1</clus>
</clustering>
</event>
<event>
 6    0  0.6525019E+002  0.9843674E+02  0.7546771E-02  0.1283618E+00
         21   -1    0    0  505  502  0.00000000000E+00  0.00000000000E+00  0.22161783168E+03  0.22161783168E+03  0.00000000000E+00 0.  1.
          2   -1    0    0  502    0 -0.00000000000E+00 -0.00000000000E+00 -0.61813482900E+03  0.61813482900E+03  0.00000000000E+00 0. -1.
         21    1    1    2  503  504 -0.12411794221E+03  0.22063196479E+02  0.78752790885E+02  0.14864067509E+03  0.00000000000E+00 0. -1.
         21    1    1    2  504  501  0.61800636460E+02 -0.28131915796E+02 -0.10685285840E+03  0.12660275156E+03  0.00000000000E+00 0.  1.
         21    1    1    2  505  503  0.19068050280E+02 -0.31542647155E+02  0.92744247265E+02  0.99799922504E+02  0.00000000000E+00 0.  1.
          2    1    1    2  501    0  0.43249255475E+02  0.37611366472E+02 -0.46116117706E+03  0.46470931152E+03  0.00000000000E+00 0. -1.
<scales pt_clust_3="98.43674" pt_clust_4="14000.00000" pt_clust_5="36.85823" pt_clust_6="57.22890"></scales>
<clustering>
<clus scale="   36.858">  1  5  2 -1</clus>
<clus scale="   57.229">  2  6  1 -1</clus>
<clus scale="   98.437">  1  3  2 -1</clus>
<clus scale="   36.858">  1  3  2 -1</clus>
</clustering>
</event>
<event>
 6    0  0.6525019E+002  0.1172927E+03  0.7546771E-02  0.1247631E+00
         21   -1    0    0  504  502  0.00000000000E+00  0.00000000000E+00  0.10387225011E+04  0.10387225011E+04  0.00000000000E+00 0. -1.
         -1   -1    0    0    0  501 -0.00000000000E+00 -0.00000000000E+00 -0.14157250348E+03  0.14157250348E+03  0.00000000000E+00 0. -1.
         21    1    1    2  503  502  0.25977272078E+02 -0.10869669525E+03  0.56808971618E+03  0.57897816526E+03  0.00000000000E+00 0. -1.
         21    1    1    2  504  501 -0.36201182983E+02  0.71204482671E+02  0.62032268171E+02  0.10113657250E+03  0.00000000000E+00 0.  1.
         21    1    1    2  505  503 -0.58324593778E+02  0.11822821019E+03  0.34456274991E+03  0.36892161301E+03  0.00000000000E+00 0. -1.
         -1    1    1    2    0  505  0.68548504683E+02 -0.80735997605E+02 -0.77534736659E+02  0.13125865378E+03  0.00000000000E+00 0. -1.
<scales pt_clust_3="117.29268" pt_clust_4="79.87868" pt_clust_5="14000.00000" pt_clust_6="42.48075"></scales>
<clustering>
<clus scale="   79.879">  2  4  1 -1</clus>
<clus scale="   42.481">  2  6  1 -1</clus>
<clus scale="  117.293">  1  3  2 -1</clus>
<clus scale="  117.293">  1  3  2 -1</clus>
</clustering>
</event>
<event>
 6    0  0.6525019E+002  0.1183997E+03  0.7546771E-02  0.1245761E+00
         21   -1    0    0  505  502  0.00000000000E+00  0.00000000000E+00  0.24912710406E+03  0.24912710406E+03  0.00000000000E+00 0. -1.
          2   -1    0    0  504    0 -0.00000000000E+00 -0.00000000000E+00 -0.64095271184E+03  0.64095271184E+03  0.00000000000E+00 0. -1.
         21    1    1    2  503  501 -0.39109794908E+02  0.17464628342E+02  0.21066476640E+02  0.47732439063E+02  0.00000000000E+00 0. -1.
         21    1    1    2  504  502  0.52277286132E+02 -0.12833211751E+03 -0.47680852478E+03  0.49653641994E+03  0.00000000000E+00 0. -1.
         21    1    1    2  505  503 -0.36344524026E+02  0.16569902136E+02  0.18576024658E+03  0.19000619803E+03  0.00000000000E+00 0. -1.
          2    1    1    2  501    0  0.23177032802E+02  0.94297587030E+02 -0.12184380622E+03  0.15580475886E+03  0.00000000000E+00 0. -1.
<scales pt_clust_3="65.26714" pt_clust_4="14000.00000" pt_clust_5="39.94354" pt_clust_6="118.39970"></scales>
<clustering>
<clus scale="   39.944">  1  5  2 -1</clus>
<clus scale="   65.267">  1  3  2 -1</clus>
<clus scale="  118.400">  1  6  2 -1</clus>
<clus scale="   39.944">  1  3  2 -1</clus>
</clustering>
</event>
<event>
 6    0  0.6525019E+002  0.7117337E+02  0.7546771E-02  0.1356148E+00
         21   -1    0    0  504  502  0.00000000000E+00  0.00000000000E+00  0.35217613760E+03  0.35217613760E+03  0.00000000000E+00 0.  1.
          3   -1    0    0  505    0 -0.00000000000E+00 -0.00000000000E+00 -0.52346202418E+03  0.52346202418E+03  0.00000000000E+00 0.  1.
         21    1    1    2  503  501  0.54439729303E+02  0.72233699501E+02 -0.52813117767E+02  0.10474071261E+03  0.00000000000E+00 0.  1.
         21    1    1    2  504  503 -0.15081298232E+02 -0.69276550121E+02 -0.11907774892E+03  0.13858642156E+03  0.00000000000E+00 0.  1.
         21    1    1    2  505  502  0.27873178940E+02  0.18029452923E+02  0.31163919981E+03  0.31340224334E+03  0.00000000000E+00 0.  1.
          3    1    1    2  501    0 -0.67231610011E+02 -0.20986602304E+02 -0.31103421970E+03  0.31890878427E+03  0.00000000000E+00 0.  1.
<scales pt_clust_3="71.17337" pt_clust_4="65.36131" pt_clust_5="33.19601" pt_clust_6="14000.00000"></scales>
<clustering>
<clus scale="   33.196">  1  5  2 -1</clus>
<clus scale="   65.361">  1  4  2 -1</clus>
<clus scale="   71.173">  1  3  2 -1</clus>
<clus scale="   33.196">  1  3  2 -1</clus>
</clustering>
</event>
<event>
 6    0  0.6525019E+002  0.7464599E+02  0.7546771E-02  0.1344971E+00
         21   -1    0    0  503  502  0.00000000000E+00  0.00000000000E+00  0.32317349055E+03  0.32317349055E+03  0.00000000000E+00 0. -1.
          2   -1    0    0  505    0 -0.00000000000E+00 -0.00000000000E+00 -0.13554359767E+04  0.13554359767E+04  0.00000000000E+00 0. -1.
         21    1    1    2  503  501 -0.64048056762E+02  0.72741856664E+02 -0.14951732652E+03  0.17818238469E+03  0.00000000000E+00 0.  1.
         21    1    1    2  504  502 -0.52584363920E+02  0.11624915034E+02  0.28569398286E+03  0.29072548189E+03  0.00000000000E+00 0. -1.
         21    1    1    2  505  504  0.56230313846E+02 -0.65379148618E+02 -0.74577866344E+02  0.11400938302E+03  0.00000000000E+00 0.  1.
          2    1    1    2  501    0  0.60402106836E+02 -0.18987623079E+02 -0.10938612762E+04  0.10956922177E+04  0.00000000000E+00 0. -1.
<scales pt_clust_3="74.64599" pt_clust_4="53.85401" pt_clust_5="14000.00000" pt_clust_6="61.91160"></scales>
<clustering>
<clus scale="   53.854">  1  4  2 -1</clus>
<clus scale="   61.912">  2  6  1 -1</clus>
<clus scale="   74.646">  2  3  1 -1</clus>
<clus scale="   53.854">  1  3  2 -1</clus>
</clustering>
</event>
<event>
 6    0  0.6525019E+002  0.7998520E+02  0.7546771E-02  0.1329093E+00
         21   -1    0    0  503  502  0.00000000000E+00  0.00000000000E+00  0.12647290921E+04  0.12647290921E+04  0.00000000000E+00 0.  1.
         -2   -1    0    0    0  501 -0.00000000000E+00 -0.00000000000E+00 -0.40907350849E+03  0.40907350849E+03  0.00000000000E+00 0. -1.
         21    1    1    2  503  505  0.26456949112E+02 -0.83105688936E+02  0.10787886842E+04  0.10823084361E+04  0.00000000000E+00 0.  1.
         21    1    1    2  504  501  0.36662429615E+02  0.54070436786E+02  0.24434353269E+02  0.69747999965E+02  0.00000000000E+00 0. -1.
         21    1    1    2  505  504 -0.27621331819E+02  0.49491481144E+02  0.13007553854E+03  0.14188724539E+03  0.00000000000E+00 0. -1.
         -2    1    1    2    0  502 -0.35498046907E+02 -0.20456228994E+02 -0.37764299247E+03  0.37985891907E+03  0.00000000000E+00 0. -1.
<scales pt_clust_3="79.98520" pt_clust_4="40.08887" pt_clust_5="14000.00000" pt_clust_6="40.97034"></scales>
<clustering>
<clus scale="   40.970">  2  6  1 -1</clus>
<clus scale="   40.089">  2  4  1 -1</clus>
<clus scale="   79.985">  1  3  2 -1</clus>
<clus scale="   79.985">  1  3  2 -1</clus>
</clustering>
</event>
<event>
 6    0  0.6525019E+002  0.8420278E+02  0.7546771E-02  0.1317531E+00
          1   -1    0    0  505    0 -0.00000000000E+00  0.00000000000E+00  0.56836691684E+03  0.56836691684E+03  0.00000000000E+00 0. -1.
         21   -1    0    0  503  502  0.00000000000E+00 -0.00000000000E+00 -0.53085111028E+02  0.53085111028E+02  0.00000000000E+00 0. -1.
         21    1    1    2  503  504  0.15449653797E+02  0.10121822412E+03  0.50842108601E+02  0.11431859299E+03  0.00000000000E+00 0. -1.
         21    1    1    2  504  501 -0.31069374935E+02 -0.67039427312E+02  0.20101480496E+03  0.21416475594E+03  0.00000000000E+00 0. -1.
         21    1    1    2  505  502 -0.31778981248E+02 -0.15110361776E+02  0.13202462526E+02  0.37583662660E+02  0.00000000000E+00 0. -1.
          1    1    1    2  501    0  0.47398702387E+02 -0.19068435031E+02  0.25022242973E+03  0.25538501628E+03  0.00000000000E+00 0. -1.
<scales pt_clust_3="84.20278" pt_clust_4="14000.00000" pt_clust_5="35.18845" pt_clust_6="49.61244"></scales>
<clustering>
<clus scale="   35.188">  2  5  1 -1</clus>
<clus scale="   49.612">  1  6  2 -1</clus>
<clus scale="   84.203">  2  3  1 -1</clus>
<clus scale="   35.188">  2  3  1 -1</clus>
</clustering>
</event>
<event>
 6    0  0.6525019E+002  0.6309993E+02  0.7546771E-02  0.1385265E+00
         21   -1    0    0  505  502  0.00000000000E+00  0.00000000000E+00  0.17737738587E+02  0.17737738587E+02  0.00000000000E+00 0. -1.
         -1   -1    0    0    0  501 -0.00000000000E+00 -0.00000000000E+00 -0.18281841400E+04  0.18281841400E+04  0.00000000000E+00 0.  1.
         21    1    1    2  503  504 -0.12637426228E+02 -0.60772134123E+02 -0.14796150043E+03  0.16045423783E+03  0.00000000000E+00 0.  1.
         21    1    1    2  504  502 -0.54625539470E+02 -0.30619700922E+01 -0.14695109926E+03  0.15680545526E+03  0.00000000000E+00 0. -1.
         21    1    1    2  505  501  0.76277830387E+02  0.82283092111E+00 -0.24650871888E+03  0.25804172714E+03  0.00000000000E+00 0. -1.
         -1    1    1    2    0  503 -0.90148646885E+01  0.63011273294E+02 -0.12690250829E+04  0.12706204584E+04  0.00000000000E+00 0.  1.
<scales pt_clust_3="14000.00000" pt_clust_4="54.71129" pt_clust_5="51.69185" pt_clust_6="63.09993"></scales>
<clustering>
<clus scale="   54.711">  1  4  2 -1</clus>
<clus scale="   51.692">  1  5  2 -1</clus>
<clus scale="   63.100">  2  6  1 -1</clus>
<clus scale="   54.711">  1  3  2 -1</clus>
</clustering>
</event>
<event>
 6    0  0.6525019E+002  0.8075405E+02  0.7546771E-02  0.1326925E+00
         21   -1    0    0  501  502  0.00000000000E+00  0.00000000000E+00  0.33763489934E+03  0.33763489934E+03  0.00000000000E+00 0. -1.
          4   -1    0    0  503    0 -0.00000000000E+00 -0.00000000000E+00 -0.15471029022E+03  0.15471029022E+03  0.00000000000E+00 0. -1.
         21    1    1    2  503  505 -0.51917609332E+02  0.10812459289E+03  0.21164064078E+02  0.12179607282E+03  0.00000000000E+00 0.  1.
         21    1    1    2  504  502  0.26069251190E+02 -0.21190715899E+02  0.18702475835E+03  0.19001819001E+03  0.00000000000E+00 0. -1.
         21    1    1    2  505  504 -0.21227553246E+02 -0.30277145584E+02  0.58360859766E+02  0.69089105611E+02  0.00000000000E+00 0. -1.
          4    1    1    2  501    0  0.47075911388E+02 -0.56656731404E+02 -0.83625073083E+02  0.11144182112E+03  0.00000000000E+00 0. -1.
<scales pt_clust_3="80.75405" pt_clust_4="33.59542" pt_clust_5="40.60591" pt_clust_6="14000.00000"></scales>
<clustering>
<clus scale="   33.595">  1  4  2 -1</clus>
<clus scale="   40.606">  1  5  2 -1</clus>
<clus scale="   80.754">  1  3  2 -1</clus>
<clus scale="   33.595">  1  3  2 -1</clus>
</clustering>
</event>
<event>
 6    0  0.6525019E+002  0.1256699E+03  0.7546771E-02  0.1234026E+00
          2   -1    0    0  503    0 -0.00000000000E+00  0.00000000000E+00  0.30307484622E+03  0.30307484622E+03  0.00000000000E+00 0. -1.
         21   -1    0    0  504  502  0.00000000000E+00 -0.00000000000E+00 -0.95955496495E+03  0.95955496495E+03  0.00000000000E+00 0. -1.
         21    1    1    2  503  502 -0.11560967091E+03 -0.12452806586E+03 -0.81293437618E+03  0.83050294110E+03  0.00000000000E+00 0. -1.
         21    1    1    2  504  505  0.53290222707E+02  0.75650259376E+01 -0.94243047108E+02  0.10853031550E+03  0.00000000000E+00 0.  1.
         21    1    1    2  505  501  0.16141685990E+02  0.87451597061E+02  0.26492335542E+02  0.92791053974E+02  0.00000000000E+00 0.  1.
          2    1    1    2  501    0  0.46177762215E+02  0.29511442861E+02  0.22420496901E+03  0.23080550061E+03  0.00000000000E+00 0. -1.
<scales pt_clust_3="14000.00000" pt_clust_4="53.82451" pt_clust_5="125.66992" pt_clust_6="54.99089"></scales>
<clustering>
<clus scale="   53.825">  2  4  1 -1</clus>
<clus scale="   54.991">  1  6  2 -1</clus>
<clus scale="  125.670">  1  5  2 -1</clus>
<clus scale="   53.825">  2  3  1 -1</clus>
</clustering>
</event>
<event>
 6    0  0.6525019E+002  0.1513871E+03  0.7546771E-02  0.1198779E+00
         21   -1    0    0  503  502  0.00000000000E+00  0.00000000000E+00  0.38778299240E+02  0.38778299240E+02  0.00000000000E+00 0.  1.
          2   -1    0    0  505    0 -0.00000000000E+00 -0.00000000000E+00 -0.14299393895E+04  0.14299393895E+04  0.00000000000E+00 0.  1.
         21    1    1    2  503  504  0.52183717993E+02 -0.70012482957E+02 -0.79558763257E+02  0.11812910312E+03  0.00000000000E+00 0.  1.
         21    1    1    2  504  501  0.30361194279E+02 -0.79054203845E+02 -0.15134026386E+03  0.17342215755E+03  0.00000000000E+00 0.  1.
         21    1    1    2  505  502 -0.49307946278E+01  0.10052968109E+03 -0.45573644087E+03  0.46671858014E+03  0.00000000000E+00 0.  1.
          2    1    1    2  501    0 -0.77614117644E+02  0.48537005708E+02 -0.70452562224E+03  0.71044784789E+03  0.00000000000E+00 0.  1.
<scales pt_clust_3="50.72595" pt_clust_4="50.72595" pt_clust_5="142.35454" pt_clust_6="91.54120"></scales>
<clustering>
<clus scale="   50.726">  3  4 -1 -1</clus>
<clus scale="   91.541">  2  6  1 -1</clus>
<clus scale="  142.355">  2  5  1 -1</clus>
<clus scale="  151.387">  1  3  2 -1</clus>
</clustering>
</event>
<event>
 6    0  0.6525019E+002  0.1120193E+03  0.7546771E-02  0.1256875E+00
         21   -1    0    0  505  502  0.00000000000E+00  0.00000000000E+00  0.44928261628E+03  0.44928261628E+03  0.00000000000E+00 0.  1.
          2   -1    0    0  503    0 -0.00000000000E+00 -0.00000000000E+00 -0.55205784230E+04  0.55205784230E+04  0.00000000000E+00 0. -1.
         21    1    1    2  503  502 -0.11170693953E+03 -0.43222988719E+02  0.30304819833E+03  0.32586021175E+03  0.00000000000E+00 0.  1.
         21    1    1    2  504  501  0.10934274871E+03 -0.38380328782E+00 -0.23411140551E+03  0.25838756586E+03  0.00000000000E+00 0.  1.
         21    1    1    2  505  504  0.42785568129E+02 -0.50534726386E+02  0.11322055625E+03  0.13116119002E+03  0.00000000000E+00 0.  1.
          2    1    1    2  501    0 -0.40421377317E+02  0.94141518393E+02 -0.52534531558E+04  0.52544520717E+04  0.00000000000E+00 0. -1.
<scales pt_clust_3="14000.00000" pt_clust_4="112.01932" pt_clust_5="66.21453" pt_clust_6="102.35582"></scales>
<clustering>
<clus scale="   66.215">  1  5  2 -1</clus>
<clus scale="  102.356">  2  6  1 -1</clus>
<clus scale="  112.019">  2  4  1 -1</clus>
<clus scale="   66.215">  1  3  2 -1</clus>
</clustering>
</event>
<event>
 6    0  0.6525019E+002  0.7774426E+02  0.7546771E-02  0.1335578E+00
         21   -1    0    0  503  502  0.00000000000E+00  0.00000000000E+00  0.74923782855E+03  0.74923782855E+03  0.00000000000E+00 0.  1.
          2   -1    0    0  505    0 -0.00000000000E+00 -0.00000000000E+00 -0.43450643746E+02  0.43450643746E+02  0.00000000000E+00 0.  1.
         21    1    1    2  503  504  0.39182743536E+02  0.34700100425E+02  0.32844591337E+03  0.33258999138E+03  0.00000000000E+00 0.  1.
         21    1    1    2  504  501 -0.21589366549E+02 -0.10879543266E+03  0.25212442158E+03  0.27544377080E+03  0.00000000000E+00 0.  1.
         21    1    1    2  505  502  0.40119764376E+02  0.30956283172E+02  0.92607204482E+02  0.10556505711E+03  0.00000000000E+00 0.  1.
          2    1    1    2  501    0 -0.57713141363E+02  0.43139049063E+02  0.32609645372E+02  0.79089652998E+02  0.00000000000E+00 0.  1.
<scales pt_clust_3="55.17296" pt_clust_4="77.74426" pt_clust_5="50.67432" pt_clust_6="14000.00000"></scales>
<clustering>
<clus scale="   50.674">  2  5  1 -1</clus>
<clus scale="   55.173">  1  3  2 -1</clus>
<clus scale="   77.744">  1  4  2 -1</clus>
<clus scale="   55.173">  1  3  2 -1</clus>
</clustering>
</event>
<event>
 6    0  0.6525019E+002  0.8852119E+02  0.7546771E-02  0.1306473E+00
          2   -1    0    0  503    0 -0.00000000000E+00  0.00000000000E+00  0.18019558415E+04  0.18019558415E+04  0.00000000000E+00 0. -1.
         21   -1    0    0  505  502  0.00000000000E+00 -0.00000000000E+00 -0.10868875882E+02  0.10868875882E+02  0.00000000000E+00 0. -1.
         21    1    1    2  503  502  0.49412859726E+02  0.67565630453E+02  0.51403805396E+03  0.52080885749E+03  0.00000000000E+00 0. -1.
         21    1    1    2  504  501 -0.46752222378E+02 -0.80938554380E+02  0.49656220205E+03  0.50528293103E+03  0.00000000000E+00 0. -1.
         21    1    1    2  505  504  0.26791196057E+02 -0.17073167290E+02  0.99910809428E+02  0.10484002608E+03  0.00000000000E+00 0. -1.
          2    1    1    2  501    0 -0.29451833405E+02  0.30446091217E+02  0.68057590019E+03  0.68189290279E+03  0.00000000000E+00 0. -1.
<scales pt_clust_3="88.52119" pt_clust_4="14000.00000" pt_clust_5="31.76887" pt_clust_6="39.94326"></scales>
<clustering>
<clus scale="   31.769">  2  5  1 -1</clus>
<clus scale="   39.943">  1  6  2 -1</clus>
<clus scale="   88.521">  1  3  2 -1</clus>
<clus scale="   31.769">  2  3  1 -1</clus>
</clustering>
</event>
<event>
 6    0  0.6525019E+002  0.1241082E+03  0.7546771E-02  0.1236470E+00
         21   -1    0    0  505  502  0.00000000000E+00  0.00000000000E+00  0.23356223985E+03  0.23356223985E+03  0.00000000000E+00 0. -1.
          1   -1    0    0  504    0 -0.00000000000E+00 -0.00000000000E+00 -0.43064272442E+03  0.43064272442E+03  0.00000000000E+00 0. -1.
         21    1    1    2  503  502  0.26835648972E+02  0.41229536690E+02  0.13258145359E+03  0.14141382035E+03  0.00000000000E+00 0. -1.
         21    1    1    2  504  503  0.22799411429E+02  0.27246133735E+02 -0.15868399190E+02  0.38909781005E+02  0.00000000000E+00 0. -1.
         21    1    1    2  505  501 -0.12029104874E+03 -0.11949588813E+03 -0.12251742984E+02  0.16999796732E+03  0.00000000000E+00 0. -1.
          1    1    1    2  501    0  0.70655988337E+02  0.51020217702E+02 -0.30154179598E+03  0.31388339559E+03  0.00000000000E+00 0. -1.
<scales pt_clust_3="49.58007" pt_clust_4="35.52696" pt_clust_5="124.10821" pt_clust_6="14000.00000"></scales>
<clustering>
<clus scale="   35.527">  2  4  1 -1</clus>
<clus scale="   49.580">  1  3  2 -1</clus>
<clus scale="  124.108">  1  5  2 -1</clus>
<clus scale="   49.580">  1  3  2 -1</clus>
</clustering>
</event>
<event>
 6    0  0.6525019E+002  0.9092989E+02  0.7546771E-02  0.1300615E+00
          2   -1    0    0  505    0 -0.00000000000E+00  0.00000000000E+00  0.14965352413E+04  0.14965352413E+04  0.00000000000E+00 0.  1.
         21   -1    0    0  504  502  0.00000000000E+00 -0.00000000000E+00 -0.14391494575E+04  0.14391494575E+04  0.00000000000E+00 0. -1.
         21    1    1    2  503  502  0.72026100352E+02  0.57259229438E+02 -0.13250609526E+04  0.13282518235E+04  0.00000000000E+00 0. -1.
         21    1    1    2  504  501 -0.30972477440E+02  0.22042492365E+02 -0.74599084083E+02  0.83726872475E+02  0.00000000000E+00 0.  1.
         21    1    1    2  505  503 -0.55673631330E+02 -0.10994355324E+03  0.81514410851E+02  0.14775566758E+03  0.00000000000E+00 0.  1.
          2    1    1    2  501    0  0.14620008418E+02  0.30641831437E+02  0.13755314096E+04  0.13759503353E+04  0.00000000000E+00 0.  1.
<scales pt_clust_3="90.92989" pt_clust_4="38.25745" pt_clust_5="14000.00000" pt_clust_6="33.95094"></scales>
<clustering>
<clus scale="   33.951">  1  6  2 -1</clus>
<clus scale="   38.257">  2  4  1 -1</clus>
<clus scale="   90.930">  2  3  1 -1</clus>
<clus scale="   38.257">  2  3  1 -1</clus>
</clustering>
</event>
<event>
 6    0  0.6525019E+002  0.1330079E+03  0.7546771E-02  0.1223060E+00
          4   -1    0    0  505    0 -0.00000000000E+00  0.00000000000E+00  0.35801152164E+03  0.35801152164E+03  0.00000000000E+00 0. -1.
         21   -1    0    0  504  502  0.00000000000E+00 -0.00000000000E+00 -0.64893899224E+03  0.64893899224E+03  0.00000000000E+00 0.  1.
         21    1    1    2  503  501  0.15592056505E+02  0.93772795124E+02  0.12762988399E+02  0.95913206621E+02  0.00000000000E+00 0. -1.
         21    1    1    2  504  503 -0.23914465321E+02 -0.53038725769E+02 -0.35835493335E+02  0.68331476388E+02  0.00000000000E+00 0. -1.
         21    1    1    2  505  502  0.62371038573E+01 -0.10333679632E+03 -0.54695360595E+03  0.55666474829E+03  0.00000000000E+00 0.  1.
          4    1    1    2  501    0  0.20853049585E+01  0.62602726961E+02  0.27909864027E+03  0.28604108258E+03  0.00000000000E+00 0. -1.
<scales pt_clust_3="14000.00000" pt_clust_4="58.18082" pt_clust_5="133.00789" pt_clust_6="62.32466"></scales>
<clustering>
<clus scale="   58.181">  2  4  1 -1</clus>
<clus scale="   62.325">  1  6  2 -1</clus>
<clus scale="  133.008">  2  5  1 -1</clus>
<clus scale="   58.181">  2  3  1 -1</clus>
</clustering>
</event>
<event>
 6    0  0.6525019E+002  0.1471610E+03  0.7546771E-02  0.1204006E+00
         21   -1    0    0  503  502  0.00000000000E+00  0.00000000000E+00  0.12888141036E+04  0.12888141036E+04  0.00000000000E+00 0.  1.
          2   -1    0    0  504    0 -0.00000000000E+00 -0.00000000000E+00 -0.16674058851E+04  0.16674058851E+04  0.00000000000E+00 0. -1.
         21    1    1    2  503  505  0.97412974829E+02 -0.59260136419E+02 -0.11197942504E+03  0.15981377621E+03  0.00000000000E+00 0. -1.
         21    1    1    2  504  502  0.25586659755E+02 -0.27107339975E+02  0.12275602607E+04  0.12281260842E+04  0.00000000000E+00 0.  1.
         21    1    1    2  505  501 -0.16955611294E+03  0.86977301918E+02 -0.21120418279E+03  0.28446710409E+03  0.00000000000E+00 0.  1.
          2    1    1    2  501    0  0.46556478354E+02 -0.60982552427E+00 -0.12829684344E+04  0.12838130242E+04  0.00000000000E+00 0. -1.
<scales pt_clust_3="14000.00000" pt_clust_4="37.27580" pt_clust_5="147.16097" pt_clust_6="46.74050"></scales>
<clustering>
<clus scale="   37.276">  1  4  2 -1</clus>
<clus scale="   46.741">  2  6  1 -1</clus>
<clus scale="  147.161">  2  5  1 -1</clus>
<clus scale="   37.276">  1  3  2 -1</clus>
</clustering>
</event>
<event>
 6    0  0.6525019E+002  0.9560373E+02  0.7546771E-02  0.1289822E+00
          2   -1    0    0  503    0 -0.00000000000E+00  0.00000000000E+00  0.15890394812E+04  0.15890394812E+04  0.00000000000E+00 0.  1.
         21   -1    0    0  504  502  0.00000000000E+00 -0.00000000000E+00 -0.87876900459E+03  0.87876900459E+03  0.00000000000E+00 0.  1.
         21    1    1    2  503  502  0.25893405889E+02 -0.17403775715E+02  0.63535887420E+02  0.70782546351E+02  0.00000000000E+00 0.  1.
         21    1    1    2  504  505  0.24627312573E+02  0.61075915214E+02 -0.83128187396E+03  0.83388627876E+03  0.00000000000E+00 0.  1.
         21    1    1    2  505  501 -0.81479820996E+02  0.21667853221E+02  0.96256941575E+00  0.84317160962E+02  0.00000000000E+00 0.  1.
          2    1    1    2  501    0  0.30959102535E+02 -0.65339992720E+02  0.14770538937E+04  0.14788224997E+04  0.00000000000E+00 0.  1.
<scales pt_clust_3="31.19872" pt_clust_4="65.84865" pt_clust_5="14000.00000" pt_clust_6="95.60373"></scales>
<clustering>
<clus scale="   31.199">  1  3  2 -1</clus>
<clus scale="   65.849">  2  4  1 -1</clus>
<clus scale="   95.604">  1  6  2 -1</clus>
<clus scale="   65.849">  2  3  1 -1</clus>
</clustering>
</event>
<event>
 6    0  0.6525019E+002  0.7652586E+02  0.7546771E-02  0.1339210E+00
         21   -1    0    0  503  502  0.00000000000E+00  0.00000000000E+00  0.44916911394E+03  0.44916911394E+03  0.00000000000E+00 0.  1.
          1   -1    0    0  505    0 -0.00000000000E+00 -0.00000000000E+00 -0.47265170952E+03  0.47265170952E+03  0.00000000000E+00 0.  1.
         21    1    1    2  503  501 -0.48655773988E+02 -0.63885685811E+02  0.19995383524E+03  0.21547691622E+03  0.00000000000E+00 0.  1.
         21    1    1    2  504  502 -0.23438420808E+02  0.40655681072E+02  0.20623333933E+03  0.21150516359E+03  0.00000000000E+00 0.  1.
         21    1    1    2  505  504 -0.49912624618E+02 -0.54157412791E+02 -0.51114639284E+02  0.89649326855E+02  0.00000000000E+00 0.  1.
          1    1    1    2  501    0  0.12200681941E+03  0.77387417530E+02 -0.37855513087E+03  0.40518941679E+03  0.00000000000E+00 0.  1.
<scales pt_clust_3="76.52586" pt_clust_4="46.92807" pt_clust_5="72.61523" pt_clust_6="14000.00000"></scales>
<clustering>
<clus scale="   46.928">  1  4  2 -1</clus>
<clus scale="   72.615">  2  5  1 -1</clus>
<clus scale="   76.526">  1  3  2 -1</clus>
<clus scale="   46.928">  1  3  2 -1</clus>
</clustering>
</event>
<event>
 6    0  0.6525019E+002  0.2310400E+03  0.7546771E-02  0.1125910E+00
         21   -1    0    0  504  502  0.00000000000E+00  0.00000000000E+00  0.72772867226E+03  0.72772867226E+03  0.00000000000E+00 0. -1.
          2   -1    0    0  503    0 -0.00000000000E+00 -0.00000000000E+00 -0.12867709002E+04  0.12867709002E+04  0.00000000000E+00 0. -1.
         21    1    1    2  503  505  0.13339638921E+03 -0.18170914967E+02 -0.48888032710E+03  0.50707864580E+03  0.00000000000E+00 0. -1.
         21    1    1    2  504  501 -0.20889781894E+03  0.39362871895E+02  0.68910205672E+03  0.72114449247E+03  0.00000000000E+00 0. -1.
         21    1    1    2  505  502  0.92650167991E+02  0.54421398163E+02 -0.26479804571E+03  0.28576869531E+03  0.00000000000E+00 0. -1.
          2    1    1    2  501    0 -0.17148738255E+02 -0.75613355091E+02 -0.49446591182E+03  0.50050773884E+03  0.00000000000E+00 0. -1.
<scales pt_clust_3="73.10765" pt_clust_4="212.63775" pt_clust_5="73.10765" pt_clust_6="77.53360"></scales>
<clustering>
<clus scale="   77.534">  2  6  1 -1</clus>
<clus scale="   73.108">  3  5 -1 -1</clus>
<clus scale="  212.638">  1  4  2 -1</clus>
<clus scale="  212.638">  1  3  2 -1</clus>
</clustering>
</event>
<event>
 6    0  0.6525019E+002  0.1412247E+03  0.7546771E-02  0.1211691E+00
         21   -1    0    0  504  502  0.00000000000E+00  0.00000000000E+00  0.93468283426E+02  0.93468283426E+02  0.00000000000E+00 0.  1.
          2   -1    0    0  503    0 -0.00000000000E+00 -0.00000000000E+00 -0.29841229383E+04  0.29841229383E+04  0.00000000000E+00 0. -1.
         21    1    1    2  503  502  0.22433831846E+02 -0.60402421447E+02  0.57885255640E+02  0.86616581256E+02  0.00000000000E+00 0.  1.
         21    1    1    2  504  505  0.46882523961E+02 -0.24489649464E+02 -0.44013269337E+02  0.68810477847E+02  0.00000000000E+00 0.  1.
         21    1    1    2  505  501 -0.16056800784E+03 -0.26345382884E+02 -0.11078059517E+04  0.11196920072E+04  0.00000000000E+00 0. -1.
          2    1    1    2  501    0  0.91251652031E+02  0.11123745379E+03 -0.17967206895E+04  0.18024721554E+04  0.00000000000E+00 0. -1.
<scales pt_clust_3="104.33223" pt_clust_4="52.89342" pt_clust_5="141.22467" pt_clust_6="14000.00000"></scales>
<clustering>
<clus scale="   52.893">  1  4  2 -1</clus>
<clus scale="  104.332">  1  3  2 -1</clus>
<clus scale="  141.225">  1  5  2 -1</clus>
<clus scale="   52.893">  1  3  2 -1</clus>
</clustering>
</event>
<event>
 6    0  0.6525019E+002  0.9072456E+02  0.7546771E-02  0.1301106E+00
          2   -1    0    0  503    0 -0.00000000000E+00  0.00000000000E+00  0.10847150039E+04  0.10847150039E+04  0.00000000000E+00 0. -1.
         21   -1    0    0  501  502  0.00000000000E+00 -0.00000000000E+00 -0.49512144810E+02  0.49512144810E+02  0.00000000000E+00 0. -1.
         21    1    1    2  503  504 -0.30172498022E+02  0.30088433043E+01  0.97743080996E+02  0.10233837334E+03  0.00000000000E+00 0.  1.
         21    1    1    2  504  505 -0.54539617411E+02 -0.77639524873E+02  0.52908801879E+03  0.53752822932E+03  0.00000000000E+00 0.  1.
         21    1    1    2  505  502  0.18430844451E+01  0.33305032931E+02 -0.30879062811E+02  0.45454798414E+02  0.00000000000E+00 0. -1.
          2    1    1    2  501    0  0.82869030987E+02  0.41325648637E+02  0.43925082208E+03  0.44890574760E+03  0.00000000000E+00 0. -1.
<scales pt_clust_3="30.32215" pt_clust_4="90.72456" pt_clust_5="33.36664" pt_clust_6="14000.00000"></scales>
<clustering>
<clus scale="   30.322">  1  3  2 -1</clus>
<clus scale="   33.367">  2  5  1 -1</clus>
<clus scale="   90.725">  2  4  1 -1</clus>
<clus scale="   33.367">  2  3  1 -1</clus>
</clustering>
</event>
<event>
 6    0  0.6525019E+002  0.1253041E+03  0.7546771E-02  0.1234595E+00
          1   -1    0    0  503    0 -0.00000000000E+00  0.00000000000E+00  0.13522371648E+04  0.13522371648E+04  0.00000000000E+00 0.  1.
         21   -1    0    0  505  502  0.00000000000E+00 -0.00000000000E+00 -0.87208426193E+02  0.87208426193E+02  0.00000000000E+00 0.  1.
         21    1    1    2  503  502 -0.11288577737E+03 -0.23892017268E+02 -0.32137750793E+02  0.11977838806E+03  0.00000000000E+00 0.  1.
         21    1    1    2  504  501  0.70313571244E+02  0.14813596242E+02  0.16219674190E+03  0.17740130783E+03  0.00000000000E+00 0.  1.
         21    1    1    2  505  504  0.14912055152E+02  0.38581911936E+02  0.12869712280E+03  0.13518092593E+03  0.00000000000E+00 0.  1.
          1    1    1    2  501    0  0.27660150970E+02 -0.29503490909E+02  0.10062726247E+04  0.10070849691E+04  0.00000000000E+00 0.  1.
<scales pt_clust_3="112.81485" pt_clust_4="36.38485" pt_clust_5="36.38485" pt_clust_6="40.44181"></scales>
<clustering>
<clus scale="   40.442">  1  6  2 -1</clus>
<clus scale="   36.385">  4  5 -1 -1</clus>
<clus scale="  112.815">  2  3  1 -1</clus>
<clus scale="  112.815">  2  3  1 -1</clus>
</clustering>
</event>
<event>
 6    0  0.6525019E+002  0.1038153E+03  0.7546771E-02  0.1272471E+00
         21   -1    0    0  503  502  0.00000000000E+00  0.00000000000E+00  0.18795822154E+02  0.18795822154E+02  0.00000000000E+00 0.  1.
          1   -1    0    0  502    0 -0.00000000000E+00 -0.00000000000E+00 -0.21473557949E+04  0.21473557949E+04  0.00000000000E+00 0. -1.
         21    1    1    2  503  505 -0.14201956800E+02 -0.34478058352E+02 -0.87703997405E+02  0.95301748387E+02  0.00000000000E+00 0.  1.
         21    1    1    2  504  501  0.71693594495E+02 -0.50264423719E+02 -0.78802183367E+03  0.79287129733E+03  0.00000000000E+00 0.  1.
         21    1    1    2  505  504 -0.87192428358E+02  0.77186792571E+02 -0.26249515666E+03  0.28716550590E+03  0.00000000000E+00 0.  1.
          1    1    1    2  501    0  0.29700790662E+02  0.75556895001E+01 -0.99033898501E+03  0.99081306544E+03  0.00000000000E+00 0. -1.
<scales pt_clust_3="35.89380" pt_clust_4="103.81534" pt_clust_5="14000.00000" pt_clust_6="30.64678"></scales>
<clustering>
<clus scale="   30.647">  2  6  1 -1</clus>
<clus scale="   35.894">  1  3  2 -1</clus>
<clus scale="  103.815">  2  4  1 -1</clus>
<clus scale="   35.894">  1  3  2 -1</clus>
</clustering>
</event>
<event>
 6    0  0.6525019E+002  0.8560131E+02  0.7546771E-02  0.1313867E+00
         21   -1    0    0  504  502  0.00000000000E+00  0.00000000000E+00  0.67704974817E+02  0.67704974817E+02  0.00000000000E+00 0. -1.
          3   -1    0    0  503    0 -0.00000000000E+00 -0.00000000000E+00 -0.88320091642E+03  0.88320091642E+03  0.00000000000E+00 0.  1.
         21    1    1    2  503  505  0.49612828160E+01  0.32982768634E+02 -0.17828195341E+03  0.18137511479E+03  0.00000000000E+00 0.  1.
         21    1    1    2  504  501  0.64267773113E+02  0.77566881693E+01  0.24023001332E+02  0.69047935996E+02  0.00000000000E+00 0. -1.
         21    1    1    2  505  502  0.25194974410E+01 -0.79584749917E+02 -0.77645289036E+02  0.11121542697E+03  0.00000000000E+00 0. -1.
          3    1    1    2  501    0 -0.71748553370E+02  0.38845293114E+02 -0.58359170049E+03  0.58926741348E+03  0.00000000000E+00 0.  1.
<scales pt_clust_3="33.35382" pt_clust_4="65.02646" pt_clust_5="85.60131" pt_clust_6="14000.00000"></scales>
<clustering>
<clus scale="   33.354">  2  3  1 -1</clus>
<clus scale="   65.026">  1  4  2 -1</clus>
<clus scale="   85.601">  1  5  2 -1</clus>
<clus scale="   65.026">  1  3  2 -1</clus>
</clustering>
</event>
<event>
 6    0  0.6525019E+002  0.9146434E+02  0.7546771E-02  0.1299344E+00
         21   -1    0    0  503  502  0.00000000000E+00  0.00000000000E+00  0.41550654642E+02  0.41550654642E+02  0.00000000000E+00 0. -1.
         -2   -1    0    0    0  501 -0.00000000000E+00 -0.00000000000E+00 -0.97371594898E+03  0.97371594898E+03  0.00000000000E+00 0. -1.
         21    1    1    2  503  505 -0.25516681315E+02 -0.17932473212E+02 -0.68561964014E+02  0.75322091914E+02  0.00000000000E+00 0. -1.
         21    1    1    2  504  502 -0.41486043969E+02 -0.60097612975E+02 -0.13997939239E+02  0.74355613322E+02  0.00000000000E+00 0. -1.
         21    1    1    2  505  501  0.95664576583E+02  0.17622373228E+02 -0.44621091429E+03  0.45669074797E+03  0.00000000000E+00 0. -1.
         -2    1    1    2    0  504 -0.28661851299E+02  0.60407712959E+02 -0.40339447679E+03  0.40889815041E+03  0.00000000000E+00 0. -1.
<scales pt_clust_3="31.18773" pt_clust_4="14000.00000" pt_clust_5="91.46434" pt_clust_6="66.51999"></scales>
<clustering>
<clus scale="   31.188">  1  3  2 -1</clus>
<clus scale="   66.520">  2  6  1 -1</clus>
<clus scale="   91.464">  2  5  1 -1</clus>
<clus scale="   31.188">  1  3  2 -1</clus>
</clustering>
</event>
<event>
 6    0  0.6525019E+002  0.2472127E+03  0.7546771E-02  0.1115079E+00
         21   -1    0    0  504  502  0.00000000000E+00  0.00000000000E+00  0.24738227568E+03  0.24738227568E+03  0.00000000000E+00 0.  1.
          2   -1    0    0  505    0 -0.00000000000E+00 -0.00000000000E+00 -0.49127342714E+03  0.49127342714E+03  0.00000000000E+00 0.  1.
         21    1    1    2  503  502  0.20326706754E+03 -0.14962882204E+03 -0.12266024048E+02  0.25269891269E+03  0.00000000000E+00 0.  1.
         21    1    1    2  504  501 -0.31956092982E+02 -0.21225754960E+02  0.39444112429E+02  0.55023291047E+02  0.00000000000E+00 0. -1.
         21    1    1    2  505  503 -0.20402034349E+03  0.13858860800E+03 -0.12242908592E+03  0.27535428797E+03  0.00000000000E+00 0.  1.
          2    1    1    2  501    0  0.32709368938E+02  0.32265969005E+02 -0.14864015392E+03  0.15557921111E+03  0.00000000000E+00 0.  1.
<scales pt_clust_3="247.21274" pt_clust_4="38.36306" pt_clust_5="14000.00000" pt_clust_6="45.29299"></scales>
<clustering>
<clus scale="   38.363">  1  4  2 -1</clus>
<clus scale="   45.293">  2  6  1 -1</clus>
<clus scale="  247.213">  1  3  2 -1</clus>
<clus scale="   38.363">  1  3  2 -1</clus>
</clustering>
</event>
<event>
 6    0  0.6525019E+002  0.1527394E+03  0.7546771E-02  0.1197147E+00
         21   -1    0    0  504  502  0.00000000000E+00  0.00000000000E+00  0.90157230794E+03  0.90157230794E+03  0.00000000000E+00 0.  1.
          1   -1    0    0  505    0 -0.00000000000E+00 -0.00000000000E+00 -0.69881390213E+03  0.69881390213E+03  0.00000000000E+00 0.  1.
         21    1    1    2  503  502  0.57546596455E+02  0.11370308957E+02  0.18514782969E+03  0.19421795367E+03  0.00000000000E+00 0. -1.
         21    1    1    2  504  501 -0.16356702151E+03  0.24895557464E+02  0.42734353413E+03  0.45825370208E+03  0.00000000000E+00 0.  1.
         21    1    1    2  505  503  0.60197340779E+02 -0.52034033130E+02  0.26231712003E+03  0.27411955767E+03  0.00000000000E+00 0.  1.
          1    1    1    2  501    0  0.45823084277E+02  0.15768166709E+02 -0.67205007803E+03  0.67379499665E+03  0.00000000000E+00 0.  1.
<scales pt_clust_3="53.08181" pt_clust_4="140.46837" pt_clust_5="53.08181" pt_clust_6="48.46019"></scales>
<clustering>
<clus scale="   48.460">  2  6  1 -1</clus>
<clus scale="   53.082">  3  5 -1 -1</clus>
<clus scale="  140.468">  2  4  1 -1</clus>
<clus scale="  152.739">  1  3  2 -1</clus>
</clustering>
</event>
<event>
 6    0  0.6525019E+002  0.1776173E+03  0.7546771E-02  0.1170129E+00
         21   -1    0    0  504  502  0.00000000000E+00  0.00000000000E+00  0.40178238586E+03  0.40178238586E+03  0.00000000000E+00 0. -1.
          2   -1    0    0  505    0 -0.00000000000E+00 -0.00000000000E+00 -0.39190626577E+04  0.39190626577E+04  0.00000000000E+00 0.  1.
         21    1    1    2  503  502 -0.10953027253E+03 -0.15869079643E+03 -0.11264866503E+04  0.11428699938E+04  0.00000000000E+00 0.  1.
         21    1    1    2  504  501 -0.29580951065E+02  0.48745179415E+02  0.38775012850E+03  0.39192000119E+03  0.00000000000E+00 0. -1.
         21    1    1    2  505  503  0.15232817404E+03  0.82906335271E+02 -0.22647942136E+04  0.22714246990E+04  0.00000000000E+00 0.  1.
          2    1    1    2  501    0 -0.13216950451E+02  0.27039281746E+02 -0.51374953643E+03  0.51463034959E+03  0.00000000000E+00 0.  1.
<scales pt_clust_3="14000.00000" pt_clust_4="57.03699" pt_clust_5="177.61730" pt_clust_6="30.09669"></scales>
<clustering>
<clus scale="   30.097">  2  6  1 -1</clus>
<clus scale="   57.037">  1  4  2 -1</clus>
<clus scale="  177.617">  2  5  1 -1</clus>
<clus scale="   57.037">  1  3  2 -1</clus>
</clustering>
</event>
<event>
 6    0  0.6525019E+002  0.7454437E+02  0.7546771E-02  0.1345288E+00
         -4   -1    0    0    0  501 -0.00000000000E+00  0.00000000000E+00  0.58795933751E+03  0.58795933751E+03  0.00000000000E+00 0.  1.
         21   -1    0    0  505  502  0.00000000000E+00 -0.00000000000E+00 -0.22051657535E+03  0.22051657535E+03  0.00000000000E+00 0.  1.
         21    1    1    2  503  501 -0.32310751947E+02 -0.42696584330E+01  0.16073834841E+03  0.16400924158E+03  0.00000000000E+00 0.  1.
         21    1    1    2  504  502  0.20677283558E+02 -0.59942639721E+02 -0.88515822273E+01  0.64023594245E+02  0.00000000000E+00 0.  1.
         21    1    1    2  505  503  0.23951775641E+01  0.13081640516E+03 -0.15556989368E+03  0.20327483995E+03  0.00000000000E+00 0.  1.
         -4    1    1    2    0  504  0.92382908250E+01 -0.66604107007E+02  0.37112588966E+03  0.37716823709E+03  0.00000000000E+00 0.  1.
<scales pt_clust_3="32.59164" pt_clust_4="63.02143" pt_clust_5="14000.00000" pt_clust_6="74.54437"></scales>
<clustering>
<clus scale="   32.592">  1  3  2 -1</clus>
<clus scale="   63.021">  2  4  1 -1</clus>
<clus scale="   74.544">  1  6  2 -1</clus>
<clus scale="   63.021">  2  3  1 -1</clus>
</clustering>
</event>
<event>
 6    0  0.6525019E+002  0.6181560E+02  0.7546771E-02  0.1390367E+00
         21   -1    0    0  503  502  0.00000000000E+00  0.00000000000E+00  0.43596154752E+03  0.43596154752E+03  0.00000000000E+00 0. -1.
          1   -1    0    0  505    0 -0.00000000000E+00 -0.00000000000E+00 -0.29128620698E+04  0.29128620698E+04  0.00000000000E+00 0.  1.
         21    1    1    2  503  501 -0.31137295930E+02  0.10694462652E+03  0.17222037335E+03  0.20510129531E+03  0.00000000000E+00 0. -1.
         21    1    1    2  504  502 -0.62420346190E+01 -0.58999508028E+02  0.23942516625E+03  0.24666640464E+03  0.00000000000E+00 0. -1.
         21    1    1    2  505  504  0.25872438321E+02  0.39806280820E+02 -0.15570062463E+03  0.16277778585E+03  0.00000000000E+00 0. -1.
          1    1    1    2  501    0  0.11506892227E+02 -0.87751399312E+02 -0.27328454373E+04  0.27342781315E+04  0.00000000000E+00 0.  1.
<scales pt_clust_3="14000.00000" pt_clust_4="59.27317" pt_clust_5="47.47550" pt_clust_6="61.81560"></scales>
<clustering>
<clus scale="   47.475">  2  5  1 -1</clus>
<clus scale="   59.273">  1  4  2 -1</clus>
<clus scale="   61.816">  2  6  1 -1</clus>
<clus scale="   59.273">  1  3  2 -1</clus>
</clustering>
</event>
<event>
 6    0  0.6525019E+002  0.1398792E+03  0.7546771E-02  0.1213492E+00
         21   -1    0    0  503  502  0.00000000000E+00  0.00000000000E+00  0.56766065461E+02  0.56766065461E+02  0.00000000000E+00 0.  1.
          1   -1    0    0  504    0 -0.00000000000E+00 -0.00000000000E+00 -0.13178702107E+04  0.13178702107E+04  0.00000000000E+00 0.  1.
         21    1    1    2  503  501 -0.31939916996E+02  0.53362485687E+02 -0.10598820687E+03  0.12288699350E+03  0.00000000000E+00 0. -1.
         21    1    1    2  504  505  0.25485858213E+02  0.87890063296E+02 -0.50818728722E+03  0.51636083419E+03  0.00000000000E+00 0. -1.
         21    1    1    2  505  502 -0.29598428240E+02 -0.14965304227E+03 -0.89777269672E+02  0.17700863867E+03  0.00000000000E+00 0.  1.
          1    1    1    2  501    0  0.36052487022E+02  0.84004932837E+01 -0.55715138153E+03  0.55837980985E+03  0.00000000000E+00 0.  1.
<scales pt_clust_3="60.72085" pt_clust_4="139.87917" pt_clust_5="14000.00000" pt_clust_6="37.01824"></scales>
<clustering>
<clus scale="   37.018">  2  6  1 -1</clus>
<clus scale="   60.721">  2  3  1 -1</clus>
<clus scale="  139.879">  2  4  1 -1</clus>
<clus scale="  139.879">  1  3  2 -1</clus>
</clustering>
</event>
<event>
 6    0  0.6525019E+002  0.1146075E+03  0.7546771E-02  0.1252268E+00
         21   -1    0    0  505  502  0.00000000000E+00  0.00000000000E+00  0.46122225419E+02  0.46122225419E+02  0.00000000000E+00 0.  1.
          2   -1    0    0  504    0 -0.00000000000E+00 -0.00000000000E+00 -0.34997254053E+04  0.34997254053E+04  0.00000000000E+00 0.  1.
         21    1    1    2  503  501  0.49571723394E+02 -0.66835792127E+02 -0.15629633665E+04  0.15651769433E+04  0.00000000000E+00 0.  1.
         21    1    1    2  504  502 -0.89377828440E+02  0.40948478977E+02 -0.66925644150E+02  0.11892945805E+03  0.00000000000E+00 0.  1.
         21    1    1    2  505  503  0.19229385798E+01  0.40697384314E+02 -0.33038282970E+01  0.40876522163E+02  0.00000000000E+00 0.  1.
          2    1    1    2  501    0  0.37883166467E+02 -0.14810071164E+02 -0.18204103409E+04  0.18208647072E+04  0.00000000000E+00 0.  1.
<scales pt_clust_3="14000.00000" pt_clust_4="114.60749" pt_clust_5="40.57485" pt_clust_6="40.67521"></scales>
<clustering>
<clus scale="   40.675">  2  6  1 -1</clus>
<clus scale="   40.575">  1  5  2 -1</clus>
<clus scale="  114.607">  1  4  2 -1</clus>
<clus scale="   40.575">  1  3  2 -1</clus>
</clustering>
</event>
<event>
 6    0  0.6525019E+002  0.9303943E+02  0.7546771E-02  0.1295654E+00
         21   -1    0    0  505  502  0.00000000000E+00  0.00000000000E+00  0.12522359915E+04  0.12522359915E+04  0.00000000000E+00 0.  1.
          2   -1    0    0  504    0 -0.00000000000E+00 -0.00000000000E+00 -0.11949873107E+04  0.11949873107E+04  0.00000000000E+00 0. -1.
         21    1    1    2  503  502  0.35625106375E+02  0.44786727139E+01  0.10465109683E+03  0.11063931843E+03  0.00000000000E+00 0.  1.
         21    1    1    2  504  503 -0.87147578070E+02  0.49544310711E+02 -0.14874644487E+03  0.17937347616E+03  0.00000000000E+00 0.  1.
         21    1    1    2  505  501  0.77370042035E+01  0.29127575237E+02  0.11269275885E+04  0.11273305046E+04  0.00000000000E+00 0.  1.
          2    1    1    2  501    0  0.43785467492E+02 -0.83150558663E+02 -0.10255835597E+04  0.10298800030E+04  0.00000000000E+00 0. -1.
<scales pt_clust_3="51.57949" pt_clust_4="14000.00000" pt_clust_5="30.13763" pt_clust_6="93.03943"></scales>
<clustering>
<clus scale="   30.138">  1  5  2 -1</clus>
<clus scale="   51.579">  1  3  2 -1</clus>
<clus scale="   93.039">  2  6  1 -1</clus>
<clus scale="   30.138">  1  3  2 -1</clus>
</clustering>
</event>
<event>
 6    0  0.6525019E+002  0.1642835E+03  0.7546771E-02  0.1183944E+00
         21   -1    0    0  503  502  0.00000000000E+00  0.00000000000E+00  0.19087728759E+03  0.19087728759E+03  0.00000000000E+00 0.  1.
          1   -1    0    0  505    0 -0.00000000000E+00 -0.00000000000E+00 -0.12333876738E+04  0.12333876738E+04  0.00000000000E+00 0.  1.
         21    1    1    2  503  504  0.15910849556E+03  0.60950016859E+02  0.66874276606E+02  0.18303711860E+03  0.00000000000E+00 0.  1.
         21    1    1    2  504  501 -0.20833504382E+03  0.27798893961E+02 -0.26614397515E+03  0.33912959838E+03  0.00000000000E+00 0.  1.
         21    1    1    2  505  502 -0.97865813356E+01 -0.65642337560E+02 -0.10790775001E+02  0.67239381911E+02  0.00000000000E+00 0.  1.
          1    1    1    2  501    0  0.59013129601E+02 -0.23106573260E+02 -0.83244991265E+03  0.83485886248E+03  0.00000000000E+00 0.  1.
<scales pt_clust_3="164.28354" pt_clust_4="14000.00000" pt_clust_5="68.01690" pt_clust_6="63.37557"></scales>
<clustering>
<clus scale="   63.376">  2  6  1 -1</clus>
<clus scale="   68.017">  1  5  2 -1</clus>
<clus scale="  164.284">  1  3  2 -1</clus>
<clus scale="   68.017">  1  3  2 -1</clus>
</clustering>
</event>
<event>
 6    0  0.6525019E+002  0.7749900E+02  0.7546771E-02  0.1336303E+00
          2   -1    0    0  502    0 -0.00000000000E+00  0.00000000000E+00  0.39788383078E+03  0.39788383078E+03  0.00000000000E+00 0.  1.
         21   -1    0    0  503  502  0.00000000000E+00 -0.00000000000E+00 -0.11115774337E+03  0.11115774337E+03  0.00000000000E+00 0.  1.
         21    1    1    2  503  504 -0.74317947853E+02  0.47288647150E+00 -0.23138437760E+00  0.74319812522E+02  0.00000000000E+00 0.  1.
         21    1    1    2  504  505  0.36399695409E+02 -0.63377656298E+02 -0.18418833778E+02  0.75371868635E+02  0.00000000000E+00 0.  1.
         21    1    1    2  505  501  0.31093696072E+02  0.10265426613E+03  0.89375962174E+02  0.13961654237E+03  0.00000000000E+00 0.  1.
          2    1    1    2  501    0  0.68245563715E+01 -0.39749496303E+02  0.21600034340E+03  0.21973335062E+03  0.00000000000E+00 0.  1.
<scales pt_clust_3="73.31975" pt_clust_4="77.49900" pt_clust_5="14000.00000" pt_clust_6="40.33109"></scales>
<clustering>
<clus scale="   40.331">  1  6  2 -1</clus>
<clus scale="   73.320">  2  3  1 -1</clus>
<clus scale="   77.499">  2  4  1 -1</clus>
<clus scale="   73.320">  2  3  1 -1</clus>
</clustering>
</event>
<event>
 6    0  0.6525019E+002  0.1015067E+03  0.7546771E-02  0.1277159E+00
         21   -1    0    0  505  502  0.00000000000E+00  0.00000000000E+00  0.84019885380E+03  0.84019885380E+03  0.00000000000E+00 0. -1.
          2   -1    0    0  503    0 -0.00000000000E+00 -0.00000000000E+00 -0.12508778814E+04  0.12508778814E+04  0.00000000000E+00 0.  1.
         21    1    1    2  503  504 -0.79321950745E+02  0.21395126813E+01 -0.26312766841E+03  0.27483216564E+03  0.00000000000E+00 0.  1.
         21    1    1    2  504  502  0.13131795788E+03  0.43684716747E+02  0.60543957666E+02  0.15105737767E+03  0.00000000000E+00 0.  1.
         21    1    1    2  505  501 -0.31920376848E+02 -0.21313483273E+02  0.72777216034E+03  0.72878357033E+03  0.00000000000E+00 0. -1.
          2    1    1    2  501    0 -0.20075630287E+02 -0.24510746155E+02 -0.93586747721E+03  0.93640362158E+03  0.00000000000E+00 0.  1.
<scales pt_clust_3="14000.00000" pt_clust_4="101.50674" pt_clust_5="38.43066" pt_clust_6="31.68292"></scales>
<clustering>
<clus scale="   31.683">  2  6  1 -1</clus>
<clus scale="   38.431">  1  5  2 -1</clus>
<clus scale="  101.507">  1  4  2 -1</clus>
<clus scale="   38.431">  1  3  2 -1</clus>
</clustering>
</event>
<event>
 6    0  0.6525019E+002  0.9465836E+02  0.7546771E-02  0.1291947E+00
         21   -1    0    0  503  502  0.00000000000E+00  0.00000000000E+00  0.27899712317E+04  0.27899712317E+04  0.00000000000E+00 0. -1.
          2   -1    0    0  505    0 -0.00000000000E+00 -0.00000000000E+00 -0.24355734305E+02  0.24355734305E+02  0.00000000000E+00 0. -1.
         21    1    1    2  503  501  0.18316874961E+02  0.25264541001E+02  0.75818056591E+03  0.75882249272E+03  0.00000000000E+00 0. -1.
         21    1    1    2  504  502  0.88185741289E+02 -0.42451540367E+02  0.15436394061E+04  0.15467389807E+04  0.00000000000E+00 0. -1.
         21    1    1    2  505  504 -0.71855771649E+02  0.37494467136E+02  0.46147546182E+03  0.46853888723E+03  0.00000000000E+00 0.  1.
          2    1    1    2  501    0 -0.34646844601E+02 -0.20307467771E+02  0.23200635942E+01  0.40226605414E+02  0.00000000000E+00 0. -1.
<scales pt_clust_3="31.20585" pt_clust_4="14000.00000" pt_clust_5="94.65836" pt_clust_6="39.86060"></scales>
<clustering>
<clus scale="   31.206">  1  3  2 -1</clus>
<clus scale="   39.861">  2  6  1 -1</clus>
<clus scale="   94.658">  2  5  1 -1</clus>
<clus scale="   31.206">  1  3  2 -1</clus>
</clustering>
</event>
<event>
 6    0  0.6525019E+002  0.1708333E+03  0.7546771E-02  0.1176982E+00
         21   -1    0    0  505  502  0.00000000000E+00  0.00000000000E+00  0.11747902021E+04  0.11747902021E+04  0.00000000000E+00 0. -1.
          2   -1    0    0  502    0 -0.00000000000E+00 -0.00000000000E+00 -0.40340497670E+03  0.40340497670E+03  0.00000000000E+00 0. -1.
         21    1    1    2  503  501  0.96709132311E+02 -0.18317263211E+03  0.36903529310E+03  0.42319252945E+03  0.00000000000E+00 0. -1.
         21    1    1    2  504  503 -0.11880875731E+01  0.15427811113E+03  0.17770152325E+03  0.23533163513E+03  0.00000000000E+00 0. -1.
         21    1    1    2  505  504 -0.51424429371E+02 -0.86057288243E+02  0.55663451125E+03  0.56559022968E+03  0.00000000000E+00 0. -1.
          2    1    1    2  501    0 -0.44096615367E+02  0.11495180923E+03 -0.33198610220E+03  0.35408078455E+03  0.00000000000E+00 0. -1.
<scales pt_clust_3="170.83333" pt_clust_4="14000.00000" pt_clust_5="100.25133" pt_clust_6="122.01297"></scales>
<clustering>
<clus scale="  100.251">  1  5  2 -1</clus>
<clus scale="  122.013">  2  6  1 -1</clus>
<clus scale="  170.833">  2  3  1 -1</clus>
<clus scale="  100.251">  1  3  2 -1</clus>
</clustering>
</event>
<event>
 6    0  0.6525019E+002  0.1162511E+03  0.7546771E-02  0.1249413E+00
         21   -1    0    0  505  502  0.00000000000E+00  0.00000000000E+00  0.42150975453E+02  0.42150975453E+02  0.00000000000E+00 0.  1.
          2   -1    0    0  503    0 -0.00000000000E+00 -0.00000000000E+00 -0.10350307821E+04  0.10350307821E+04  0.00000000000E+00 0.  1.
         21    1    1    2  503  504 -0.11165372688E+03 -0.29410316535E+02 -0.23214457845E+03  0.25927326655E+03  0.00000000000E+00 0. -1.
         21    1    1    2  504  502 -0.34396103438E+02 -0.22779868346E+01 -0.15988138203E+02  0.37998706806E+02  0.00000000000E+00 0.  1.
         21    1    1    2  505  501  0.10794985825E+03  0.66000852175E+02 -0.22908166720E+03  0.26170153731E+03  0.00000000000E+00 0.  1.
          2    1    1    2  501    0  0.38099972069E+02 -0.34312548806E+02 -0.51566542279E+03  0.51820824688E+03  0.00000000000E+00 0.  1.
<scales pt_clust_3="116.25108" pt_clust_4="34.47145" pt_clust_5="14000.00000" pt_clust_6="50.30237"></scales>
<clustering>
<clus scale="   34.471">  1  4  2 -1</clus>
<clus scale="   50.302">  2  6  1 -1</clus>
<clus scale="  116.251">  2  3  1 -1</clus>
<clus scale="   34.471">  1  3  2 -1</clus>
</clustering>
</event>
<event>
 6    0  0.6525019E+002  0.1758335E+03  0.7546771E-02  0.1171897E+00
          1   -1    0    0  505    0 -0.00000000000E+00  0.00000000000E+00  0.64434207206E+03  0.64434207206E+03  0.00000000000E+00 0. -1.
         21   -1    0    0  503  502  0.00000000000E+00 -0.00000000000E+00 -0.41784121554E+03  0.41784121554E+03  0.00000000000E+00 0.  1.
         21    1    1    2  503  501 -0.15540466581E+03 -0.80838874498E+02  0.55845815227E+02  0.18385942691E+03  0.00000000000E+00 0.  1.
         21    1    1    2  504  502  0.75727457605E+02  0.85085593152E+01 -0.18109382280E+03  0.19647395775E+03  0.00000000000E+00 0.  1.
         21    1    1    2  505  504  0.10338855111E+03  0.97712432131E+02 -0.13366165306E+03  0.19519823102E+03  0.00000000000E+00 0.  1.
          1    1    1    2  501    0 -0.23711342906E+02 -0.25382116948E+02  0.48541051714E+03  0.48665167193E+03  0.00000000000E+00 0. -1.
<scales pt_clust_3="14000.00000" pt_clust_4="74.92973" pt_clust_5="175.83353" pt_clust_6="34.73442"></scales>
<clustering>
<clus scale="   34.734">  1  6  2 -1</clus>
<clus scale="   74.930">  2  4  1 -1</clus>
<clus scale="  175.834">  2  5  1 -1</clus>
<clus scale="   74.930">  2  3  1 -1</clus>
</clustering>
</event>
<event>
 6    0  0.6525019E+002  0.1259116E+03  0.7546771E-02  0.1233651E+00
         -1   -1    0    0    0  501 -0.00000000000E+00  0.00000000000E+00  0.25684983979E+03  0.25684983979E+03  0.00000000000E+00 0.  1.
         21   -1    0    0  504  502  0.00000000000E+00 -0.00000000000E+00 -0.12549990667E+03  0.12549990667E+03  0.00000000000E+00 0.  1.
         21    1    1    2  503  502  0.25694843868E+02 -0.62055528536E+02 -0.15486129448E+02  0.68927018132E+02  0.00000000000E+00 0.  1.
         21    1    1    2  504  501 -0.10743982907E+03  0.81574746427E+02  0.12409955576E+02  0.13546867949E+03  0.00000000000E+00 0.  1.
         21    1    1    2  505  503  0.20709294236E+02 -0.39132332847E+02  0.24242732844E+02  0.50476969378E+02  0.00000000000E+00 0.  1.
         -1    1    1    2    0  505  0.61035690963E+02  0.19613114957E+02  0.11018337415E+03  0.12747707947E+03  0.00000000000E+00 0.  1.
<scales pt_clust_3="34.33412" pt_clust_4="118.59777" pt_clust_5="34.33412" pt_clust_6="64.10951"></scales>
<clustering>
<clus scale="   34.334">  3  5 -1 -1</clus>
<clus scale="   64.110">  1  6  2 -1</clus>
<clus scale="  118.598">  1  4  2 -1</clus>
<clus scale="  125.912">  2  3  1 -1</clus>
</clustering>
</event>
<event>
 6    0  0.6525019E+002  0.1041559E+03  0.7546771E-02  0.1271792E+00
          2   -1    0    0  504    0 -0.00000000000E+00  0.00000000000E+00  0.91077143179E+03  0.91077143179E+03  0.00000000000E+00 0.  1.
         21   -1    0    0  503  502  0.00000000000E+00 -0.00000000000E+00 -0.89221838060E+02  0.89221838060E+02  0.00000000000E+00 0.  1.
         21    1    1    2  503  501 -0.12916187565E+02 -0.91674000272E+02  0.27081375993E+03  0.28620105310E+03  0.00000000000E+00 0.  1.
         21    1    1    2  504  505  0.30994253786E+02  0.11987246127E+03  0.40264960861E+02  0.13019722659E+03  0.00000000000E+00 0.  1.
         21    1    1    2  505  502  0.15464760436E+02 -0.26434181614E+02 -0.29534142584E+02  0.42546331818E+02  0.00000000000E+00 0.  1.
          2    1    1    2  501    0 -0.33542826656E+02 -0.17642793870E+01  0.54000501552E+03  0.54104865834E+03  0.00000000000E+00 0.  1.
<scales pt_clust_3="14000.00000" pt_clust_4="104.15592" pt_clust_5="30.62556" pt_clust_6="33.45235"></scales>
<clustering>
<clus scale="   30.626">  2  5  1 -1</clus>
<clus scale="   33.452">  1  6  2 -1</clus>
<clus scale="  104.156">  2  4  1 -1</clus>
<clus scale="   30.626">  2  3  1 -1</clus>
</clustering>
</event>
<event>
 6    0  0.6525019E+002  0.1675969E+03  0.7546771E-02  0.1180377E+00
         -4   -1    0    0    0  501 -0.00000000000E+00  0.00000000000E+00  0.90138709065E+02  0.90138709065E+02  0.00000000000E+00 0.  1.
         21   -1    0    0  503  502  0.00000000000E+00 -0.00000000000E+00 -0.11084892800E+04  0.11084892800E+04  0.00000000000E+00 0. -1.
         21    1    1    2  503  501 -0.10156816009E+03 -0.94605673249E+02 -0.49455406510E+03  0.51366336044E+03  0.00000000000E+00 0. -1.
         21    1    1    2  504  502  0.31123740300E+02  0.38067813008E+02 -0.22046179427E+03  0.22587883551E+03  0.00000000000E+00 0.  1.
         21    1    1    2  505  504  0.13577314736E+03  0.25006567658E+02 -0.34766472100E+03  0.37407276591E+03  0.00000000000E+00 0.  1.
         -4    1    1    2    0  505 -0.65328727571E+02  0.31531292583E+02  0.44330009434E+02  0.85013027204E+02  0.00000000000E+00 0.  1.
<scales pt_clust_3="150.82267" pt_clust_4="43.61634" pt_clust_5="43.61634" pt_clust_6="72.54009"></scales>
<clustering>
<clus scale="   43.616">  4  5 -1 -1</clus>
<clus scale="   72.540">  1  6  2 -1</clus>
<clus scale="  150.823">  2  3  1 -1</clus>
<clus scale="  150.823">  2  3  1 -1</clus>
</clustering>
</event>
<event>
 6    0  0.6525019E+002  0.7388265E+02  0.7546771E-02  0.1347366E+00
         21   -1    0    0  505  502  0.00000000000E+00  0.00000000000E+00  0.24999038582E+03  0.24999038582E+03  0.00000000000E+00 0.  1.
          2   -1    0    0  504    0 -0.00000000000E+00 -0.00000000000E+00 -0.92631470035E+03  0.92631470035E+03  0.00000000000E+00 0. -1.
         21    1    1    2  503  502 -0.31996791781E+02  0.56761624675E+02  0.20060854028E+03  0.21092525490E+03  0.00000000000E+00 0.  1.
         21    1    1    2  504  503  0.71242953357E+02  0.32290582107E+02 -0.11986514314E+03  0.14312893710E+03  0.00000000000E+00 0.  1.
         21    1    1    2  505  501 -0.50399678954E+02 -0.52994688103E+02 -0.95199101803E+01  0.73750886745E+02  0.00000000000E+00 0.  1.
          2    1    1    2  501    0  0.11153517378E+02 -0.36057518678E+02 -0.74754780149E+03  0.74850000742E+03  0.00000000000E+00 0. -1.
<scales pt_clust_3="64.09203" pt_clust_4="73.88265" pt_clust_5="14000.00000" pt_clust_6="37.74315"></scales>
<clustering>
<clus scale="   37.743">  2  6  1 -1</clus>
<clus scale="   64.092">  1  3  2 -1</clus>
<clus scale="   73.883">  2  4  1 -1</clus>
<clus scale="   64.092">  1  3  2 -1</clus>
</clustering>
</event>
<event>
 6    0  0.6525019E+002  0.6341162E+02  0.7546771E-02  0.1384048E+00
          2   -1    0    0  505    0 -0.00000000000E+00  0.00000000000E+00  0.18469076043E+04  0.18469076043E+04  0.00000000000E+00 0.  1.
         21   -1    0    0  504  502  0.00000000000E+00 -0.00000000000E+00 -0.14181233369E+03  0.14181233369E+03  0.00000000000E+00 0. -1.
         21    1    1    2  503  502 -0.32561787555E+02 -0.15601251990E+02 -0.11165603110E+03  0.11734878931E+03  0.00000000000E+00 0. -1.
         21    1    1    2  504  501  0.17004164285E+02 -0.10390185162E+03  0.29458416913E+03  0.31283313296E+03  0.00000000000E+00 0.  1.
         21    1    1    2  505  503  0.12435484335E+02  0.58867034317E+02  0.33951887843E+02  0.69084728327E+02  0.00000000000E+00 0.  1.
          2    1    1    2  501    0  0.31221389350E+01  0.60636069294E+02  0.14882152447E+04  0.14894532873E+04  0.00000000000E+00 0.  1.
<scales pt_clust_3="36.10636" pt_clust_4="63.41162" pt_clust_5="49.56774" pt_clust_6="14000.00000"></scales>
<clustering>
<clus scale="   36.106">  2  3  1 -1</clus>
<clus scale="   49.568">  2  5  1 -1</clus>
<clus scale="   63.412">  2  4  1 -1</clus>
<clus scale="   36.106">  2  3  1 -1</clus>
</clustering>
</event>
<event>
 6    0  0.6525019E+002  0.7887461E+02  0.7546771E-02  0.1332276E+00
          2   -1    0    0  504    0 -0.00000000000E+00  0.00000000000E+00  0.10345581553E+04  0.10345581553E+04  0.00000000000E+00 0.  1.
         21   -1    0    0  503  502  0.00000000000E+00 -0.00000000000E+00 -0.58253413914E+03  0.58253413914E+03  0.00000000000E+00 0.  1.
         21    1    1    2  503  501 -0.40341043504E+02 -0.88869861553E+02 -0.45768200250E+03  0.46797229351E+03  0.00000000000E+00 0.  1.
         21    1    1    2  504  505  0.54342368703E+02 -0.58238590880E+02  0.20789934224E+03  0.22263639193E+03  0.00000000000E+00 0. -1.
         21    1    1    2  505  502 -0.29508918219E+02  0.51544297764E+02 -0.10137262111E+03  0.11749042172E+03  0.00000000000E+00 0.  1.
          2    1    1    2  501    0  0.15507593020E+02  0.95564154669E+02  0.80317929752E+03  0.80899318727E+03  0.00000000000E+00 0.  1.
<scales pt_clust_3="78.87461" pt_clust_4="78.75420" pt_clust_5="59.39353" pt_clust_6="14000.00000"></scales>
<clustering>
<clus scale="   59.394">  2  5  1 -1</clus>
<clus scale="   78.754">  1  4  2 -1</clus>
<clus scale="   78.875">  2  3  1 -1</clus>
<clus scale="   59.394">  2  3  1 -1</clus>
</clustering>
</event>
<event>
 6    0  0.6525019E+002  0.9897154E+02  0.7546771E-02  0.1282474E+00
         -1   -1    0    0    0  501 -0.00000000000E+00  0.00000000000E+00  0.24510738250E+03  0.24510738250E+03  0.00000000000E+00 0. -1.
         21   -1    0    0  503  502  0.00000000000E+00 -0.00000000000E+00 -0.16100503699E+03  0.16100503699E+03  0.00000000000E+00 0.  1.
         21    1    1    2  503  501 -0.33939805982E+02  0.12730094844E+03  0.43683479269E+02  0.13880089432E+03  0.00000000000E+00 0. -1.
         21    1    1    2  504  502 -0.33682051840E+02 -0.15133487888E+02 -0.40308147603E+02  0.54664886673E+02  0.00000000000E+00 0.  1.
         21    1    1    2  505  504  0.55717436346E+02 -0.69643580721E+02 -0.29469618013E+02  0.93931461366E+02  0.00000000000E+00 0.  1.
         -1    1    1    2    0  505  0.11904421476E+02 -0.42523879831E+02  0.11019663186E+03  0.11871517712E+03  0.00000000000E+00 0. -1.
<scales pt_clust_3="14000.00000" pt_clust_4="36.92564" pt_clust_5="98.97154" pt_clust_6="44.38601"></scales>
<clustering>
<clus scale="   36.926">  2  4  1 -1</clus>
<clus scale="   44.386">  1  6  2 -1</clus>
<clus scale="   98.972">  2  5  1 -1</clus>
<clus scale="   36.926">  2  3  1 -1</clus>
</clustering>
</event>
<event>
 6    0  0.6525019E+002  0.7619517E+02  0.7546771E-02  0.1340209E+00
          2   -1    0    0  505    0 -0.00000000000E+00  0.00000000000E+00  0.28732983739E+03  0.28732983739E+03  0.00000000000E+00 0. -1.
         21   -1    0    0  503  502  0.00000000000E+00 -0.00000000000E+00 -0.38715730917E+04  0.38715730917E+04  0.00000000000E+00 0. -1.
         21    1    1    2  503  501 -0.44746492835E+02  0.10900063376E+03 -0.80198950219E+02  0.14253160491E+03  0.00000000000E+00 0. -1.
         21    1    1    2  504  502  0.42823630542E+02  0.53895096057E+01 -0.12014215552E+04  0.12021965993E+04  0.00000000000E+00 0. -1.
         21    1    1    2  505  504  0.11136817631E+02 -0.59134979348E+02 -0.25549730590E+04  0.25556815738E+04  0.00000000000E+00 0. -1.
          2    1    1    2  501    0 -0.92139553377E+01 -0.55255164021E+02  0.25235031011E+03  0.25849315104E+03  0.00000000000E+00 0. -1.
<scales pt_clust_3="76.19517" pt_clust_4="43.16144" pt_clust_5="14000.00000" pt_clust_6="56.00392"></scales>
<clustering>
<clus scale="   43.161">  2  4  1 -1</clus>
<clus scale="   56.004">  1  6  2 -1</clus>
<clus scale="   76.195">  1  3  2 -1</clus>
<clus scale="   43.161">  2  3  1 -1</clus>
</clustering>
</event>
<event>
 6    0  0.6525019E+002  0.7383354E+02  0.7546771E-02  0.1347522E+00
         21   -1    0    0  503  502  0.00000000000E+00  0.00000000000E+00  0.20899299568E+02  0.20899299568E+02  0.00000000000E+00 0.  1.
          2   -1    0    0  504    0 -0.00000000000E+00 -0.00000000000E+00 -0.15402171069E+04  0.15402171069E+04  0.00000000000E+00 0.  1.
         21    1    1    2  503  501  0.86577084982E+02 -0.41930775878E+02 -0.60759035956E+03  0.61515837525E+03  0.00000000000E+00 0.  1.
         21    1    1    2  504  505 -0.55028944926E+02 -0.36553990993E+02 -0.44082051321E+03  0.44574331616E+03  0.00000000000E+00 0. -1.
         21    1    1    2  505  502 -0.48785672977E+02  0.52010028881E+02 -0.76640213351E+02  0.10468432210E+03  0.00000000000E+00 0.  1.
          2    1    1    2  501    0  0.17237532920E+02  0.26474737990E+02 -0.39426672121E+03  0.39553039295E+03  0.00000000000E+00 0.  1.
<scales pt_clust_3="73.83354" pt_clust_4="55.05004" pt_clust_5="14000.00000" pt_clust_6="31.59184"></scales>
<clustering>
<clus scale="   31.592">  2  6  1 -1</clus>
<clus scale="   55.050">  2  4  1 -1</clus>
<clus scale="   73.834">  2  3  1 -1</clus>
<clus scale="   73.834">  1  3  2 -1</clus>
</clustering>
</event>
<event>
 6    0  0.6525019E+002  0.5433898E+03  0.7546771E-02  0.1003036E+00
          2   -1    0    0  504    0 -0.00000000000E+00  0.00000000000E+00  0.38034911092E+04  0.38034911092E+04  0.00000000000E+00 0. -1.
         21   -1    0    0  503  502  0.00000000000E+00 -0.00000000000E+00 -0.44604117984E+03  0.44604117984E+03  0.00000000000E+00 0. -1.
         21    1    1    2  503  501  0.43798763440E+03 -0.66143614523E+02 -0.19280489775E+02  0.44337329973E+03  0.00000000000E+00 0. -1.
         21    1    1    2  504  505  0.14890439924E+03  0.15559190570E+03  0.29617031424E+03  0.36619423298E+03  0.00000000000E+00 0. -1.
         21    1    1    2  505  502 -0.37907798222E+02 -0.39248222649E+01 -0.15368680386E+03  0.15834152670E+03  0.00000000000E+00 0. -1.
          2    1    1    2  501    0 -0.54898423542E+03 -0.85523468911E+02  0.32342469087E+04  0.32816232296E+04  0.00000000000E+00 0. -1.
<scales pt_clust_3="543.38982" pt_clust_4="211.87791" pt_clust_5="38.11044" pt_clust_6="14000.00000"></scales>
<clustering>
<clus scale="   38.110">  2  5  1 -1</clus>
<clus scale="  211.878">  2  4  1 -1</clus>
<clus scale="  543.390">  2  3  1 -1</clus>
<clus scale="   38.110">  2  3  1 -1</clus>
</clustering>
</event>
<event>
 6    0  0.6525019E+002  0.1484071E+03  0.7546771E-02  0.1202444E+00
         21   -1    0    0  501  502  0.00000000000E+00  0.00000000000E+00  0.12501158946E+03  0.12501158946E+03  0.00000000000E+00 0.  1.
          3   -1    0    0  504    0 -0.00000000000E+00 -0.00000000000E+00 -0.14052630728E+04  0.14052630728E+04  0.00000000000E+00 0.  1.
         21    1    1    2  503  505 -0.87020463408E+02 -0.34213147236E+02 -0.97192989511E+02  0.13486874251E+03  0.00000000000E+00 0.  1.
         21    1    1    2  504  503  0.21997533134E+03  0.29239508816E+02 -0.56294461595E+02  0.22893920957E+03  0.00000000000E+00 0.  1.
         21    1    1    2  505  502 -0.58444725183E+01  0.74647118272E+02 -0.79463055616E+02  0.10918208339E+03  0.00000000000E+00 0.  1.
          3    1    1    2  501    0 -0.12711039541E+03 -0.69673479852E+02 -0.10473009766E+04  0.10572846268E+04  0.00000000000E+00 0.  1.
<scales pt_clust_3="90.59524" pt_clust_4="14000.00000" pt_clust_5="74.87556" pt_clust_6="148.40711"></scales>
<clustering>
<clus scale="   74.876">  1  5  2 -1</clus>
<clus scale="   90.595">  1  3  2 -1</clus>
<clus scale="  148.407">  2  6  1 -1</clus>
<clus scale="   74.876">  1  3  2 -1</clus>
</clustering>
</event>
<event>
 6    0  0.6525019E+002  0.1822437E+03  0.7546771E-02  0.1165649E+00
         -4   -1    0    0    0  501 -0.00000000000E+00  0.00000000000E+00  0.98878610546E+03  0.98878610546E+03  0.00000000000E+00 0.  1.
         21   -1    0    0  504  502  0.00000000000E+00 -0.00000000000E+00 -0.89263679929E+02  0.89263679929E+02  0.00000000000E+00 0.  1.
         21    1    1    2  503  501  0.25848429268E+02 -0.15200087842E+03  0.11343219207E+03  0.19141387237E+03  0.00000000000E+00 0.  1.
         21    1    1    2  504  503  0.29599578735E+02 -0.59245510150E+02  0.10876250242E+02  0.67115261704E+02  0.00000000000E+00 0.  1.
         21    1    1    2  505  502 -0.24042341574E+02  0.48781268421E+02  0.44398413901E+02  0.70205879341E+02  0.00000000000E+00 0.  1.
         -4    1    1    2    0  505 -0.31405666429E+02  0.16246512015E+03  0.73081556931E+03  0.74931477198E+03  0.00000000000E+00 0.  1.
<scales pt_clust_3="39.78633" pt_clust_4="39.78633" pt_clust_5="54.38425" pt_clust_6="171.83582"></scales>
<clustering>
<clus scale="   39.786">  3  4 -1 -1</clus>
<clus scale="   54.384">  2  5  1 -1</clus>
<clus scale="  171.836">  1  6  2 -1</clus>
<clus scale="   54.384">  2  3  1 -1</clus>
</clustering>
</event>
<event>
 6    0  0.6525019E+002  0.1037892E+03  0.7546771E-02  0.1272524E+00
          1   -1    0    0  505    0 -0.00000000000E+00  0.00000000000E+00  0.23462393946E+04  0.23462393946E+04  0.00000000000E+00 0. -1.
         21   -1    0    0  503  502  0.00000000000E+00 -0.00000000000E+00 -0.16516827077E+04  0.16516827077E+04  0.00000000000E+00 0.  1.
         21    1    1    2  503  501  0.19556785039E+02 -0.34999213654E+02 -0.81065159780E+02  0.90437674271E+02  0.00000000000E+00 0. -1.
         21    1    1    2  504  502  0.61490625113E+02 -0.20727004324E+02 -0.15031691228E+04  0.15045690803E+04  0.00000000000E+00 0.  1.
         21    1    1    2  505  504 -0.47916330866E+02  0.15352542354E+03  0.45366568218E+02  0.16710522418E+03  0.00000000000E+00 0. -1.
          1    1    1    2  501    0 -0.33131079286E+02 -0.97799205559E+02  0.22334244012E+04  0.22358101236E+04  0.00000000000E+00 0. -1.
<scales pt_clust_3="40.09255" pt_clust_4="96.93494" pt_clust_5="14000.00000" pt_clust_6="103.78925"></scales>
<clustering>
<clus scale="   40.093">  2  3  1 -1</clus>
<clus scale="   96.935">  2  4  1 -1</clus>
<clus scale="  103.789">  1  6  2 -1</clus>
<clus scale="   40.093">  2  3  1 -1</clus>
</clustering>
</event>
<event>
 6    0  0.6525019E+002  0.7919868E+02  0.7546771E-02  0.1331341E+00
          2   -1    0    0  505    0 -0.00000000000E+00  0.00000000000E+00  0.31489253010E+04  0.31489253010E+04  0.00000000000E+00 0. -1.
         21   -1    0    0  503  502  0.00000000000E+00 -0.00000000000E+00 -0.99298444753E+03  0.99298444753E+03  0.00000000000E+00 0. -1.
         21    1    1    2  503  501 -0.52130641139E+02  0.19497976237E+02  0.13113466972E+03  0.14245727930E+03  0.00000000000E+00 0. -1.
         21    1    1    2  504  502 -0.44016034657E+02  0.23142105101E+02 -0.97608353674E+03  0.97734949686E+03  0.00000000000E+00 0. -1.
         21    1    1    2  505  504  0.77029718638E+02 -0.92784795250E+02  0.34141273562E+03  0.36208459208E+03  0.00000000000E+00 0. -1.
          2    1    1    2  501    0  0.19116957158E+02  0.50144713911E+02  0.26594769848E+04  0.26600183802E+04  0.00000000000E+00 0. -1.
<scales pt_clust_3="79.19868" pt_clust_4="49.72895" pt_clust_5="14000.00000" pt_clust_6="53.77036"></scales>
<clustering>
<clus scale="   49.729">  2  4  1 -1</clus>
<clus scale="   53.770">  1  6  2 -1</clus>
<clus scale="   79.199">  1  3  2 -1</clus>
<clus scale="   49.729">  2  3  1 -1</clus>
</clustering>
</event>
<event>
 6    0  0.6525019E+002  0.9309676E+02  0.7546771E-02  0.1295521E+00
          2   -1    0    0  502    0 -0.00000000000E+00  0.00000000000E+00  0.26687779215E+04  0.26687779215E+04  0.00000000000E+00 0.  1.
         21   -1    0    0  504  502  0.00000000000E+00 -0.00000000000E+00 -0.24930956946E+03  0.24930956946E+03  0.00000000000E+00 0. -1.
         21    1    1    2  503  501  0.20819484186E+02 -0.10535085915E+03  0.63794265448E+03  0.64691814386E+03  0.00000000000E+00 0.  1.
         21    1    1    2  504  505  0.57170136524E+02  0.10148327663E+02 -0.21120897814E+03  0.21904484818E+03  0.00000000000E+00 0. -1.
         21    1    1    2  505  503  0.11845672571E+02  0.64991051510E+02  0.96344077224E+01  0.66760606252E+02  0.00000000000E+00 0. -1.
          2    1    1    2  501    0 -0.89835293282E+02  0.30211479977E+02  0.19831002680E+04  0.19853638927E+04  0.00000000000E+00 0.  1.
<scales pt_clust_3="14000.00000" pt_clust_4="58.06387" pt_clust_5="91.12073" pt_clust_6="93.09676"></scales>
<clustering>
<clus scale="   58.064">  2  4  1 -1</clus>
<clus scale="   93.097">  1  6  2 -1</clus>
<clus scale="   91.121">  2  5  1 -1</clus>
<clus scale="   58.064">  2  3  1 -1</clus>
</clustering>
</event>
<event>
 6    0  0.6525019E+002  0.6824651E+02  0.7546771E-02  0.1366159E+00
          1   -1    0    0  503    0 -0.00000000000E+00  0.00000000000E+00  0.19373817279E+04  0.19373817279E+04  0.00000000000E+00 0. -1.
         21   -1    0    0  505  502  0.00000000000E+00 -0.00000000000E+00 -0.86202764010E+02  0.86202764010E+02  0.00000000000E+00 0.  1.
         21    1    1    2  503  502  0.28367486167E+02 -0.59508972047E+02  0.92235034523E+02  0.11337254350E+03  0.00000000000E+00 0.  1.
         21    1    1    2  504  501 -0.11411517061E+02  0.70619953777E+02  0.28676735534E+03  0.29555526840E+03  0.00000000000E+00 0.  1.
         21    1    1    2  505  504 -0.28699894585E+02 -0.62436816416E+02 -0.54108957952E+02  0.87463245560E+02  0.00000000000E+00 0.  1.
          1    1    1    2  501    0  0.11743925478E+02  0.51325834686E+02  0.15262855320E+04  0.15271934344E+04  0.00000000000E+00 0. -1.
<scales pt_clust_3="56.18970" pt_clust_4="14000.00000" pt_clust_5="68.24651" pt_clust_6="52.65227"></scales>
<clustering>
<clus scale="   52.652">  1  6  2 -1</clus>
<clus scale="   56.190">  1  3  2 -1</clus>
<clus scale="   68.247">  2  5  1 -1</clus>
<clus scale="   68.247">  2  3  1 -1</clus>
</clustering>
</event>
<event>
 6    0  0.6525019E+002  0.9123022E+02  0.7546771E-02  0.1299900E+00
         21   -1    0    0  504  502  0.00000000000E+00  0.00000000000E+00  0.12012767425E+03  0.12012767425E+03  0.00000000000E+00 0.  1.
         -1   -1    0    0    0  501 -0.00000000000E+00 -0.00000000000E+00 -0.89928719467E+03  0.89928719467E+03  0.00000000000E+00 0.  1.
         21    1    1    2  503  502 -0.21488828358E+02 -0.29958395326E+02 -0.41281593531E+02  0.55348397982E+02  0.00000000000E+00 0. -1.
         21    1    1    2  504  505  0.89172380483E+02 -0.18973098768E+02  0.55334969572E+02  0.10664731959E+03  0.00000000000E+00 0.  1.
         21    1    1    2  505  501 -0.10818020536E+03  0.41141997636E+01 -0.64107519502E+02  0.12581596690E+03  0.00000000000E+00 0.  1.
         -1    1    1    2    0  503  0.40496653231E+02  0.44817294331E+02 -0.72910537695E+03  0.73160318445E+03  0.00000000000E+00 0.  1.
<scales pt_clust_3="36.86835" pt_clust_4="91.23022" pt_clust_5="14000.00000" pt_clust_6="59.99884"></scales>
<clustering>
<clus scale="   36.868">  1  3  2 -1</clus>
<clus scale="   59.999">  2  6  1 -1</clus>
<clus scale="   91.230">  1  4  2 -1</clus>
<clus scale="   36.868">  1  3  2 -1</clus>
</clustering>
</event>
<event>
 6    0  0.6525019E+002  0.7178302E+02  0.7546771E-02  0.1354133E+00
         21   -1    0    0  503  502  0.00000000000E+00  0.00000000000E+00  0.97516815156E+02  0.97516815156E+02  0.00000000000E+00 0.  1.
          2   -1    0    0  504    0 -0.00000000000E+00 -0.00000000000E+00 -0.11728439567E+04  0.11728439567E+04  0.00000000000E+00 0. -1.
         21    1    1    2  503  501 -0.49853044650E+02  0.20101724355E+02  0.36604900991E+02  0.65033254259E+02  0.00000000000E+00 0.  1.
         21    1    1    2  504  505  0.11611152776E+03  0.28532611438E+02 -0.22013131828E+03  0.25050707392E+03  0.00000000000E+00 0.  1.
         21    1    1    2  505  502 -0.21256890245E+02 -0.22261323803E+02  0.23068641024E+02  0.38465362589E+02  0.00000000000E+00 0. -1.
          2    1    1    2  501    0 -0.45001592864E+02 -0.26373011989E+02 -0.91486936527E+03  0.91635508108E+03  0.00000000000E+00 0. -1.
<scales pt_clust_3="14000.00000" pt_clust_4="71.78302" pt_clust_5="30.78022" pt_clust_6="52.48958"></scales>
<clustering>
<clus scale="   30.780">  1  5  2 -1</clus>
<clus scale="   52.490">  2  6  1 -1</clus>
<clus scale="   71.783">  2  4  1 -1</clus>
<clus scale="   30.780">  1  3  2 -1</clus>
</clustering>
</event>
<event>
 6    0  0.6525019E+002  0.1976110E+03  0.7546771E-02  0.1151770E+00
          1   -1    0    0  505    0 -0.00000000000E+00  0.00000000000E+00  0.11996844687E+04  0.11996844687E+04  0.00000000000E+00 0. -1.
         21   -1    0    0  504  502  0.00000000000E+00 -0.00000000000E+00 -0.20285690817E+03  0.20285690817E+03  0.00000000000E+00 0. -1.
         21    1    1    2  503  502 -0.17980605561E+02  0.38749392002E+02 -0.26812861581E+02  0.50435573785E+02  0.00000000000E+00 0. -1.
         21    1    1    2  504  501  0.23515671556E+03  0.73156641680E+01 -0.10599919952E+02  0.23550914657E+03  0.00000000000E+00 0. -1.
         21    1    1    2  505  503 -0.80433626541E+02  0.99657747441E+02  0.10354682568E+03  0.16469116556E+03  0.00000000000E+00 0. -1.
          1    1    1    2  501    0 -0.13674248346E+03 -0.14572280361E+03  0.93069351641E+03  0.95190549098E+03  0.00000000000E+00 0. -1.
<scales pt_clust_3="42.71788" pt_clust_4="197.61098" pt_clust_5="135.79626" pt_clust_6="14000.00000"></scales>
<clustering>
<clus scale="   42.718">  2  3  1 -1</clus>
<clus scale="  135.796">  2  5  1 -1</clus>
<clus scale="  197.611">  2  4  1 -1</clus>
<clus scale="   42.718">  2  3  1 -1</clus>
</clustering>
</event>
<event>
 6    0  0.6525019E+002  0.8023542E+02  0.7546771E-02  0.1328385E+00
         -1   -1    0    0    0  501 -0.00000000000E+00  0.00000000000E+00  0.38260015870E+03  0.38260015870E+03  0.00000000000E+00 0.  1.
         21   -1    0    0  503  502  0.00000000000E+00 -0.00000000000E+00 -0.41292547920E+03  0.41292547920E+03  0.00000000000E+00 0.  1.
         21    1    1    2  503  501 -0.93717623777E+01  0.77735344842E+02  0.16002416637E+03  0.17815259636E+03  0.00000000000E+00 0.  1.
         21    1    1    2  504  502  0.35456525528E+02  0.97087693535E+01 -0.98558825187E+02  0.10519157489E+03  0.00000000000E+00 0. -1.
         21    1    1    2  505  504 -0.64780162089E+02 -0.84207596042E+02 -0.29070599440E+03  0.30951149222E+03  0.00000000000E+00 0.  1.
         -1    1    1    2    0  505  0.38695398939E+02 -0.32365181540E+01  0.19891533272E+03  0.20266997444E+03  0.00000000000E+00 0.  1.
<scales pt_clust_3="14000.00000" pt_clust_4="36.76174" pt_clust_5="80.23542" pt_clust_6="39.03896"></scales>
<clustering>
<clus scale="   36.762">  2  4  1 -1</clus>
<clus scale="   39.039">  1  6  2 -1</clus>
<clus scale="   80.235">  2  5  1 -1</clus>
<clus scale="   36.762">  2  3  1 -1</clus>
</clustering>
</event>
<event>
 6    0  0.6525019E+002  0.8274937E+02  0.7546771E-02  0.1321425E+00
         21   -1    0    0  505  502  0.00000000000E+00  0.00000000000E+00  0.87354048258E+02  0.87354048258E+02  0.00000000000E+00 0.  1.
          2   -1    0    0  503    0 -0.00000000000E+00 -0.00000000000E+00 -0.21703254848E+04  0.21703254848E+04  0.00000000000E+00 0. -1.
         21    1    1    2  503  504 -0.18565837223E+02  0.23781026190E+02 -0.18214571837E+03  0.18462743631E+03  0.00000000000E+00 0.  1.
         21    1    1    2  504  502  0.11102274491E+03 -0.18106264410E+02 -0.10859525823E+03  0.15635477866E+03  0.00000000000E+00 0.  1.
         21    1    1    2  505  501 -0.48755795524E+02 -0.38030754565E+02  0.46372267732E+02  0.77290705163E+02  0.00000000000E+00 0.  1.
          2    1    1    2  501    0 -0.43701112164E+02  0.32355992784E+02 -0.18386027276E+04  0.18394066129E+04  0.00000000000E+00 0. -1.
<scales pt_clust_3="30.16998" pt_clust_4="82.74937" pt_clust_5="61.83472" pt_clust_6="14000.00000"></scales>
<clustering>
<clus scale="   30.170">  2  3  1 -1</clus>
<clus scale="   61.835">  1  5  2 -1</clus>
<clus scale="   82.749">  1  4  2 -1</clus>
<clus scale="   61.835">  1  3  2 -1</clus>
</clustering>
</event>
<event>
 6    0  0.6525019E+002  0.9281593E+02  0.7546771E-02  0.1296172E+00
          2   -1    0    0  503    0 -0.00000000000E+00  0.00000000000E+00  0.38599130686E+03  0.38599130686E+03  0.00000000000E+00 0.  1.
         21   -1    0    0  505  502  0.00000000000E+00 -0.00000000000E+00 -0.66559095756E+03  0.66559095756E+03  0.00000000000E+00 0. -1.
         21    1    1    2  503  504  0.15193749090E+02  0.75972472058E+02 -0.20183696724E+03  0.21619627163E+03  0.00000000000E+00 0. -1.
         21    1    1    2  504  502 -0.50012566465E+02 -0.30878366454E+02 -0.34244089861E+03  0.34744855642E+03  0.00000000000E+00 0. -1.
         21    1    1    2  505  501 -0.41021851011E+02  0.11297753078E+02 -0.10134244540E+03  0.10991234109E+03  0.00000000000E+00 0. -1.
          2    1    1    2  501    0  0.75840668386E+02 -0.56391858683E+02  0.36602066055E+03  0.37802509527E+03  0.00000000000E+00 0.  1.
<scales pt_clust_3="92.81593" pt_clust_4="78.99096" pt_clust_5="42.54917" pt_clust_6="14000.00000"></scales>
<clustering>
<clus scale="   42.549">  2  5  1 -1</clus>
<clus scale="   78.991">  2  4  1 -1</clus>
<clus scale="   92.816">  2  3  1 -1</clus>
<clus scale="   42.549">  2  3  1 -1</clus>
</clustering>
</event>
<event>
 6    0  0.6525019E+002  0.7910294E+02  0.7546771E-02  0.1331617E+00
         -1   -1    0    0    0  501 -0.00000000000E+00  0.00000000000E+00  0.35683992286E+03  0.35683992286E+03  0.00000000000E+00 0.  1.
         21   -1    0    0  505  502  0.00000000000E+00 -0.00000000000E+00 -0.59869747400E+03  0.59869747400E+03  0.00000000000E+00 0. -1.
         21    1    1    2  503  504 -0.79580190291E+02  0.85844356485E+02  0.15528053694E+03  0.19445900694E+03  0.00000000000E+00 0.  1.
         21    1    1    2  504  502  0.47951646305E+02 -0.15676407831E+02 -0.18339314435E+01  0.50482407335E+02  0.00000000000E+00 0. -1.
         21    1    1    2  505  501  0.37889813896E+02 -0.21277210194E+02 -0.54821636069E+03  0.54993593790E+03  0.00000000000E+00 0. -1.
         -1    1    1    2    0  503 -0.62612699104E+01 -0.48890738460E+02  0.15291220406E+03  0.16066004468E+03  0.00000000000E+00 0.  1.
<scales pt_clust_3="14000.00000" pt_clust_4="79.10294" pt_clust_5="43.45524" pt_clust_6="50.65965"></scales>
<clustering>
<clus scale="   43.455">  2  5  1 -1</clus>
<clus scale="   50.660">  1  6  2 -1</clus>
<clus scale="   79.103">  2  4  1 -1</clus>
<clus scale="   43.455">  2  3  1 -1</clus>
</clustering>
</event>
<event>
 6    0  0.6525019E+002  0.1214127E+03  0.7546771E-02  0.1240785E+00
         21   -1    0    0  505  502  0.00000000000E+00  0.00000000000E+00  0.10597481320E+03  0.10597481320E+03  0.00000000000E+00 0.  1.
          2   -1    0    0  504    0 -0.00000000000E+00 -0.00000000000E+00 -0.33776211945E+04  0.33776211945E+04  0.00000000000E+00 0. -1.
         21    1    1    2  503  501  0.16822309841E+01 -0.57471024399E+02 -0.12040417623E+04  0.12054137522E+04  0.00000000000E+00 0. -1.
         21    1    1    2  504  502  0.88087856007E+01  0.10142773870E+03  0.49767170661E+02  0.11332233741E+03  0.00000000000E+00 0.  1.
         21    1    1    2  505  503 -0.57013244750E+02 -0.55953275022E+01 -0.11881420467E+02  0.58506289569E+02  0.00000000000E+00 0.  1.
          2    1    1    2  501    0  0.46522228166E+02 -0.38361386796E+02 -0.21054903692E+04  0.21063536285E+04  0.00000000000E+00 0. -1.
<scales pt_clust_3="56.03280" pt_clust_4="106.99675" pt_clust_5="57.28715" pt_clust_6="56.03280"></scales>
<clustering>
<clus scale="   56.033">  3  6 -1 -1</clus>
<clus scale="   57.287">  1  5  2 -1</clus>
<clus scale="  106.997">  1  4  2 -1</clus>
<clus scale="   57.287">  1  3  2 -1</clus>
</clustering>
</event>
<event>
 6    0  0.6525019E+002  0.1535838E+03  0.7546771E-02  0.1196137E+00
         21   -1    0    0  505  502  0.00000000000E+00  0.00000000000E+00  0.81773484124E+02  0.81773484124E+02  0.00000000000E+00 0.  1.
          1   -1    0    0  504    0 -0.00000000000E+00 -0.00000000000E+00 -0.19528956165E+04  0.19528956165E+04  0.00000000000E+00 0.  1.
         21    1    1    2  503  502 -0.43835154491E+02  0.15602318254E+03 -0.11157667353E+03  0.19675901081E+03  0.00000000000E+00 0.  1.
         21    1    1    2  504  503 -0.12478635795E+02 -0.38192927464E+02 -0.11010877743E+04  0.11018206309E+04  0.00000000000E+00 0.  1.
         21    1    1    2  505  501  0.97309082510E+02 -0.11687726473E+03 -0.11394204803E+03  0.19003195221E+03  0.00000000000E+00 0.  1.
          1    1    1    2  501    0 -0.40995292225E+02 -0.95299035156E+00 -0.54451563656E+03  0.54605750671E+03  0.00000000000E+00 0.  1.
<scales pt_clust_3="153.58377" pt_clust_4="40.17980" pt_clust_5="14000.00000" pt_clust_6="55.18634"></scales>
<clustering>
<clus scale="   40.180">  2  4  1 -1</clus>
<clus scale="   55.186">  2  6  1 -1</clus>
<clus scale="  153.584">  2  3  1 -1</clus>
<clus scale="  153.584">  1  3  2 -1</clus>
</clustering>
</event>
<event>
 6    0  0.6525019E+002  0.1182112E+03  0.7546771E-02  0.1246077E+00
         -3   -1    0    0    0  501 -0.00000000000E+00  0.00000000000E+00  0.18984991665E+04  0.18984991665E+04  0.00000000000E+00 0. -1.
         21   -1    0    0  503  502  0.00000000000E+00 -0.00000000000E+00 -0.41003445522E+03  0.41003445522E+03  0.00000000000E+00 0.  1.
         21    1    1    2  503  505  0.64007210181E+02  0.26258404131E+02 -0.35656782183E+03  0.36321761839E+03  0.00000000000E+00 0.  1.
         21    1    1    2  504  502 -0.13239207858E+03 -0.23845493128E+01  0.64206324553E+03  0.65557498412E+03  0.00000000000E+00 0. -1.
         21    1    1    2  505  501  0.50650479633E+02 -0.78983780584E+02  0.88791974901E+01  0.94248335956E+02  0.00000000000E+00 0. -1.
         -3    1    1    2    0  504  0.17734388769E+02  0.55109925766E+02  0.11940900901E+04  0.11954926833E+04  0.00000000000E+00 0. -1.
<scales pt_clust_3="69.36067" pt_clust_4="14000.00000" pt_clust_5="118.21124" pt_clust_6="57.89311"></scales>
<clustering>
<clus scale="   57.893">  1  6  2 -1</clus>
<clus scale="   69.361">  2  3  1 -1</clus>
<clus scale="  118.211">  2  5  1 -1</clus>
<clus scale="   69.361">  2  3  1 -1</clus>
</clustering>
</event>
<event>
 6    0  0.6525019E+002  0.9459142E+02  0.7546771E-02  0.1292099E+00
          1   -1    0    0  503    0 -0.00000000000E+00  0.00000000000E+00  0.35681194500E+03  0.35681194500E+03  0.00000000000E+00 0. -1.
         21   -1    0    0  504  502  0.00000000000E+00 -0.00000000000E+00 -0.30732045808E+03  0.30732045808E+03  0.00000000000E+00 0.  1.
         21    1    1    2  503  502 -0.62881334188E+02 -0.64969270172E+02  0.70271083316E+02  0.11451241595E+03  0.00000000000E+00 0. -1.
         21    1    1    2  504  505  0.18287985845E+02 -0.68147912750E+02 -0.24491969619E+03  0.25488084671E+03  0.00000000000E+00 0.  1.
         21    1    1    2  505  501  0.76451920728E+02  0.71371400180E+02  0.70534337591E+02  0.12615017133E+03  0.00000000000E+00 0.  1.
          1    1    1    2  501    0 -0.31858572384E+02  0.61745782742E+02  0.15360576220E+03  0.16858896910E+03  0.00000000000E+00 0. -1.
<scales pt_clust_3="94.59142" pt_clust_4="68.83239" pt_clust_5="14000.00000" pt_clust_6="69.48029"></scales>
<clustering>
<clus scale="   69.480">  1  6  2 -1</clus>
<clus scale="   68.832">  2  4  1 -1</clus>
<clus scale="   94.591">  1  3  2 -1</clus>
<clus scale="   68.832">  2  3  1 -1</clus>
</clustering>
</event>
<event>
 6    0  0.6525019E+002  0.8167651E+02  0.7546771E-02  0.1324360E+00
          2   -1    0    0  505    0 -0.00000000000E+00  0.00000000000E+00  0.61142909454E+03  0.61142909454E+03  0.00000000000E+00 0. -1.
         21   -1    0    0  504  502  0.00000000000E+00 -0.00000000000E+00 -0.73060552958E+03  0.73060552958E+03  0.00000000000E+00 0. -1.
         21    1    1    2  503  502 -0.10265879948E+03 -0.34522826689E+02  0.11886970860E+02  0.10895850012E+03  0.00000000000E+00 0. -1.
         21    1    1    2  504  501  0.76592718035E+02 -0.27881730598E+02 -0.66970560009E+03  0.67464763110E+03  0.00000000000E+00 0. -1.
         21    1    1    2  505  503 -0.34336863128E+02  0.38069449818E+02  0.78873366239E+02  0.94070776976E+02  0.00000000000E+00 0. -1.
          2    1    1    2  501    0  0.60402944571E+02  0.24335107469E+02  0.45976882796E+03  0.46435771591E+03  0.00000000000E+00 0. -1.
<scales pt_clust_3="14000.00000" pt_clust_4="81.67651" pt_clust_5="51.26698" pt_clust_6="65.24341"></scales>
<clustering>
<clus scale="   51.267">  1  5  2 -1</clus>
<clus scale="   65.243">  1  6  2 -1</clus>
<clus scale="   81.677">  2  4  1 -1</clus>
<clus scale="   81.677">  2  3  1 -1</clus>
</clustering>
</event>
<event>
 6    0  0.6525019E+002  0.1312271E+03  0.7546771E-02  0.1225646E+00
          2   -1    0    0  504    0 -0.00000000000E+00  0.00000000000E+00  0.20126075536E+04  0.20126075536E+04  0.00000000000E+00 0. -1.
         21   -1    0    0  505  502  0.00000000000E+00 -0.00000000000E+00 -0.89184215189E+03  0.89184215189E+03  0.00000000000E+00 0.  1.
         21    1    1    2  503  501 -0.93726094047E+02  0.68319931988E+02  0.75591508992E+02  0.13844229861E+03  0.00000000000E+00 0.  1.
         21    1    1    2  504  502 -0.32142396864E+02 -0.23377665955E+02 -0.47475978443E+03  0.47642050948E+03  0.00000000000E+00 0.  1.
         21    1    1    2  505  503  0.15292440226E+03 -0.29100636389E+02 -0.36894857248E+03  0.40044446429E+03  0.00000000000E+00 0.  1.
          2    1    1    2  501    0 -0.27055911354E+02 -0.15841629643E+02  0.18888822496E+04  0.18891424331E+04  0.00000000000E+00 0. -1.
<scales pt_clust_3="14000.00000" pt_clust_4="39.95441" pt_clust_5="131.22708" pt_clust_6="31.35250"></scales>
<clustering>
<clus scale="   31.353">  1  6  2 -1</clus>
<clus scale="   39.954">  2  4  1 -1</clus>
<clus scale="  131.227">  2  5  1 -1</clus>
<clus scale="   39.954">  2  3  1 -1</clus>
</clustering>
</event>
<event>
 6    0  0.6525019E+002  0.6443778E+02  0.7546771E-02  0.1380099E+00
          2   -1    0    0  504    0 -0.00000000000E+00  0.00000000000E+00  0.56540942331E+03  0.56540942331E+03  0.00000000000E+00 0.  1.
         21   -1    0    0  505  502  0.00000000000E+00 -0.00000000000E+00 -0.26233964240E+03  0.26233964240E+03  0.00000000000E+00 0.  1.
         21    1    1    2  503  502  0.46834884552E+02 -0.10317683968E+02 -0.45140385741E+02  0.65860575752E+02  0.00000000000E+00 0.  1.
         21    1    1    2  504  503  0.93945537480E+02  0.30910175664E+01  0.28481041897E+03  0.29992047806E+03  0.00000000000E+00 0.  1.
         21    1    1    2  505  501 -0.87868645943E+02 -0.21187570794E+01 -0.18659744253E+03  0.20626195391E+03  0.00000000000E+00 0.  1.
          2    1    1    2  501    0 -0.52911776089E+02  0.93454234807E+01  0.24999719020E+03  0.25570605800E+03  0.00000000000E+00 0.  1.
<scales pt_clust_3="47.95791" pt_clust_4="64.43778" pt_clust_5="44.99756" pt_clust_6="14000.00000"></scales>
<clustering>
<clus scale="   47.958">  2  3  1 -1</clus>
<clus scale="   44.998">  2  5  1 -1</clus>
<clus scale="   64.438">  2  4  1 -1</clus>
<clus scale="   47.958">  2  3  1 -1</clus>
</clustering>
</event>
<event>
 6    0  0.6525019E+002  0.8212650E+02  0.7546771E-02  0.1323123E+00
         21   -1    0    0  503  502  0.00000000000E+00  0.00000000000E+00  0.55514937461E+03  0.55514937461E+03  0.00000000000E+00 0. -1.
         -3   -1    0    0    0  501 -0.00000000000E+00 -0.00000000000E+00 -0.18664081531E+03  0.18664081531E+03  0.00000000000E+00 0. -1.
         21    1    1    2  503  501  0.48326392494E+02 -0.10782948055E+03  0.72888767589E+02  0.13883590864E+03  0.00000000000E+00 0. -1.
         21    1    1    2  504  505 -0.12882698152E+01  0.54144368848E+02  0.83297905566E+02  0.99356999697E+02  0.00000000000E+00 0. -1.
         21    1    1    2  505  502 -0.17868607351E+02  0.45682776974E+02  0.35468267241E+03  0.35805865629E+03  0.00000000000E+00 0. -1.
         -3    1    1    2    0  504 -0.29169515329E+02  0.80023347327E+01 -0.14236078626E+03  0.14553862529E+03  0.00000000000E+00 0. -1.
<scales pt_clust_3="82.12650" pt_clust_4="14000.00000" pt_clust_5="49.77710" pt_clust_6="30.24728"></scales>
<clustering>
<clus scale="   30.247">  2  6  1 -1</clus>
<clus scale="   49.777">  1  5  2 -1</clus>
<clus scale="   82.126">  2  3  1 -1</clus>
<clus scale="   49.777">  1  3  2 -1</clus>
</clustering>
</event>
<event>
 6    0  0.6525019E+002  0.1255716E+03  0.7546771E-02  0.1234179E+00
          2   -1    0    0  504    0 -0.00000000000E+00  0.00000000000E+00  0.38804243890E+03  0.38804243890E+03  0.00000000000E+00 0. -1.
         21   -1    0    0  503  502  0.00000000000E+00 -0.00000000000E+00 -0.15384202846E+04  0.15384202846E+04  0.00000000000E+00 0.  1.
         21    1    1    2  503  501 -0.10422274137E+03 -0.13244752370E+03 -0.42503338274E+03  0.45722872044E+03  0.00000000000E+00 0.  1.
         21    1    1    2  504  505  0.25098141929E+02  0.25900796937E+02  0.45865687709E+02  0.58347487686E+02  0.00000000000E+00 0. -1.
         21    1    1    2  505  502  0.11980824153E+03  0.26729013475E+02 -0.10812330243E+04  0.10881788951E+04  0.00000000000E+00 0.  1.
          2    1    1    2  501    0 -0.40683642089E+02  0.79817713288E+02  0.31002287356E+03  0.32270762033E+03  0.00000000000E+00 0. -1.
<scales pt_clust_3="14000.00000" pt_clust_4="36.06616" pt_clust_5="125.57164" pt_clust_6="105.59481"></scales>
<clustering>
<clus scale="   36.066">  1  4  2 -1</clus>
<clus scale="  105.595">  1  6  2 -1</clus>
<clus scale="  125.572">  2  5  1 -1</clus>
<clus scale="  125.572">  2  3  1 -1</clus>
</clustering>
</event>
<event>
 6    0  0.6525019E+002  0.8014820E+02  0.7546771E-02  0.1328631E+00
          4   -1    0    0  504    0 -0.00000000000E+00  0.00000000000E+00  0.12053578253E+03  0.12053578253E+03  0.00000000000E+00 0. -1.
         21   -1    0    0  505  502  0.00000000000E+00 -0.00000000000E+00 -0.36281837581E+03  0.36281837581E+03  0.00000000000E+00 0.  1.
         21    1    1    2  503  502  0.10285204832E+03 -0.98576217846E+01 -0.19589501889E+03  0.22147364398E+03  0.00000000000E+00 0.  1.
         21    1    1    2  504  503  0.95608885165E+01  0.42207391325E+02  0.10121109353E+02  0.44444474642E+02  0.00000000000E+00 0.  1.
         21    1    1    2  505  501 -0.64943115904E+02  0.15307427164E+01 -0.11673957728E+03  0.13359670797E+03  0.00000000000E+00 0.  1.
          4    1    1    2  501    0 -0.47469820933E+02 -0.33880512256E+02  0.60230893543E+02  0.83839331743E+02  0.00000000000E+00 0. -1.
<scales pt_clust_3="80.14820" pt_clust_4="43.27672" pt_clust_5="14000.00000" pt_clust_6="40.10465"></scales>
<clustering>
<clus scale="   43.277">  1  4  2 -1</clus>
<clus scale="   40.105">  1  6  2 -1</clus>
<clus scale="   80.148">  1  3  2 -1</clus>
<clus scale="   80.148">  2  3  1 -1</clus>
</clustering>
</event>
<event>
 6    0  0.6525019E+002  0.7774182E+02  0.7546771E-02  0.1335585E+00
         21   -1    0    0  505  502  0.00000000000E+00  0.00000000000E+00  0.12942167823E+02  0.12942167823E+02  0.00000000000E+00 0.  1.
          2   -1    0    0  504    0 -0.00000000000E+00 -0.00000000000E+00 -0.31231890354E+04  0.31231890354E+04  0.00000000000E+00 0.  1.
         21    1    1    2  503  502 -0.76546901069E+00 -0.31872111526E+02 -0.37445261021E+02  0.49178908171E+02  0.00000000000E+00 0.  1.
         21    1    1    2  504  503  0.34919466651E+02 -0.87348219940E+02 -0.82402118425E+03  0.82937325299E+03  0.00000000000E+00 0.  1.
         21    1    1    2  505  501 -0.57733465593E+02  0.59941815771E+02 -0.44772935292E+03  0.45539844949E+03  0.00000000000E+00 0.  1.
          2    1    1    2  501    0  0.23579467952E+02  0.59278515695E+02 -0.18010510694E+04  0.18021805926E+04  0.00000000000E+00 0.  1.
<scales pt_clust_3="31.88130" pt_clust_4="77.74182" pt_clust_5="14000.00000" pt_clust_6="61.41589"></scales>
<clustering>
<clus scale="   31.881">  1  3  2 -1</clus>
<clus scale="   61.416">  2  6  1 -1</clus>
<clus scale="   77.742">  2  4  1 -1</clus>
<clus scale="   31.881">  1  3  2 -1</clus>
</clustering>
</event>
<event>
 6    0  0.6525019E+002  0.2033435E+03  0.7546771E-02  0.1146948E+00
          2   -1    0    0  502    0 -0.00000000000E+00  0.00000000000E+00  0.20756496202E+04  0.20756496202E+04  0.00000000000E+00 0. -1.
         21   -1    0    0  503  502  0.00000000000E+00 -0.00000000000E+00 -0.34424393932E+02  0.34424393932E+02  0.00000000000E+00 0. -1.
         21    1    1    2  503  505 -0.12795977153E+03  0.13014635082E+03  0.50614705977E+03  0.53804890287E+03  0.00000000000E+00 0. -1.
         21    1    1    2  504  501  0.46104578954E+02 -0.12531008609E+03  0.43638778609E+03  0.45635791844E+03  0.00000000000E+00 0. -1.
         21    1    1    2  505  504  0.63073198141E+02 -0.34759192936E+02  0.15075133969E+03  0.16707003392E+03  0.00000000000E+00 0.  1.
          2    1    1    2  501    0  0.18781994438E+02  0.29922928206E+02  0.94793904068E+03  0.94859715886E+03  0.00000000000E+00 0. -1.
<scales pt_clust_3="186.97718" pt_clust_4="60.74530" pt_clust_5="60.74530" pt_clust_6="35.32909"></scales>
<clustering>
<clus scale="   35.329">  1  6  2 -1</clus>
<clus scale="   60.745">  4  5 -1 -1</clus>
<clus scale="  186.977">  2  3  1 -1</clus>
<clus scale="  186.977">  2  3  1 -1</clus>
</clustering>
</event>
<event>
 6    0  0.6525019E+002  0.2376683E+03  0.7546771E-02  0.1121356E+00
          1   -1    0    0  505    0 -0.00000000000E+00  0.00000000000E+00  0.29301611592E+04  0.29301611592E+04  0.00000000000E+00 0.  1.
         21   -1    0    0  504  502  0.00000000000E+00 -0.00000000000E+00 -0.46397872063E+02  0.46397872063E+02  0.00000000000E+00 0. -1.
         21    1    1    2  503  502 -0.33385917532E+02  0.67632203404E+02  0.10492085834E+03  0.12921733994E+03  0.00000000000E+00 0. -1.
         21    1    1    2  504  501  0.38620093184E+02  0.75606371169E+01  0.12807059463E+03  0.13398041663E+03  0.00000000000E+00 0.  1.
         21    1    1    2  505  503 -0.22999411324E+03  0.15126927782E+02  0.51909875340E+03  0.56796974554E+03  0.00000000000E+00 0. -1.
          1    1    1    2  501    0  0.22475993758E+03 -0.90319768303E+02  0.21316730808E+04  0.21453915291E+04  0.00000000000E+00 0.  1.
<scales pt_clust_3="73.31239" pt_clust_4="39.35321" pt_clust_5="237.66832" pt_clust_6="14000.00000"></scales>
<clustering>
<clus scale="   39.353">  2  4  1 -1</clus>
<clus scale="   73.312">  2  3  1 -1</clus>
<clus scale="  237.668">  2  5  1 -1</clus>
<clus scale="   39.353">  2  3  1 -1</clus>
</clustering>
</event>
<event>
 6    0  0.6525019E+002  0.1268951E+03  0.7546771E-02  0.1232137E+00
         21   -1    0    0  504  502  0.00000000000E+00  0.00000000000E+00  0.67559251483E+02  0.67559251483E+02  0.00000000000E+00 0.  1.
          2   -1    0    0  503    0 -0.00000000000E+00 -0.00000000000E+00 -0.24261008848E+04  0.24261008848E+04  0.00000000000E+00 0.  1.
         21    1    1    2  503  505 -0.62193047185E+02  0.64905722670E+02 -0.56559406494E+03  0.57269308905E+03  0.00000000000E+00 0.  1.
         21    1    1    2  504  501  0.25260640072E+02  0.40935408906E+02 -0.30247995972E+02  0.56822081091E+02  0.00000000000E+00 0.  1.
         21    1    1    2  505  502  0.61225581728E+02 -0.14364263469E+03 -0.70458235016E+02  0.17130715467E+03  0.00000000000E+00 0.  1.
          2    1    1    2  501    0 -0.24293174615E+02  0.37801503119E+02 -0.16922413374E+04  0.16928378115E+04  0.00000000000E+00 0.  1.
<scales pt_clust_3="14000.00000" pt_clust_4="49.31279" pt_clust_5="126.89509" pt_clust_6="44.93453"></scales>
<clustering>
<clus scale="   44.935">  2  6  1 -1</clus>
<clus scale="   49.313">  1  4  2 -1</clus>
<clus scale="  126.895">  1  5  2 -1</clus>
<clus scale="   49.313">  1  3  2 -1</clus>
</clustering>
</event>
<event>
 6    0  0.6525019E+002  0.1386007E+03  0.7546771E-02  0.1215224E+00
          2   -1    0    0  502    0 -0.00000000000E+00  0.00000000000E+00  0.87670378646E+03  0.87670378646E+03  0.00000000000E+00 0.  1.
         21   -1    0    0  504  502  0.00000000000E+00 -0.00000000000E+00 -0.78560478922E+02  0.78560478922E+02  0.00000000000E+00 0.  1.
         21    1    1    2  503  505  0.57133176763E+02 -0.21596693967E+02  0.60883530211E+02  0.86240485436E+02  0.00000000000E+00 0.  1.
         21    1    1    2  504  503 -0.28738059497E+01  0.40486762579E+02  0.16934229430E+01  0.40623938583E+02  0.00000000000E+00 0.  1.
         21    1    1    2  505  501 -0.14110491647E+03  0.84507271683E+02  0.13483436688E+03  0.21267906082E+03  0.00000000000E+00 0.  1.
          2    1    1    2  501    0  0.86845545657E+02 -0.10339734030E+03  0.60073198750E+03  0.61572078054E+03  0.00000000000E+00 0.  1.
<scales pt_clust_3="57.97250" pt_clust_4="40.58863" pt_clust_5="138.60065" pt_clust_6="14000.00000"></scales>
<clustering>
<clus scale="   40.589">  2  4  1 -1</clus>
<clus scale="   57.972">  2  3  1 -1</clus>
<clus scale="  138.601">  2  5  1 -1</clus>
<clus scale="   40.589">  2  3  1 -1</clus>
</clustering>
</event>
<event>
 6    0  0.6525019E+002  0.8062869E+02  0.7546771E-02  0.1327277E+00
         21   -1    0    0  504  502  0.00000000000E+00  0.00000000000E+00  0.50824427438E+03  0.50824427438E+03  0.00000000000E+00 0. -1.
         -4   -1    0    0    0  501 -0.00000000000E+00 -0.00000000000E+00 -0.17552221670E+03  0.17552221670E+03  0.00000000000E+00 0. -1.
         21    1    1    2  503  502  0.55123253430E+02 -0.41810444573E+02  0.34259828729E+03  0.34951433847E+03  0.00000000000E+00 0. -1.
         21    1    1    2  504  505 -0.32357634236E+02  0.84313161468E+02  0.69934429990E+02  0.11422149617E+03  0.00000000000E+00 0.  1.
         21    1    1    2  505  501  0.18436486883E+02 -0.10562896756E+03  0.40076097517E+01  0.10730071655E+03  0.00000000000E+00 0. -1.
         -4    1    1    2    0  503 -0.41202106077E+02  0.63126250664E+02 -0.83818269351E+02  0.11272993988E+03  0.00000000000E+00 0. -1.
<scales pt_clust_3="69.18588" pt_clust_4="60.58570" pt_clust_5="80.62869" pt_clust_6="14000.00000"></scales>
<clustering>
<clus scale="   69.186">  1  3  2 -1</clus>
<clus scale="   60.586">  1  4  2 -1</clus>
<clus scale="   80.629">  1  5  2 -1</clus>
<clus scale="   69.186">  1  3  2 -1</clus>
</clustering>
</event>
<event>
 6    0  0.6525019E+002  0.7967879E+02  0.7546771E-02  0.1329965E+00
          2   -1    0    0  503    0 -0.00000000000E+00  0.00000000000E+00  0.24268890086E+04  0.24268890086E+04  0.00000000000E+00 0.  1.
         21   -1    0    0  505  502  0.00000000000E+00 -0.00000000000E+00 -0.15180967495E+03  0.15180967495E+03  0.00000000000E+00 0. -1.
         21    1    1    2  503  502 -0.14477690931E+03  0.27932643414E+02  0.40407220893E+03  0.43013362583E+03  0.00000000000E+00 0.  1.
         21    1    1    2  504  501  0.44295337508E+02 -0.28641939972E+02  0.55080133049E+02  0.76264399998E+02  0.00000000000E+00 0.  1.
         21    1    1    2  505  504  0.25858072012E+02 -0.15659061528E+02 -0.12564283327E+03  0.12922835466E+03  0.00000000000E+00 0. -1.
          2    1    1    2  501    0  0.74623499794E+02  0.16368358086E+02  0.19415698249E+04  0.19430723031E+04  0.00000000000E+00 0.  1.
<scales pt_clust_3="79.67879" pt_clust_4="65.88111" pt_clust_5="30.22989" pt_clust_6="14000.00000"></scales>
<clustering>
<clus scale="   30.230">  2  5  1 -1</clus>
<clus scale="   65.881">  2  4  1 -1</clus>
<clus scale="   79.679">  2  3  1 -1</clus>
<clus scale="   30.230">  2  3  1 -1</clus>
</clustering>
</event>
<event>
 6    0  0.6525019E+002  0.1221219E+03  0.7546771E-02  0.1239637E+00
         21   -1    0    0  503  502  0.00000000000E+00  0.00000000000E+00  0.14099285258E+03  0.14099285258E+03  0.00000000000E+00 0. -1.
          3   -1    0    0  505    0 -0.00000000000E+00 -0.00000000000E+00 -0.26303136877E+04  0.26303136877E+04  0.00000000000E+00 0. -1.
         21    1    1    2  503  504  0.26204372158E+02 -0.36657256606E+02  0.23376300886E+02  0.50762929635E+02  0.00000000000E+00 0.  1.
         21    1    1    2  504  501 -0.57053597359E+02  0.29920791052E+01  0.96947173597E+01  0.57948710543E+02  0.00000000000E+00 0. -1.
         21    1    1    2  505  502  0.11127058615E+03  0.12428931106E+03 -0.32747539479E+02  0.17000405150E+03  0.00000000000E+00 0. -1.
          3    1    1    2  501    0 -0.80421360945E+02 -0.90624133555E+02 -0.24896443139E+04  0.24925908486E+04  0.00000000000E+00 0. -1.
<scales pt_clust_3="45.06022" pt_clust_4="49.34170" pt_clust_5="14000.00000" pt_clust_6="122.12193"></scales>
<clustering>
<clus scale="   45.060">  1  3  2 -1</clus>
<clus scale="   49.342">  1  4  2 -1</clus>
<clus scale="  122.122">  2  6  1 -1</clus>
<clus scale="   45.060">  1  3  2 -1</clus>
</clustering>
</event>
<event>
 6    0  0.6525019E+002  0.1385109E+03  0.7546771E-02  0.1215347E+00
          4   -1    0    0  504    0 -0.00000000000E+00  0.00000000000E+00  0.25381328910E+03  0.25381328910E+03  0.00000000000E+00 0. -1.
         21   -1    0    0  505  502  0.00000000000E+00 -0.00000000000E+00 -0.23441385233E+03  0.23441385233E+03  0.00000000000E+00 0. -1.
         21    1    1    2  503  502 -0.14840804811E+03 -0.16264359742E+02 -0.12797209576E+03  0.19663757381E+03  0.00000000000E+00 0. -1.
         21    1    1    2  504  503  0.91059322823E+02  0.88864681675E+02  0.65471330605E+02  0.14309167360E+03  0.00000000000E+00 0. -1.
         21    1    1    2  505  501  0.11477043557E+02 -0.46483670626E+02 -0.36015657346E+01  0.48014846032E+02  0.00000000000E+00 0. -1.
          4    1    1    2  501    0  0.45871681728E+02 -0.26116651306E+02  0.85501767665E+02  0.10048304799E+03  0.00000000000E+00 0. -1.
<scales pt_clust_3="14000.00000" pt_clust_4="138.51091" pt_clust_5="47.87958" pt_clust_6="53.98371"></scales>
<clustering>
<clus scale="   47.880">  2  5  1 -1</clus>
<clus scale="   53.984">  1  6  2 -1</clus>
<clus scale="  138.511">  1  4  2 -1</clus>
<clus scale="   47.880">  2  3  1 -1</clus>
</clustering>
</event>
<event>
 6    0  0.6525019E+002  0.9534716E+02  0.7546771E-02  0.1290396E+00
         21   -1    0    0  503  502  0.00000000000E+00  0.00000000000E+00  0.88400372116E+03  0.88400372116E+03  0.00000000000E+00 0.  1.
          1   -1    0    0  505    0 -0.00000000000E+00 -0.00000000000E+00 -0.69451942443E+02  0.69451942443E+02  0.00000000000E+00 0. -1.
         21    1    1    2  503  501 -0.88357885450E+02  0.99476447502E+02  0.64066666167E+03  0.65433664952E+03  0.00000000000E+00 0.  1.
         21    1    1    2  504  502  0.44271341071E+02 -0.12619493637E+02  0.17581079756E+03  0.18173783260E+03  0.00000000000E+00 0.  1.
         21    1    1    2  505  504  0.30676351599E+02 -0.24592373170E+02  0.26726632143E+02  0.47540890097E+02  0.00000000000E+00 0.  1.
          1    1    1    2  501    0  0.13410192781E+02 -0.62264580696E+02 -0.28652312659E+02  0.69840291382E+02  0.00000000000E+00 0. -1.
<scales pt_clust_3="95.34716" pt_clust_4="47.85998" pt_clust_5="39.31696" pt_clust_6="14000.00000"></scales>
<clustering>
<clus scale="   39.317">  2  5  1 -1</clus>
<clus scale="   47.860">  1  4  2 -1</clus>
<clus scale="   95.347">  1  3  2 -1</clus>
<clus scale="   47.860">  1  3  2 -1</clus>
</clustering>
</event>
<event>
 6    0  0.6525019E+002  0.1258088E+03  0.7546771E-02  0.1233811E+00
          2   -1    0    0  504    0 -0.00000000000E+00  0.00000000000E+00  0.19058783563E+04  0.19058783563E+04  0.00000000000E+00 0.  1.
         21   -1    0    0  503  502  0.00000000000E+00 -0.00000000000E+00 -0.15007293220E+04  0.15007293220E+04  0.00000000000E+00 0. -1.
         21    1    1    2  503  501  0.12246892288E+03 -0.35973315121E+02 -0.53249035583E+03  0.54757528754E+03  0.00000000000E+00 0. -1.
         21    1    1    2  504  505 -0.77895494725E+02  0.47957585658E+01 -0.52454086879E+00  0.78044747048E+02  0.00000000000E+00 0.  1.
         21    1    1    2  505  502  0.17153230479E+02  0.37530019560E+02 -0.92043181398E+03  0.92135631537E+03  0.00000000000E+00 0.  1.
          2    1    1    2  501    0 -0.61726658635E+02 -0.63524630044E+01  0.18585957450E+04  0.18596313284E+04  0.00000000000E+00 0.  1.
<scales pt_clust_3="14000.00000" pt_clust_4="125.80877" pt_clust_5="41.26422" pt_clust_6="62.03401"></scales>
<clustering>
<clus scale="   41.264">  2  5  1 -1</clus>
<clus scale="   62.034">  1  6  2 -1</clus>
<clus scale="  125.809">  1  4  2 -1</clus>
<clus scale="   41.264">  2  3  1 -1</clus>
</clustering>
</event>
<event>
 6    0  0.6525019E+002  0.1462011E+03  0.7546771E-02  0.1205220E+00
         21   -1    0    0  503  502  0.00000000000E+00  0.00000000000E+00  0.19998544854E+03  0.19998544854E+03  0.00000000000E+00 0.  1.
          1   -1    0    0  505    0 -0.00000000000E+00 -0.00000000000E+00 -0.22923393096E+03  0.22923393096E+03  0.00000000000E+00 0.  1.
         21    1    1    2  503  501  0.72830886458E+02  0.53221514228E+02  0.56241083023E+02  0.10630111485E+03  0.00000000000E+00 0.  1.
         21    1    1    2  504  502 -0.86919302167E+01  0.53598410075E+02  0.59153168732E+02  0.80295931307E+02  0.00000000000E+00 0.  1.
         21    1    1    2  505  504 -0.10082356970E+03 -0.10123181501E+03 -0.14756597198E+03  0.20539958292E+03  0.00000000000E+00 0.  1.
          1    1    1    2  501    0  0.36684613459E+02 -0.55881092972E+01  0.29232378092E+01  0.37222750428E+02  0.00000000000E+00 0.  1.
<scales pt_clust_3="34.15692" pt_clust_4="54.29861" pt_clust_5="136.15675" pt_clust_6="34.15692"></scales>
<clustering>
<clus scale="   34.157">  3  6 -1 -1</clus>
<clus scale="   54.299">  1  4  2 -1</clus>
<clus scale="  136.157">  2  5  1 -1</clus>
<clus scale="   54.299">  1  3  2 -1</clus>
</clustering>
</event>
<event>
 6    0  0.6525019E+002  0.8155593E+02  0.7546771E-02  0.1324693E+00
         21   -1    0    0  503  502  0.00000000000E+00  0.00000000000E+00  0.24852972767E+03  0.24852972767E+03  0.00000000000E+00 0.  1.
          2   -1    0    0  504    0 -0.00000000000E+00 -0.00000000000E+00 -0.92593448590E+03  0.92593448590E+03  0.00000000000E+00 0. -1.
         21    1    1    2  503  501 -0.53693315331E+02  0.10294230689E+03  0.12595331826E+03  0.17130186526E+03  0.00000000000E+00 0.  1.
         21    1    1    2  504  505  0.47606969738E+02 -0.30282737023E+01 -0.19314982231E+03  0.19895338114E+03  0.00000000000E+00 0. -1.
         21    1    1    2  505  502 -0.13231948428E+02 -0.54912418377E+02  0.87846300510E+02  0.10443864546E+03  0.00000000000E+00 0.  1.
          2    1    1    2  501    0  0.19318294022E+02 -0.45001614812E+02 -0.69805455469E+03  0.69977032171E+03  0.00000000000E+00 0. -1.
<scales pt_clust_3="81.55593" pt_clust_4="47.70319" pt_clust_5="56.39337" pt_clust_6="14000.00000"></scales>
<clustering>
<clus scale="   47.703">  2  4  1 -1</clus>
<clus scale="   56.393">  1  5  2 -1</clus>
<clus scale="   81.556">  1  3  2 -1</clus>
<clus scale="   56.393">  1  3  2 -1</clus>
</clustering>
</event>
<event>
 6    0  0.6525019E+002  0.7685313E+02  0.7546771E-02  0.1338227E+00
          2   -1    0    0  505    0 -0.00000000000E+00  0.00000000000E+00  0.19986757907E+03  0.19986757907E+03  0.00000000000E+00 0.  1.
         21   -1    0    0  504  502  0.00000000000E+00 -0.00000000000E+00 -0.66305840201E+03  0.66305840201E+03  0.00000000000E+00 0.  1.
         21    1    1    2  503  501  0.51719148595E+01  0.71170150097E+02 -0.41859914943E+03  0.42463771249E+03  0.00000000000E+00 0.  1.
         21    1    1    2  504  503  0.18769233261E+02 -0.28704333773E+02 -0.97057051817E+02  0.10293830289E+03  0.00000000000E+00 0. -1.
         21    1    1    2  505  502 -0.80020752274E+02 -0.90999371285E+02 -0.10561005043E+03  0.16074106234E+03  0.00000000000E+00 0. -1.
          2    1    1    2  501    0  0.56079604154E+02  0.48533554962E+02  0.15807542875E+03  0.17460890336E+03  0.00000000000E+00 0.  1.
<scales pt_clust_3="53.26721" pt_clust_4="34.29611" pt_clust_5="14000.00000" pt_clust_6="76.85313"></scales>
<clustering>
<clus scale="   34.296">  2  4  1 -1</clus>
<clus scale="   53.267">  2  3  1 -1</clus>
<clus scale="   76.853">  1  6  2 -1</clus>
<clus scale="   34.296">  2  3  1 -1</clus>
</clustering>
</event>
<event>
 6    0  0.6525019E+002  0.8152238E+02  0.7546771E-02  0.1324786E+00
         -3   -1    0    0    0  501 -0.00000000000E+00  0.00000000000E+00  0.31237896442E+03  0.31237896442E+03  0.00000000000E+00 0.  1.
         21   -1    0    0  503  502  0.00000000000E+00 -0.00000000000E+00 -0.13381231480E+03  0.13381231480E+03  0.00000000000E+00 0.  1.
         21    1    1    2  503  505  0.57025698434E+02 -0.90589308147E+02 -0.79383497506E+02  0.13326699782E+03  0.00000000000E+00 0.  1.
         21    1    1    2  504  502 -0.34265777573E+02  0.12749419997E+02  0.79793692456E+01  0.37421405058E+02  0.00000000000E+00 0.  1.
         21    1    1    2  505  501  0.30198995776E+02  0.23460976620E+02  0.62813822897E+02  0.73538922461E+02  0.00000000000E+00 0.  1.
         -3    1    1    2    0  504 -0.52958916637E+02  0.54378911530E+02  0.18715695498E+03  0.20196395388E+03  0.00000000000E+00 0.  1.
<scales pt_clust_3="81.52238" pt_clust_4="36.56079" pt_clust_5="37.40125" pt_clust_6="14000.00000"></scales>
<clustering>
<clus scale="   36.561">  2  4  1 -1</clus>
<clus scale="   37.401">  1  5  2 -1</clus>
<clus scale="   81.522">  2  3  1 -1</clus>
<clus scale="   36.561">  2  3  1 -1</clus>
</clustering>
</event>
<event>
 6    0  0.6525019E+002  0.6320223E+02  0.7546771E-02  0.1384864E+00
          2   -1    0    0  505    0 -0.00000000000E+00  0.00000000000E+00  0.15993660380E+04  0.15993660380E+04  0.00000000000E+00 0.  1.
         21   -1    0    0  503  502  0.00000000000E+00 -0.00000000000E+00 -0.14280906737E+03  0.14280906737E+03  0.00000000000E+00 0.  1.
         21    1    1    2  503  504 -0.61128987849E+02 -0.17321934102E+02 -0.63412625624E+02  0.89766160913E+02  0.00000000000E+00 0.  1.
         21    1    1    2  504  501 -0.45193921165E+02  0.53094592411E+02  0.71881664383E+02  0.10014239825E+03  0.00000000000E+00 0.  1.
         21    1    1    2  505  502  0.42240193507E+02 -0.37880821560E+02 -0.35738529621E+02  0.67055447870E+02  0.00000000000E+00 0.  1.
          2    1    1    2  501    0  0.64082715507E+02  0.21081632517E+01  0.14838264615E+04  0.14852110983E+04  0.00000000000E+00 0.  1.
<scales pt_clust_3="55.40184" pt_clust_4="14000.00000" pt_clust_5="56.73791" pt_clust_6="63.20223"></scales>
<clustering>
<clus scale="   56.738">  2  5  1 -1</clus>
<clus scale="   55.402">  2  3  1 -1</clus>
<clus scale="   63.202">  1  6  2 -1</clus>
<clus scale="   56.738">  2  3  1 -1</clus>
</clustering>
</event>
<event>
 6    0  0.6525019E+002  0.1119193E+03  0.7546771E-02  0.1257056E+00
         21   -1    0    0  503  502  0.00000000000E+00  0.00000000000E+00  0.33896882319E+03  0.33896882319E+03  0.00000000000E+00 0. -1.
         -1   -1    0    0    0  501 -0.00000000000E+00 -0.00000000000E+00 -0.79724967894E+03  0.79724967894E+03  0.00000000000E+00 0.  1.
         21    1    1    2  503  501  0.15521322747E+02 -0.50508704448E+02 -0.42867606010E+02  0.68041695524E+02  0.00000000000E+00 0.  1.
         21    1    1    2  504  505 -0.49868787178E+02  0.78552688211E+02  0.13514890126E+03  0.16408121852E+03  0.00000000000E+00 0. -1.
         21    1    1    2  505  502 -0.54820285909E+02 -0.26832972553E+02  0.16866104377E+03  0.17936504634E+03  0.00000000000E+00 0. -1.
         -1    1    1    2    0  504  0.89167750340E+02 -0.12110112108E+01 -0.71922319477E+03  0.72473054174E+03  0.00000000000E+00 0.  1.
<scales pt_clust_3="52.83976" pt_clust_4="111.91933" pt_clust_5="61.09579" pt_clust_6="14000.00000"></scales>
<clustering>
<clus scale="   52.840">  2  3  1 -1</clus>
<clus scale="   61.096">  1  5  2 -1</clus>
<clus scale="  111.919">  1  4  2 -1</clus>
<clus scale="   61.096">  1  3  2 -1</clus>
</clustering>
</event>
<event>
 6    0  0.6525019E+002  0.1728564E+03  0.7546771E-02  0.1174901E+00
          2   -1    0    0  504    0 -0.00000000000E+00  0.00000000000E+00  0.19540027025E+03  0.19540027025E+03  0.00000000000E+00 0.  1.
         21   -1    0    0  503  502  0.00000000000E+00 -0.00000000000E+00 -0.49737297557E+03  0.49737297557E+03  0.00000000000E+00 0.  1.
         21    1    1    2  503  501 -0.10732667084E+03  0.12725070635E+03 -0.85886999711E+02  0.18731880114E+03  0.00000000000E+00 0.  1.
         21    1    1    2  504  505  0.94993404251E+01 -0.21340853245E+03 -0.59420475848E+02  0.22173008849E+03  0.00000000000E+00 0.  1.
         21    1    1    2  505  502  0.32684449201E+02  0.18457875320E+01 -0.17287920300E+03  0.17595141085E+03  0.00000000000E+00 0.  1.
          2    1    1    2  501    0  0.65142881218E+02  0.84312038567E+02  0.16213973241E+02  0.10777294535E+03  0.00000000000E+00 0.  1.
<scales pt_clust_3="172.85638" pt_clust_4="14000.00000" pt_clust_5="32.73653" pt_clust_6="109.64209"></scales>
<clustering>
<clus scale="   32.737">  2  5  1 -1</clus>
<clus scale="  109.642">  1  6  2 -1</clus>
<clus scale="  172.856">  2  3  1 -1</clus>
<clus scale="   32.737">  2  3  1 -1</clus>
</clustering>
</event>
<event>
 6    0  0.6525019E+002  0.1194297E+03  0.7546771E-02  0.1244041E+00
         -2   -1    0    0    0  501 -0.00000000000E+00  0.00000000000E+00  0.13333812585E+04  0.13333812585E+04  0.00000000000E+00 0.  1.
         21   -1    0    0  505  502  0.00000000000E+00 -0.00000000000E+00 -0.23782018212E+03  0.23782018212E+03  0.00000000000E+00 0.  1.
         21    1    1    2  503  501  0.10341705488E+03 -0.53146448405E+00 -0.20021409483E+02  0.10533862792E+03  0.00000000000E+00 0.  1.
         21    1    1    2  504  502  0.45115239131E+02  0.25569175492E+02 -0.83099460257E+02  0.97952477417E+02  0.00000000000E+00 0.  1.
         21    1    1    2  505  503 -0.13536552486E+03 -0.62308499031E+02 -0.18433528901E+02  0.15015315301E+03  0.00000000000E+00 0.  1.
         -2    1    1    2    0  504 -0.13166769155E+02  0.37270788023E+02  0.12171154750E+04  0.12177571822E+04  0.00000000000E+00 0.  1.
<scales pt_clust_3="119.42969" pt_clust_4="52.35993" pt_clust_5="14000.00000" pt_clust_6="39.52816"></scales>
<clustering>
<clus scale="   39.528">  1  6  2 -1</clus>
<clus scale="   52.360">  2  4  1 -1</clus>
<clus scale="  119.430">  1  3  2 -1</clus>
<clus scale="   52.360">  2  3  1 -1</clus>
</clustering>
</event>
<event>
 6    0  0.6525019E+002  0.8913806E+02  0.7546771E-02  0.1304953E+00
          2   -1    0    0  505    0 -0.00000000000E+00  0.00000000000E+00  0.88975411276E+03  0.88975411276E+03  0.00000000000E+00 0.  1.
         21   -1    0    0  503  502  0.00000000000E+00 -0.00000000000E+00 -0.57500297320E+03  0.57500297320E+03  0.00000000000E+00 0. -1.
         21    1    1    2  503  501 -0.74159552313E+02 -0.19630374368E+02 -0.41039094467E+03  0.41749936319E+03  0.00000000000E+00 0. -1.
         21    1    1    2  504  502  0.23830180508E+02 -0.53023458681E+02 -0.11862906322E+03  0.13210684809E+03  0.00000000000E+00 0.  1.
         21    1    1    2  505  504  0.47331116497E+02  0.10587534093E+03  0.59823615575E+02  0.13049401284E+03  0.00000000000E+00 0. -1.
          2    1    1    2  501    0  0.29982553083E+01 -0.33221507878E+02  0.78394753186E+03  0.78465686184E+03  0.00000000000E+00 0.  1.
<scales pt_clust_3="14000.00000" pt_clust_4="60.15131" pt_clust_5="89.13806" pt_clust_6="33.35653"></scales>
<clustering>
<clus scale="   33.357">  1  6  2 -1</clus>
<clus scale="   60.151">  2  4  1 -1</clus>
<clus scale="   89.138">  1  5  2 -1</clus>
<clus scale="   60.151">  2  3  1 -1</clus>
</clustering>
</event>
<event>
 6    0  0.6525019E+002  0.1228418E+03  0.7546771E-02  0.1238481E+00
          1   -1    0    0  503    0 -0.00000000000E+00  0.00000000000E+00  0.14745924390E+04  0.14745924390E+04  0.00000000000E+00 0. -1.
         21   -1    0    0  505  502  0.00000000000E+00 -0.00000000000E+00 -0.24922904207E+03  0.24922904207E+03  0.00000000000E+00 0. -1.
         21    1    1    2  503  504 -0.78436806996E+01  0.20543288464E+03  0.43782274486E+03  0.48368682981E+03  0.00000000000E+00 0. -1.
         21    1    1    2  504  502  0.50334499551E+02 -0.70203750689E+02 -0.69236851653E+02  0.11070623326E+03  0.00000000000E+00 0. -1.
         21    1    1    2  505  501 -0.15206091195E+02 -0.26312801750E+02 -0.13141204781E+03  0.13488037313E+03  0.00000000000E+00 0. -1.
          1    1    1    2  501    0 -0.27284727657E+02 -0.10891633220E+03  0.98818955157E+03  0.99454804490E+03  0.00000000000E+00 0. -1.
<scales pt_clust_3="14000.00000" pt_clust_4="98.45801" pt_clust_5="30.39060" pt_clust_6="122.84178"></scales>
<clustering>
<clus scale="   30.391">  2  5  1 -1</clus>
<clus scale="   98.458">  2  4  1 -1</clus>
<clus scale="  122.842">  1  6  2 -1</clus>
<clus scale="   30.391">  2  3  1 -1</clus>
</clustering>
</event>
<event>
 6    0  0.6525019E+002  0.1124034E+03  0.7546771E-02  0.1256183E+00
         21   -1    0    0  503  502  0.00000000000E+00  0.00000000000E+00  0.14012117979E+03  0.14012117979E+03  0.00000000000E+00 0.  1.
          1   -1    0    0  505    0 -0.00000000000E+00 -0.00000000000E+00 -0.20465560418E+04  0.20465560418E+04  0.00000000000E+00 0.  1.
         21    1    1    2  503  501 -0.86644571359E+02 -0.53776292449E+02 -0.14514978158E+03  0.17739117923E+03  0.00000000000E+00 0. -1.
         21    1    1    2  504  502  0.33423399030E+02  0.27112172855E+02  0.57637068840E+02  0.71932087584E+02  0.00000000000E+00 0. -1.
         21    1    1    2  505  504 -0.73618507000E+01  0.12154359809E+03 -0.70310094883E+01  0.12196916896E+03  0.00000000000E+00 0.  1.
          1    1    1    2  501    0  0.60583023028E+02 -0.94879478500E+02 -0.18118911398E+04  0.18153847858E+04  0.00000000000E+00 0.  1.
<scales pt_clust_3="92.84743" pt_clust_4="43.03712" pt_clust_5="112.40343" pt_clust_6="14000.00000"></scales>
<clustering>
<clus scale="   43.037">  1  4  2 -1</clus>
<clus scale="   92.847">  1  3  2 -1</clus>
<clus scale="  112.403">  1  5  2 -1</clus>
<clus scale="   43.037">  1  3  2 -1</clus>
</clustering>
</event>
<event>
 6    0  0.6525019E+002  0.9991985E+02  0.7546771E-02  0.1280465E+00
         21   -1    0    0  501  502  0.00000000000E+00  0.00000000000E+00  0.14693193687E+04  0.14693193687E+04  0.00000000000E+00 0. -1.
          2   -1    0    0  505    0 -0.00000000000E+00 -0.00000000000E+00 -0.22376263132E+03  0.22376263132E+03  0.00000000000E+00 0.  1.
         21    1    1    2  503  504  0.11706327446E+02 -0.87608119246E+02  0.21354507783E+03  0.23111408639E+03  0.00000000000E+00 0. -1.
         21    1    1    2  504  502 -0.55579747023E+02 -0.80008204628E+01  0.12088882306E+04  0.12101916689E+04  0.00000000000E+00 0. -1.
         21    1    1    2  505  503 -0.24448705337E+02  0.10402040632E+03 -0.13099388146E+03  0.16904845786E+03  0.00000000000E+00 0.  1.
          2    1    1    2  501    0  0.68322124914E+02 -0.84114666156E+01 -0.45882689572E+02  0.82727786902E+02  0.00000000000E+00 0.  1.
<scales pt_clust_3="99.91985" pt_clust_4="56.15266" pt_clust_5="14000.00000" pt_clust_6="65.00373"></scales>
<clustering>
<clus scale="   56.153">  1  4  2 -1</clus>
<clus scale="   65.004">  2  6  1 -1</clus>
<clus scale="   99.920">  1  3  2 -1</clus>
<clus scale="   56.153">  1  3  2 -1</clus>
</clustering>
</event>
<event>
 6    0  0.6525019E+002  0.1281362E+03  0.7546771E-02  0.1230248E+00
          1   -1    0    0  505    0 -0.00000000000E+00  0.00000000000E+00  0.40993875755E+03  0.40993875755E+03  0.00000000000E+00 0. -1.
         21   -1    0    0  503  502  0.00000000000E+00 -0.00000000000E+00 -0.28027732612E+03  0.28027732612E+03  0.00000000000E+00 0. -1.
         21    1    1    2  503  501 -0.27192992812E+02 -0.42528302609E+02 -0.75423844346E+02  0.90757212809E+02  0.00000000000E+00 0. -1.
         21    1    1    2  504  502  0.84090106977E+01  0.30787732623E+02 -0.31493874240E+02  0.44838154016E+02  0.00000000000E+00 0. -1.
         21    1    1    2  505  504  0.11056288254E+03 -0.77126615454E+02 -0.11710751733E+03  0.17856885625E+03  0.00000000000E+00 0. -1.
          1    1    1    2  501    0 -0.91778900423E+02  0.88867185441E+02  0.35368666734E+03  0.37605186061E+03  0.00000000000E+00 0. -1.
<scales pt_clust_3="40.15493" pt_clust_4="31.91545" pt_clust_5="14000.00000" pt_clust_6="128.13623"></scales>
<clustering>
<clus scale="   31.915">  2  4  1 -1</clus>
<clus scale="   40.155">  2  3  1 -1</clus>
<clus scale="  128.136">  1  6  2 -1</clus>
<clus scale="   31.915">  2  3  1 -1</clus>
</clustering>
</event>
<event>
 6    0  0.6525019E+002  0.2586755E+03  0.7546771E-02  0.1107942E+00
         21   -1    0    0  501  502  0.00000000000E+00  0.00000000000E+00  0.30901481542E+03  0.30901481542E+03  0.00000000000E+00 0. -1.
          1   -1    0    0  505    0 -0.00000000000E+00 -0.00000000000E+00 -0.12967147327E+04  0.12967147327E+04  0.00000000000E+00 0.  1.
         21    1    1    2  503  502  0.18557193890E+02  0.52636972240E+02  0.61558902842E+02  0.83093434222E+02  0.00000000000E+00 0. -1.
         21    1    1    2  504  503  0.17870356882E+03  0.78745487281E+01  0.45554653983E+02  0.18458656649E+03  0.00000000000E+00 0. -1.
         21    1    1    2  505  504 -0.31907395309E+03 -0.26278668033E+03 -0.30501763066E+03  0.51371274261E+03  0.00000000000E+00 0. -1.
          1    1    1    2  501    0  0.12181319038E+03  0.20227515936E+03 -0.78979584347E+03  0.82433680484E+03  0.00000000000E+00 0.  1.
<scales pt_clust_3="55.81237" pt_clust_4="190.68500" pt_clust_5="258.67552" pt_clust_6="14000.00000"></scales>
<clustering>
<clus scale="   55.812">  1  3  2 -1</clus>
<clus scale="  190.685">  1  4  2 -1</clus>
<clus scale="  258.676">  1  5  2 -1</clus>
<clus scale="   55.812">  1  3  2 -1</clus>
</clustering>
</event>
<event>
 6    0  0.6525019E+002  0.8925311E+02  0.7546771E-02  0.1304671E+00
         21   -1    0    0  505  502  0.00000000000E+00  0.00000000000E+00  0.15362120706E+03  0.15362120706E+03  0.00000000000E+00 0.  1.
         -1   -1    0    0    0  501 -0.00000000000E+00 -0.00000000000E+00 -0.67366259358E+03  0.67366259358E+03  0.00000000000E+00 0.  1.
         21    1    1    2  503  502 -0.25878552573E+02 -0.25562832031E+02  0.40611554167E+02  0.54520236578E+02  0.00000000000E+00 0.  1.
         21    1    1    2  504  503  0.12342361724E+02 -0.51586269183E+02  0.64605774327E+02  0.83590568472E+02  0.00000000000E+00 0.  1.
         21    1    1    2  505  501 -0.75706118491E+02  0.75760764104E+02 -0.72686390377E+02  0.12943887013E+03  0.00000000000E+00 0.  1.
         -1    1    1    2    0  504  0.89242309340E+02  0.13883371098E+01 -0.55257232464E+03  0.55973412547E+03  0.00000000000E+00 0.  1.
<scales pt_clust_3="35.79822" pt_clust_4="35.79822" pt_clust_5="76.96189" pt_clust_6="89.25311"></scales>
<clustering>
<clus scale="   35.798">  3  4 -1 -1</clus>
<clus scale="   89.253">  2  6  1 -1</clus>
<clus scale="   76.962">  2  5  1 -1</clus>
<clus scale="   89.253">  1  3  2 -1</clus>
</clustering>
</event>
<event>
 6    0  0.6525019E+002  0.1304138E+03  0.7546771E-02  0.1226843E+00
          1   -1    0    0  505    0 -0.00000000000E+00  0.00000000000E+00  0.20208297139E+04  0.20208297139E+04  0.00000000000E+00 0. -1.
         21   -1    0    0  501  502  0.00000000000E+00 -0.00000000000E+00 -0.20609672742E+03  0.20609672742E+03  0.00000000000E+00 0. -1.
         21    1    1    2  503  504 -0.42717822613E+02  0.16893099154E+02 -0.18194063205E+02  0.49408633899E+02  0.00000000000E+00 0. -1.
         21    1    1    2  504  502 -0.28117605174E+02 -0.45037114198E+02 -0.95740175270E+02  0.10947658442E+03  0.00000000000E+00 0. -1.
         21    1    1    2  505  503 -0.31313653129E+02  0.88354221525E+02 -0.35545961633E+02  0.10025232527E+03  0.00000000000E+00 0. -1.
          1    1    1    2  501    0  0.10214908092E+03 -0.60210206480E+02  0.19642131866E+04  0.19677888977E+04  0.00000000000E+00 0. -1.
<scales pt_clust_3="38.03940" pt_clust_4="53.09370" pt_clust_5="38.03940" pt_clust_6="118.55378"></scales>
<clustering>
<clus scale="   38.039">  3  5 -1 -1</clus>
<clus scale="   53.094">  2  4  1 -1</clus>
<clus scale="  118.554">  1  6  2 -1</clus>
<clus scale="   53.094">  2  3  1 -1</clus>
</clustering>
</event>
<event>
 6    0  0.6525019E+002  0.6925503E+02  0.7546771E-02  0.1362645E+00
          1   -1    0    0  504    0 -0.00000000000E+00  0.00000000000E+00  0.37583015078E+04  0.37583015078E+04  0.00000000000E+00 0.  1.
         21   -1    0    0  503  502  0.00000000000E+00 -0.00000000000E+00 -0.87846997070E+01  0.87846997070E+01  0.00000000000E+00 0.  1.
         21    1    1    2  503  505  0.41045597689E+02  0.51922512171E+02  0.22938597988E+03  0.23874382951E+03  0.00000000000E+00 0.  1.
         21    1    1    2  504  502 -0.33294143874E+02 -0.78651774039E+02  0.10486720567E+04  0.10521443267E+04  0.00000000000E+00 0. -1.
         21    1    1    2  505  501  0.42648727882E+01  0.71250089353E+02  0.60902205104E+03  0.61319052751E+03  0.00000000000E+00 0.  1.
          1    1    1    2  501    0 -0.12016326603E+02 -0.44520827485E+02  0.18624367204E+04  0.18630075238E+04  0.00000000000E+00 0.  1.
<scales pt_clust_3="14000.00000" pt_clust_4="69.25503" pt_clust_5="56.89859" pt_clust_6="46.11395"></scales>
<clustering>
<clus scale="   46.114">  1  6  2 -1</clus>
<clus scale="   56.899">  1  5  2 -1</clus>
<clus scale="   69.255">  1  4  2 -1</clus>
<clus scale="   69.255">  2  3  1 -1</clus>
</clustering>
</event>
<event>
 6    0  0.6525019E+002  0.2222438E+03  0.7546771E-02  0.1132221E+00
         21   -1    0    0  504  502  0.00000000000E+00  0.00000000000E+00  0.21672881585E+03  0.21672881585E+03  0.00000000000E+00 0. -1.
          2   -1    0    0  505    0 -0.00000000000E+00 -0.00000000000E+00 -0.14003652947E+04  0.14003652947E+04  0.00000000000E+00 0. -1.
         21    1    1    2  503  501 -0.13757082558E+03  0.32659973909E+02 -0.13468691916E+03  0.19527665538E+03  0.00000000000E+00 0. -1.
         21    1    1    2  504  503 -0.57862880125E+02  0.77381085632E+01 -0.49625992093E+01  0.58588553587E+02  0.00000000000E+00 0. -1.
         21    1    1    2  505  502  0.18466683788E+03 -0.11613201421E+03  0.83180765903E+02  0.23346846801E+03  0.00000000000E+00 0. -1.
          2    1    1    2  501    0  0.10766867822E+02  0.75733931742E+02 -0.11271677264E+04  0.11297604336E+04  0.00000000000E+00 0. -1.
<scales pt_clust_3="45.97377" pt_clust_4="45.97377" pt_clust_5="210.41166" pt_clust_6="76.49545"></scales>
<clustering>
<clus scale="   45.974">  3  4 -1 -1</clus>
<clus scale="   76.495">  2  6  1 -1</clus>
<clus scale="  210.412">  1  5  2 -1</clus>
<clus scale="  210.412">  1  3  2 -1</clus>
</clustering>
</event>
<event>
 6    0  0.6525019E+002  0.9949154E+02  0.7546771E-02  0.1281369E+00
         21   -1    0    0  504  502  0.00000000000E+00  0.00000000000E+00  0.19908486932E+03  0.19908486932E+03  0.00000000000E+00 0. -1.
          2   -1    0    0  503    0 -0.00000000000E+00 -0.00000000000E+00 -0.13007245221E+04  0.13007245221E+04  0.00000000000E+00 0. -1.
         21    1    1    2  503  502  0.51542165383E+02  0.14113827754E+02 -0.62921891119E+03  0.63148415114E+03  0.00000000000E+00 0. -1.
         21    1    1    2  504  505  0.35233819366E+02 -0.26475337244E+02  0.17233581548E+03  0.17788197999E+03  0.00000000000E+00 0. -1.
         21    1    1    2  505  501 -0.99599972735E+02 -0.63636140424E+02 -0.15637389989E+03  0.19601660518E+03  0.00000000000E+00 0.  1.
          2    1    1    2  501    0  0.12823987986E+02  0.75997649915E+02 -0.48838265715E+03  0.49442665509E+03  0.00000000000E+00 0. -1.
<scales pt_clust_3="54.73941" pt_clust_4="44.07228" pt_clust_5="99.49154" pt_clust_6="14000.00000"></scales>
<clustering>
<clus scale="   44.072">  1  4  2 -1</clus>
<clus scale="   54.739">  2  3  1 -1</clus>
<clus scale="   99.492">  1  5  2 -1</clus>
<clus scale="   44.072">  1  3  2 -1</clus>
</clustering>
</event>
<event>
 6    0  0.6525019E+002  0.1565401E+03  0.7546771E-02  0.1192659E+00
         21   -1    0    0  504  502  0.00000000000E+00  0.00000000000E+00  0.36350976089E+03  0.36350976089E+03  0.00000000000E+00 0. -1.
          2   -1    0    0  505    0 -0.00000000000E+00 -0.00000000000E+00 -0.18463381048E+04  0.18463381048E+04  0.00000000000E+00 0. -1.
         21    1    1    2  503  501  0.19940357007E+03 -0.92482586254E+02 -0.13743525985E+01  0.21981060339E+03  0.00000000000E+00 0.  1.
         21    1    1    2  504  503 -0.12267821547E+03 -0.14248782782E+02  0.22882938366E+03  0.26003049665E+03  0.00000000000E+00 0. -1.
         21    1    1    2  505  502 -0.25682997406E+02  0.16462904564E+02 -0.19850756699E+02  0.36396375149E+02  0.00000000000E+00 0.  1.
          2    1    1    2  501    0 -0.51042357187E+02  0.90268464473E+02 -0.16904326183E+04  0.16936103905E+04  0.00000000000E+00 0. -1.
<scales pt_clust_3="14000.00000" pt_clust_4="156.54011" pt_clust_5="30.50645" pt_clust_6="103.82079"></scales>
<clustering>
<clus scale="   30.506">  1  5  2 -1</clus>
<clus scale="  103.821">  2  6  1 -1</clus>
<clus scale="  156.540">  1  4  2 -1</clus>
<clus scale="   30.506">  1  3  2 -1</clus>
</clustering>
</event>
<event>
 6    0  0.6525019E+002  0.8449785E+02  0.7546771E-02  0.1316751E+00
          3   -1    0    0  504    0 -0.00000000000E+00  0.00000000000E+00  0.19538668523E+03  0.19538668523E+03  0.00000000000E+00 0. -1.
         21   -1    0    0  505  502  0.00000000000E+00 -0.00000000000E+00 -0.22833027343E+03  0.22833027343E+03  0.00000000000E+00 0. -1.
         21    1    1    2  503  502 -0.84778298541E+02  0.59254271703E+02 -0.18880118695E+02  0.10514222511E+03  0.00000000000E+00 0. -1.
         21    1    1    2  504  503  0.41896068683E+02 -0.39928505812E+02  0.96244215945E+02  0.11230545512E+03  0.00000000000E+00 0. -1.
         21    1    1    2  505  501 -0.30165861503E+02 -0.14055009206E+02 -0.12688659154E+03  0.13117823599E+03  0.00000000000E+00 0. -1.
          3    1    1    2  501    0  0.73048091361E+02 -0.52707566853E+01  0.16578906093E+02  0.75091042440E+02  0.00000000000E+00 0. -1.
<scales pt_clust_3="84.49785" pt_clust_4="56.94875" pt_clust_5="33.27946" pt_clust_6="14000.00000"></scales>
<clustering>
<clus scale="   33.279">  2  5  1 -1</clus>
<clus scale="   56.949">  1  4  2 -1</clus>
<clus scale="   84.498">  1  3  2 -1</clus>
<clus scale="   33.279">  2  3  1 -1</clus>
</clustering>
</event>
<event>
 6    0  0.6525019E+002  0.9493246E+02  0.7546771E-02  0.1291328E+00
         -2   -1    0    0    0  501 -0.00000000000E+00  0.00000000000E+00  0.22410716476E+03  0.22410716476E+03  0.00000000000E+00 0.  1.
         21   -1    0    0  505  502  0.00000000000E+00 -0.00000000000E+00 -0.22621750467E+03  0.22621750467E+03  0.00000000000E+00 0. -1.
         21    1    1    2  503  501 -0.31173832506E+02  0.55764707256E+01  0.28413914968E+02  0.42547096525E+02  0.00000000000E+00 0.  1.
         21    1    1    2  504  502  0.67243106803E+02 -0.63348194783E+02 -0.14002477861E+03  0.16775448673E+03  0.00000000000E+00 0. -1.
         21    1    1    2  505  503 -0.30581419887E+02  0.11767099535E+03  0.77543859942E+01  0.12182699574E+03  0.00000000000E+00 0. -1.
         -2    1    1    2    0  504 -0.54878544098E+01 -0.59899271291E+02  0.10174613775E+03  0.11819609043E+03  0.00000000000E+00 0.  1.
<scales pt_clust_3="31.66867" pt_clust_4="94.93246" pt_clust_5="14000.00000" pt_clust_6="61.39157"></scales>
<clustering>
<clus scale="   31.669">  1  3  2 -1</clus>
<clus scale="   61.392">  1  6  2 -1</clus>
<clus scale="   94.932">  2  4  1 -1</clus>
<clus scale="   94.932">  2  3  1 -1</clus>
</clustering>
</event>
<event>
 6    0  0.6525019E+002  0.1359702E+03  0.7546771E-02  0.1218857E+00
         21   -1    0    0  503  502  0.00000000000E+00  0.00000000000E+00  0.23958944163E+03  0.23958944163E+03  0.00000000000E+00 0.  1.
         -3   -1    0    0    0  501 -0.00000000000E+00 -0.00000000000E+00 -0.15742192093E+04  0.15742192093E+04  0.00000000000E+00 0. -1.
         21    1    1    2  503  501 -0.11812509544E+03  0.15863645340E+03  0.10735825648E+03  0.22504412402E+03  0.00000000000E+00 0.  1.
         21    1    1    2  504  505  0.76677671462E+02 -0.56499206383E+02 -0.23730639096E+03  0.25570676333E+03  0.00000000000E+00 0.  1.
         21    1    1    2  505  502  0.18476863476E+02 -0.59934851801E+02  0.48296362909E+02  0.79158825247E+02  0.00000000000E+00 0.  1.
         -3    1    1    2    0  504  0.22970560506E+02 -0.42202395221E+02 -0.12529779961E+04  0.12538989383E+04  0.00000000000E+00 0. -1.
<scales pt_clust_3="135.97020" pt_clust_4="14000.00000" pt_clust_5="64.98547" pt_clust_6="48.04882"></scales>
<clustering>
<clus scale="   48.049">  2  6  1 -1</clus>
<clus scale="   64.985">  1  5  2 -1</clus>
<clus scale="  135.970">  1  3  2 -1</clus>
<clus scale="   64.985">  1  3  2 -1</clus>
</clustering>
</event>
<event>
 6    0  0.6525019E+002  0.7221559E+02  0.7546771E-02  0.1352717E+00
          2   -1    0    0  502    0 -0.00000000000E+00  0.00000000000E+00  0.80133825292E+03  0.80133825292E+03  0.00000000000E+00 0.  1.
         21   -1    0    0  503  502  0.00000000000E+00 -0.00000000000E+00 -0.15445702952E+04  0.15445702952E+04  0.00000000000E+00 0. -1.
         21    1    1    2  503  505 -0.66793630233E+02 -0.29340329577E+02 -0.14951808077E+04  0.14969595491E+04  0.00000000000E+00 0. -1.
         21    1    1    2  504  501  0.72053847469E+02 -0.23166254421E+02  0.17040713898E+03  0.18645917863E+03  0.00000000000E+00 0.  1.
         21    1    1    2  505  504  0.36417572600E+02  0.48430260619E+02 -0.16644850821E+02  0.62839325240E+02  0.00000000000E+00 0.  1.
          2    1    1    2  501    0 -0.41677789836E+02  0.40763233784E+01  0.59818647733E+03  0.59965049507E+03  0.00000000000E+00 0.  1.
<scales pt_clust_3="72.21559" pt_clust_4="40.37623" pt_clust_5="14000.00000" pt_clust_6="41.87666"></scales>
<clustering>
<clus scale="   41.877">  1  6  2 -1</clus>
<clus scale="   40.376">  1  4  2 -1</clus>
<clus scale="   72.216">  2  3  1 -1</clus>
<clus scale="   72.216">  2  3  1 -1</clus>
</clustering>
</event>
<event>
 6    0  0.6589741E+002  0.1533517E+03  0.7546771E-02  0.1196414E+00
         21   -1    0    0  503  502  0.00000000000E+00  0.00000000000E+00  0.30692675209E+03  0.30692675209E+03  0.00000000000E+00 0. -1.
          4   -1    0    0  505    0 -0.00000000000E+00 -0.00000000000E+00 -0.13096166389E+04  0.13096166389E+04  0.00000000000E+00 0. -1.
         21    1    1    2  503  504  0.50938155761E+02  0.14265355924E+02  0.16689651681E+03  0.17507896337E+03  0.00000000000E+00 0. -1.
         21    1    1    2  504  501  0.81747115759E+02  0.37921544930E+02  0.11217727850E+03  0.14389015365E+03  0.00000000000E+00 0. -1.
         21    1    1    2  505  502 -0.67926246219E+02 -0.13669881166E+02 -0.17454165671E+03  0.18779145482E+03  0.00000000000E+00 0.  1.
          4    1    1    2  501    0 -0.64759025300E+02 -0.38517019688E+02 -0.11072220254E+04  0.11097828192E+04  0.00000000000E+00 0. -1.
<scales pt_clust_3="45.52243" pt_clust_4="45.52243" pt_clust_5="69.28810" pt_clust_6="141.37359"></scales>
<clustering>
<clus scale="   45.522">  3  4 -1 -1</clus>
<clus scale="   69.288">  2  5  1 -1</clus>
<clus scale="  141.374">  2  6  1 -1</clus>
<clus scale="  153.352">  1  3  2 -1</clus>
</clustering>
</event>
<event>
 6    0  0.6525019E+002  0.1567507E+03  0.7546771E-02  0.1192415E+00
         21   -1    0    0  505  502  0.00000000000E+00  0.00000000000E+00  0.12441832025E+03  0.12441832025E+03  0.00000000000E+00 0. -1.
          1   -1    0    0  504    0 -0.00000000000E+00 -0.00000000000E+00 -0.19418223013E+04  0.19418223013E+04  0.00000000000E+00 0. -1.
         21    1    1    2  503  501 -0.16570156169E+03  0.10417712786E+03 -0.24270968906E+02  0.19722819638E+03  0.00000000000E+00 0. -1.
         21    1    1    2  504  502 -0.25497016441E+02  0.19397782678E+02 -0.58044425626E+02  0.66298771983E+02  0.00000000000E+00 0. -1.
         21    1    1    2  505  503  0.36452662593E+02 -0.10496256287E+03 -0.72139828047E+02  0.13247675647E+03  0.00000000000E+00 0. -1.
          1    1    1    2  501    0  0.15474591554E+03 -0.18612347664E+02 -0.16629487585E+04  0.16702368967E+04  0.00000000000E+00 0. -1.
<scales pt_clust_3="14000.00000" pt_clust_4="32.03704" pt_clust_5="104.51334" pt_clust_6="156.75067"></scales>
<clustering>
<clus scale="   32.037">  1  4  2 -1</clus>
<clus scale="  104.513">  1  5  2 -1</clus>
<clus scale="  156.751">  2  6  1 -1</clus>
<clus scale="   32.037">  1  3  2 -1</clus>
</clustering>
</event>
<event>
 6    0  0.6525019E+002  0.9423956E+02  0.7546771E-02  0.1292898E+00
          4   -1    0    0  503    0 -0.00000000000E+00  0.00000000000E+00  0.37949152868E+02  0.37949152868E+02  0.00000000000E+00 0. -1.
         21   -1    0    0  505  502  0.00000000000E+00 -0.00000000000E+00 -0.95803573820E+03  0.95803573820E+03  0.00000000000E+00 0. -1.
         21    1    1    2  503  504  0.39902677381E+02  0.34291069397E+02 -0.13597226739E+03  0.14579629146E+03  0.00000000000E+00 0.  1.
         21    1    1    2  504  502  0.90155148115E+02 -0.23433723239E+02 -0.64313331542E+03  0.64984425174E+03  0.00000000000E+00 0. -1.
         21    1    1    2  505  501 -0.10190050689E+03  0.30002400872E+01 -0.13369313538E+03  0.16812664629E+03  0.00000000000E+00 0. -1.
          4    1    1    2  501    0 -0.28157318611E+02 -0.13857586245E+02 -0.72878671382E+01  0.32217701583E+02  0.00000000000E+00 0. -1.
<scales pt_clust_3="46.78017" pt_clust_4="94.23956" pt_clust_5="14000.00000" pt_clust_6="31.38260"></scales>
<clustering>
<clus scale="   31.383">  1  6  2 -1</clus>
<clus scale="   46.780">  1  3  2 -1</clus>
<clus scale="   94.240">  2  4  1 -1</clus>
<clus scale="   94.240">  2  3  1 -1</clus>
</clustering>
</event>
<event>
 6    0  0.6525019E+002  0.1413721E+03  0.7546771E-02  0.1211494E+00
         21   -1    0    0  501  502  0.00000000000E+00  0.00000000000E+00  0.82741361697E+03  0.82741361697E+03  0.00000000000E+00 0. -1.
         -3   -1    0    0    0  501 -0.00000000000E+00 -0.00000000000E+00 -0.38175244396E+03  0.38175244396E+03  0.00000000000E+00 0.  1.
         21    1    1    2  503  505 -0.24455764060E+02  0.20887516601E+03  0.12341230526E+03  0.24383912004E+03  0.00000000000E+00 0. -1.
         21    1    1    2  504  503 -0.22091738912E+00 -0.89272854788E+02 -0.97453651741E+02  0.13216242145E+03  0.00000000000E+00 0. -1.
         21    1    1    2  505  502  0.14910549962E+02 -0.60665262969E+02  0.62051623287E+03  0.62365294346E+03  0.00000000000E+00 0. -1.
         -3    1    1    2    0  504  0.97661314870E+01 -0.58937048256E+02 -0.20081371339E+03  0.20951157597E+03  0.00000000000E+00 0.  1.
<scales pt_clust_3="141.37214" pt_clust_4="14000.00000" pt_clust_5="62.99981" pt_clust_6="59.74071"></scales>
<clustering>
<clus scale="   59.741">  2  6  1 -1</clus>
<clus scale="   63.000">  1  5  2 -1</clus>
<clus scale="  141.372">  1  3  2 -1</clus>
<clus scale="   63.000">  1  3  2 -1</clus>
</clustering>
</event>
<event>
 6    0  0.6525019E+002  0.8675061E+02  0.7546771E-02  0.1310917E+00
         21   -1    0    0  503  502  0.00000000000E+00  0.00000000000E+00  0.40048782698E+03  0.40048782698E+03  0.00000000000E+00 0. -1.
          2   -1    0    0  505    0 -0.00000000000E+00 -0.00000000000E+00 -0.88877629343E+03  0.88877629343E+03  0.00000000000E+00 0. -1.
         21    1    1    2  503  501 -0.77157740072E+02  0.86623372811E+02  0.74812676012E+02  0.13803572748E+03  0.00000000000E+00 0. -1.
         21    1    1    2  504  502  0.35570778152E+02  0.15328890503E+02  0.26734033603E+03  0.27013165384E+03  0.00000000000E+00 0. -1.
         21    1    1    2  505  504 -0.25006116706E+02 -0.47279883162E+02 -0.79127581483E+01  0.54067596267E+02  0.00000000000E+00 0.  1.
          2    1    1    2  501    0  0.66593078626E+02 -0.54672380152E+02 -0.82252872035E+03  0.82702914282E+03  0.00000000000E+00 0. -1.
<scales pt_clust_3="86.75061" pt_clust_4="38.73313" pt_clust_5="48.38624" pt_clust_6="14000.00000"></scales>
<clustering>
<clus scale="   38.733">  1  4  2 -1</clus>
<clus scale="   48.386">  1  5  2 -1</clus>
<clus scale="   86.751">  1  3  2 -1</clus>
<clus scale="   38.733">  1  3  2 -1</clus>
</clustering>
</event>
<event>
 6    0  0.6525019E+002  0.6978205E+02  0.7546771E-02  0.1360836E+00
          1   -1    0    0  503    0 -0.00000000000E+00  0.00000000000E+00  0.13471176887E+04  0.13471176887E+04  0.00000000000E+00 0. -1.
         21   -1    0    0  504  502  0.00000000000E+00 -0.00000000000E+00 -0.32630256280E+03  0.32630256280E+03  0.00000000000E+00 0. -1.
         21    1    1    2  503  502  0.21473995963E+02  0.55131695307E+02 -0.15245761258E+02  0.61098850778E+02  0.00000000000E+00 0. -1.
         21    1    1    2  504  505 -0.34492908780E+02 -0.10925383308E+03 -0.23763115992E+03  0.26380812907E+03  0.00000000000E+00 0. -1.
         21    1    1    2  505  501  0.60127246002E+02  0.15500199851E+01 -0.11624079292E+02  0.61260162366E+02  0.00000000000E+00 0. -1.
          1    1    1    2  501    0 -0.47108333185E+02  0.52572117788E+02  0.12853161264E+04  0.12872531093E+04  0.00000000000E+00 0. -1.
<scales pt_clust_3="59.16618" pt_clust_4="63.28626" pt_clust_5="69.78205" pt_clust_6="14000.00000"></scales>
<clustering>
<clus scale="   59.166">  2  3  1 -1</clus>
<clus scale="   63.286">  2  4  1 -1</clus>
<clus scale="   69.782">  2  5  1 -1</clus>
<clus scale="   59.166">  2  3  1 -1</clus>
</clustering>
</event>
<event>
 6    0  0.6525019E+002  0.1239511E+03  0.7546771E-02  0.1236718E+00
         21   -1    0    0  504  502  0.00000000000E+00  0.00000000000E+00  0.67533699856E+02  0.67533699856E+02  0.00000000000E+00 0. -1.
          1   -1    0    0  505    0 -0.00000000000E+00 -0.00000000000E+00 -0.30085344168E+04  0.30085344168E+04  0.00000000000E+00 0. -1.
         21    1    1    2  503  501  0.72379356303E+02  0.86682772436E+02 -0.29321917677E+03  0.31421355776E+03  0.00000000000E+00 0.  1.
         21    1    1    2  504  503 -0.44780552715E+02 -0.11277451058E+03 -0.10575367636E+03  0.16095722476E+03  0.00000000000E+00 0. -1.
         21    1    1    2  505  502  0.11804928343E+02 -0.30800085432E+02  0.19577527225E+02  0.38357283116E+02  0.00000000000E+00 0. -1.
          1    1    1    2  501    0 -0.39403731931E+02  0.56891823576E+02 -0.25616053910E+04  0.25625400510E+04  0.00000000000E+00 0. -1.
<scales pt_clust_3="14000.00000" pt_clust_4="123.95109" pt_clust_5="32.98487" pt_clust_6="68.81681"></scales>
<clustering>
<clus scale="   32.985">  1  5  2 -1</clus>
<clus scale="   68.817">  2  6  1 -1</clus>
<clus scale="  123.951">  1  4  2 -1</clus>
<clus scale="   32.985">  1  3  2 -1</clus>
</clustering>
</event>
<event>
 6    0  0.6525019E+002  0.1176594E+03  0.7546771E-02  0.1247009E+00
         21   -1    0    0  505  502  0.00000000000E+00  0.00000000000E+00  0.32045788106E+03  0.32045788106E+03  0.00000000000E+00 0. -1.
          1   -1    0    0  504    0 -0.00000000000E+00 -0.00000000000E+00 -0.14383757119E+03  0.14383757119E+03  0.00000000000E+00 0. -1.
         21    1    1    2  503  501 -0.81964815598E+02 -0.59615049646E+02  0.91218889211E+02  0.13635641125E+03  0.00000000000E+00 0. -1.
         21    1    1    2  504  502  0.11997944589E+03  0.37791536461E+02  0.11723617856E+02  0.12633570707E+03  0.00000000000E+00 0. -1.
         21    1    1    2  505  503 -0.32055129410E+02 -0.26690768687E+02  0.12437337538E+03  0.13118180117E+03  0.00000000000E+00 0. -1.
          1    1    1    2  501    0 -0.59595008841E+01  0.48514281872E+02 -0.50695572586E+02  0.70421532759E+02  0.00000000000E+00 0. -1.
<scales pt_clust_3="117.65943" pt_clust_4="14000.00000" pt_clust_5="41.71245" pt_clust_6="47.75669"></scales>
<clustering>
<clus scale="   41.712">  1  5  2 -1</clus>
<clus scale="   47.757">  2  6  1 -1</clus>
<clus scale="  117.659">  1  3  2 -1</clus>
<clus scale="   41.712">  1  3  2 -1</clus>
</clustering>
</event>
<event>
 6    0  0.6525019E+002  0.1205084E+03  0.7546771E-02  0.1242261E+00
         -1   -1    0    0    0  501 -0.00000000000E+00  0.00000000000E+00  0.37612582598E+03  0.37612582598E+03  0.00000000000E+00 0.  1.
         21   -1    0    0  503  502  0.00000000000E+00 -0.00000000000E+00 -0.62099912157E+03  0.62099912157E+03  0.00000000000E+00 0.  1.
         21    1    1    2  503  501  0.69129183969E+02 -0.11689203331E+03 -0.40892542616E+03  0.43088582675E+03  0.00000000000E+00 0.  1.
         21    1    1    2  504  505  0.58452459003E+01  0.35497784360E+02 -0.67982143161E+02  0.76914441966E+02  0.00000000000E+00 0.  1.
         21    1    1    2  505  502  0.26050800564E+02  0.15762849010E+02 -0.11657505058E+03  0.12048590805E+03  0.00000000000E+00 0.  1.
         -1    1    1    2    0  504 -0.10102523043E+03  0.65631399937E+02  0.34860932432E+03  0.36883877080E+03  0.00000000000E+00 0.  1.
<scales pt_clust_3="120.50840" pt_clust_4="38.97179" pt_clust_5="30.44851" pt_clust_6="14000.00000"></scales>
<clustering>
<clus scale="   30.449">  2  5  1 -1</clus>
<clus scale="   38.972">  2  4  1 -1</clus>
<clus scale="  120.508">  2  3  1 -1</clus>
<clus scale="   30.449">  2  3  1 -1</clus>
</clustering>
</event>
<event>
 6    0  0.6525019E+002  0.1199562E+03  0.7546771E-02  0.1243169E+00
          2   -1    0    0  504    0 -0.00000000000E+00  0.00000000000E+00  0.78475651744E+03  0.78475651744E+03  0.00000000000E+00 0. -1.
         21   -1    0    0  503  502  0.00000000000E+00 -0.00000000000E+00 -0.44842464793E+03  0.44842464793E+03  0.00000000000E+00 0. -1.
         21    1    1    2  503  505 -0.33213758732E+01  0.70588168033E+02 -0.37559049383E+03  0.38218050717E+03  0.00000000000E+00 0. -1.
         21    1    1    2  504  502 -0.37839040655E+02 -0.17098494976E+03  0.54367174752E+02  0.18336694286E+03  0.00000000000E+00 0. -1.
         21    1    1    2  505  501  0.35680384063E+01  0.59977106864E+02  0.31919912210E+03  0.32480465483E+03  0.00000000000E+00 0. -1.
          2    1    1    2  501    0  0.37592378122E+02  0.40419674863E+02  0.33835606648E+03  0.34282906052E+03  0.00000000000E+00 0. -1.
<scales pt_clust_3="70.66626" pt_clust_4="113.16899" pt_clust_5="38.12661" pt_clust_6="38.12661"></scales>
<clustering>
<clus scale="   38.127">  5  6 -1 -1</clus>
<clus scale="   70.666">  2  3  1 -1</clus>
<clus scale="  113.169">  2  4  1 -1</clus>
<clus scale="   70.666">  2  3  1 -1</clus>
</clustering>
</event>
<event>
 6    0  0.6525019E+002  0.8244568E+02  0.7546771E-02  0.1322251E+00
         21   -1    0    0  503  502  0.00000000000E+00  0.00000000000E+00  0.34324681457E+03  0.34324681457E+03  0.00000000000E+00 0. -1.
          2   -1    0    0  505    0 -0.00000000000E+00 -0.00000000000E+00 -0.80131615634E+03  0.80131615634E+03  0.00000000000E+00 0.  1.
         21    1    1    2  503  504  0.13261207291E+03  0.15844390277E+02  0.45188587083E+02  0.14099296078E+03  0.00000000000E+00 0. -1.
         21    1    1    2  504  501 -0.72836529346E+02 -0.29971417466E+02 -0.17265592627E+03  0.18977227076E+03  0.00000000000E+00 0.  1.
         21    1    1    2  505  502 -0.67683068099E+02 -0.36439438225E+02  0.23429721828E+03  0.24658470524E+03  0.00000000000E+00 0. -1.
          2    1    1    2  501    0  0.79075245297E+01  0.50566465415E+02 -0.56489922086E+03  0.56721303414E+03  0.00000000000E+00 0.  1.
<scales pt_clust_3="14000.00000" pt_clust_4="67.34677" pt_clust_5="82.44568" pt_clust_6="51.18102"></scales>
<clustering>
<clus scale="   51.181">  2  6  1 -1</clus>
<clus scale="   67.347">  2  4  1 -1</clus>
<clus scale="   82.446">  1  5  2 -1</clus>
<clus scale="   82.446">  1  3  2 -1</clus>
</clustering>
</event>
<event>
 6    0  0.6525019E+002  0.2377385E+03  0.7546771E-02  0.1121309E+00
          2   -1    0    0  503    0 -0.00000000000E+00  0.00000000000E+00  0.22853935227E+03  0.22853935227E+03  0.00000000000E+00 0.  1.
         21   -1    0    0  504  502  0.00000000000E+00 -0.00000000000E+00 -0.19512734783E+04  0.19512734783E+04  0.00000000000E+00 0. -1.
         21    1    1    2  503  502 -0.43975926868E+02  0.15680171448E+02 -0.10950355273E+03  0.11904107687E+03  0.00000000000E+00 0. -1.
         21    1    1    2  504  505  0.12855278590E+03 -0.20824175587E+03 -0.16979376369E+04  0.17154832166E+04  0.00000000000E+00 0. -1.
         21    1    1    2  505  501 -0.10034587701E+03  0.15491063153E+03 -0.60671844264E+02  0.19428759991E+03  0.00000000000E+00 0.  1.
          2    1    1    2  501    0  0.15769017984E+02  0.37650952896E+02  0.14537890786E+03  0.15100093719E+03  0.00000000000E+00 0.  1.
<scales pt_clust_3="46.61956" pt_clust_4="237.73847" pt_clust_5="14000.00000" pt_clust_6="40.81980"></scales>
<clustering>
<clus scale="   40.820">  1  6  2 -1</clus>
<clus scale="   46.620">  1  3  2 -1</clus>
<clus scale="  237.738">  2  4  1 -1</clus>
<clus scale="  237.738">  2  3  1 -1</clus>
</clustering>
</event>
<event>
 6    0  0.6525019E+002  0.9062424E+02  0.7546771E-02  0.1301347E+00
         21   -1    0    0  505  502  0.00000000000E+00  0.00000000000E+00  0.96568925932E+02  0.96568925932E+02  0.00000000000E+00 0.  1.
          2   -1    0    0  503    0 -0.00000000000E+00 -0.00000000000E+00 -0.15112247529E+04  0.15112247529E+04  0.00000000000E+00 0. -1.
         21    1    1    2  503  502  0.23392523192E+02  0.41451198981E+02 -0.93777328027E+02  0.10516462946E+03  0.00000000000E+00 0.  1.
         21    1    1    2  504  501 -0.11764825131E+03 -0.35400918904E+02 -0.29388475084E+03  0.31853191814E+03  0.00000000000E+00 0.  1.
         21    1    1    2  505  504  0.73658009032E+02 -0.54732973960E+02  0.50879688079E+02  0.10492827737E+03  0.00000000000E+00 0.  1.
          2    1    1    2  501    0  0.20597719090E+02  0.48682693882E+02 -0.10778734361E+04  0.10791688538E+04  0.00000000000E+00 0. -1.
<scales pt_clust_3="47.59634" pt_clust_4="14000.00000" pt_clust_5="90.62424" pt_clust_6="89.08371"></scales>
<clustering>
<clus scale="   47.596">  2  3  1 -1</clus>
<clus scale="   89.084">  2  6  1 -1</clus>
<clus scale="   90.624">  1  5  2 -1</clus>
<clus scale="   90.624">  1  3  2 -1</clus>
</clustering>
</event>
<event>
 6    0  0.6525019E+002  0.8244214E+02  0.7546771E-02  0.1322260E+00
         21   -1    0    0  505  502  0.00000000000E+00  0.00000000000E+00  0.14360934958E+04  0.14360934958E+04  0.00000000000E+00 0. -1.
         -2   -1    0    0    0  501 -0.00000000000E+00 -0.00000000000E+00 -0.58781460329E+03  0.58781460329E+03  0.00000000000E+00 0. -1.
         21    1    1    2  503  501 -0.26131940064E+02  0.46017034907E+02  0.43947649639E+02  0.68788383481E+02  0.00000000000E+00 0.  1.
         21    1    1    2  504  502  0.91803325461E+02 -0.33553275778E+02 -0.11410080645E+03  0.15024202779E+03  0.00000000000E+00 0.  1.
         21    1    1    2  505  503 -0.70489292170E+02 -0.43143692821E+02  0.13598548012E+04  0.13623638276E+04  0.00000000000E+00 0. -1.
         -2    1    1    2    0  504  0.48179067730E+01  0.30679933692E+02 -0.44142275189E+03  0.44251386017E+03  0.00000000000E+00 0. -1.
<scales pt_clust_3="55.01324" pt_clust_4="82.44214" pt_clust_5="14000.00000" pt_clust_6="31.05593"></scales>
<clustering>
<clus scale="   31.056">  2  6  1 -1</clus>
<clus scale="   55.013">  2  3  1 -1</clus>
<clus scale="   82.442">  2  4  1 -1</clus>
<clus scale="   82.442">  1  3  2 -1</clus>
</clustering>
</event>
<event>
 6    0  0.6525019E+002  0.1003141E+03  0.7546771E-02  0.1279637E+00
         21   -1    0    0  504  502  0.00000000000E+00  0.00000000000E+00  0.11022757742E+03  0.11022757742E+03  0.00000000000E+00 0. -1.
          1   -1    0    0  503    0 -0.00000000000E+00 -0.00000000000E+00 -0.75807242690E+03  0.75807242690E+03  0.00000000000E+00 0.  1.
         21    1    1    2  503  502 -0.77703049600E+02 -0.27549400001E+02  0.68985459829E+01  0.82730425445E+02  0.00000000000E+00 0. -1.
         21    1    1    2  504  505 -0.43997740626E+01 -0.36304728418E+02  0.34685811172E+01  0.36734484783E+02  0.00000000000E+00 0. -1.
         21    1    1    2  505  501  0.11080505059E+03  0.49897478739E+02 -0.37319696951E+02  0.12712307974E+03  0.00000000000E+00 0. -1.
          1    1    1    2  501    0 -0.28702226930E+02  0.13956649680E+02 -0.62089227963E+03  0.62171201436E+03  0.00000000000E+00 0.  1.
<scales pt_clust_3="14000.00000" pt_clust_4="35.49551" pt_clust_5="100.31415" pt_clust_6="31.91561"></scales>
<clustering>
<clus scale="   31.916">  2  6  1 -1</clus>
<clus scale="   35.496">  1  4  2 -1</clus>
<clus scale="  100.314">  2  5  1 -1</clus>
<clus scale="   35.496">  1  3  2 -1</clus>
</clustering>
</event>
<event>
 6    0  0.6525019E+002  0.7518734E+02  0.7546771E-02  0.1343292E+00
          2   -1    0    0  504    0 -0.00000000000E+00  0.00000000000E+00  0.13364801487E+04  0.13364801487E+04  0.00000000000E+00 0.  1.
         21   -1    0    0  505  502  0.00000000000E+00 -0.00000000000E+00 -0.99909410652E+03  0.99909410652E+03  0.00000000000E+00 0.  1.
         21    1    1    2  503  501 -0.10988105064E+02 -0.31998125815E+02  0.12124584849E+02  0.35939171754E+02  0.00000000000E+00 0.  1.
         21    1    1    2  504  502  0.10108401982E+03  0.65830542629E+02 -0.83292392780E+02  0.14659216248E+03  0.00000000000E+00 0.  1.
         21    1    1    2  505  503 -0.59250672100E+02 -0.42641664641E+02 -0.87051571782E+03  0.87357115833E+03  0.00000000000E+00 0.  1.
          2    1    1    2  501    0 -0.30845242652E+02  0.88092478271E+01  0.12790695679E+04  0.12794717627E+04  0.00000000000E+00 0.  1.
<scales pt_clust_3="37.06925" pt_clust_4="75.18734" pt_clust_5="14000.00000" pt_clust_6="32.07853"></scales>
<clustering>
<clus scale="   32.079">  1  6  2 -1</clus>
<clus scale="   37.069">  1  3  2 -1</clus>
<clus scale="   75.187">  1  4  2 -1</clus>
<clus scale="   75.187">  2  3  1 -1</clus>
</clustering>
</event>
<event>
 6    0  0.6525019E+002  0.8225702E+02  0.7546771E-02  0.1322766E+00
          2   -1    0    0  502    0 -0.00000000000E+00  0.00000000000E+00  0.16882833435E+03  0.16882833435E+03  0.00000000000E+00 0. -1.
         21   -1    0    0  503  502  0.00000000000E+00 -0.00000000000E+00 -0.14196262503E+04  0.14196262503E+04  0.00000000000E+00 0.  1.
         21    1    1    2  503  504  0.61119260403E+02 -0.50723164536E+02 -0.10667886442E+04  0.10697412840E+04  0.00000000000E+00 0.  1.
         21    1    1    2  504  505 -0.13203816499E+03  0.13829879786E+02 -0.25692009625E+03  0.28919418813E+03  0.00000000000E+00 0. -1.
         21    1    1    2  505  501  0.40686421456E+02  0.40280919930E+02 -0.65967494436E+02  0.87347854716E+02  0.00000000000E+00 0. -1.
          2    1    1    2  501    0  0.30232483135E+02 -0.33876351796E+01  0.13887831886E+03  0.14217125784E+03  0.00000000000E+00 0. -1.
<scales pt_clust_3="82.25702" pt_clust_4="14000.00000" pt_clust_5="65.08501" pt_clust_6="30.42169"></scales>
<clustering>
<clus scale="   30.422">  1  6  2 -1</clus>
<clus scale="   65.085">  1  5  2 -1</clus>
<clus scale="   82.257">  2  3  1 -1</clus>
<clus scale="   82.257">  2  3  1 -1</clus>
</clustering>
</event>
<event>
 6    0  0.6525019E+002  0.1463025E+03  0.7546771E-02  0.1205092E+00
         -2   -1    0    0    0  501 -0.00000000000E+00  0.00000000000E+00  0.24028617596E+03  0.24028617596E+03  0.00000000000E+00 0.  1.
         21   -1    0    0  501  502  0.00000000000E+00 -0.00000000000E+00 -0.22418407640E+03  0.22418407640E+03  0.00000000000E+00 0.  1.
         21    1    1    2  503  504 -0.72532313700E+02 -0.25522320961E+02 -0.73609843117E+02  0.10644592243E+03  0.00000000000E+00 0.  1.
         21    1    1    2  504  502 -0.45242581342E+02 -0.56859726648E+02 -0.79907641031E+02  0.10800532754E+03  0.00000000000E+00 0.  1.
         21    1    1    2  505  503  0.89528707906E+02  0.93095358726E+02  0.72085723138E+02  0.14791378177E+03  0.00000000000E+00 0.  1.
         -2    1    1    2    0  505  0.28246187135E+02 -0.10713311116E+02  0.97533860573E+02  0.10210522064E+03  0.00000000000E+00 0.  1.
<scales pt_clust_3="41.30739" pt_clust_4="41.30739" pt_clust_5="140.14428" pt_clust_6="30.20964"></scales>
<clustering>
<clus scale="   30.210">  1  6  2 -1</clus>
<clus scale="   41.307">  3  4 -1 -1</clus>
<clus scale="  140.144">  1  5  2 -1</clus>
<clus scale="  146.302">  2  3  1 -1</clus>
</clustering>
</event>
<event>
 6    0  0.6525019E+002  0.2560165E+03  0.7546771E-02  0.1109561E+00
         21   -1    0    0  503  502  0.00000000000E+00  0.00000000000E+00  0.51359097506E+03  0.51359097506E+03  0.00000000000E+00 0.  1.
          2   -1    0    0  504    0 -0.00000000000E+00 -0.00000000000E+00 -0.46839180696E+03  0.46839180696E+03  0.00000000000E+00 0. -1.
         21    1    1    2  503  505  0.17659313871E+02 -0.25149607802E+02  0.15531832209E+03  0.15832919919E+03  0.00000000000E+00 0.  1.
         21    1    1    2  504  502 -0.14027585685E+03 -0.79828165656E+01 -0.27899647734E+02  0.14324605307E+03  0.00000000000E+00 0.  1.
         21    1    1    2  505  501  0.26635944371E+03 -0.28952433280E+01  0.21891279812E+03  0.34478768665E+03  0.00000000000E+00 0.  1.
          2    1    1    2  501    0 -0.14374290072E+03  0.36027667696E+02 -0.30113230438E+03  0.33561984311E+03  0.00000000000E+00 0. -1.
<scales pt_clust_3="30.73035" pt_clust_4="137.94830" pt_clust_5="14000.00000" pt_clust_6="256.01647"></scales>
<clustering>
<clus scale="   30.730">  1  3  2 -1</clus>
<clus scale="  137.948">  2  4  1 -1</clus>
<clus scale="  256.016">  2  6  1 -1</clus>
<clus scale="   30.730">  1  3  2 -1</clus>
</clustering>
</event>
<event>
 6    0  0.6525019E+002  0.9468373E+02  0.7546771E-02  0.1291890E+00
          2   -1    0    0  504    0 -0.00000000000E+00  0.00000000000E+00  0.89149265149E+03  0.89149265149E+03  0.00000000000E+00 0. -1.
         21   -1    0    0  501  502  0.00000000000E+00 -0.00000000000E+00 -0.58250030520E+03  0.58250030520E+03  0.00000000000E+00 0. -1.
         21    1    1    2  503  505 -0.67793034631E+02  0.61421144201E+02  0.82667964655E+02  0.12329819496E+03  0.00000000000E+00 0. -1.
         21    1    1    2  504  503  0.25249939885E+02 -0.44710447361E+02  0.48268660515E+02  0.70473024310E+02  0.00000000000E+00 0. -1.
         21    1    1    2  505  502  0.22451745143E+02 -0.92749846051E+02 -0.54480272462E+03  0.55309730026E+03  0.00000000000E+00 0. -1.
          2    1    1    2  501    0  0.20091349602E+02  0.76039149211E+02  0.72285844574E+03  0.72712443716E+03  0.00000000000E+00 0. -1.
<scales pt_clust_3="94.68373" pt_clust_4="51.34767" pt_clust_5="14000.00000" pt_clust_6="56.09724"></scales>
<clustering>
<clus scale="   51.348">  1  4  2 -1</clus>
<clus scale="   56.097">  1  6  2 -1</clus>
<clus scale="   94.684">  1  3  2 -1</clus>
<clus scale="   94.684">  2  3  1 -1</clus>
</clustering>
</event>
<event>
 6    0  0.6525019E+002  0.9529255E+02  0.7546771E-02  0.1290519E+00
         21   -1    0    0  504  502  0.00000000000E+00  0.00000000000E+00  0.49583648397E+02  0.49583648397E+02  0.00000000000E+00 0.  1.
          2   -1    0    0  503    0 -0.00000000000E+00 -0.00000000000E+00 -0.17776174579E+04  0.17776174579E+04  0.00000000000E+00 0.  1.
         21    1    1    2  503  502  0.69699234815E+02 -0.27993536284E+02 -0.17646492950E+03  0.19178501701E+03  0.00000000000E+00 0.  1.
         21    1    1    2  504  505 -0.19317371471E+01  0.85894252620E+02 -0.52306193757E+01  0.86075046446E+02  0.00000000000E+00 0.  1.
         21    1    1    2  505  501 -0.26695709208E+02 -0.33798183044E+02 -0.47620284784E+03  0.47814655741E+03  0.00000000000E+00 0.  1.
          2    1    1    2  501    0 -0.41071788460E+02 -0.24102533292E+02 -0.10701354128E+04  0.10711944855E+04  0.00000000000E+00 0.  1.
<scales pt_clust_3="75.11073" pt_clust_4="87.92011" pt_clust_5="34.95149" pt_clust_6="34.95149"></scales>
<clustering>
<clus scale="   34.951">  5  6 -1 -1</clus>
<clus scale="   75.111">  1  3  2 -1</clus>
<clus scale="   87.920">  1  4  2 -1</clus>
<clus scale="   75.111">  1  3  2 -1</clus>
</clustering>
</event>
<event>
 6    0  0.6525019E+002  0.1151445E+03  0.7546771E-02  0.1251329E+00
         -4   -1    0    0    0  501 -0.00000000000E+00  0.00000000000E+00  0.33335822677E+02  0.33335822677E+02  0.00000000000E+00 0.  1.
         21   -1    0    0  503  502  0.00000000000E+00 -0.00000000000E+00 -0.20949210624E+04  0.20949210624E+04  0.00000000000E+00 0.  1.
         21    1    1    2  503  501  0.12033041930E+03  0.28174980033E+01 -0.13882082376E+04  0.13934164700E+04  0.00000000000E+00 0.  1.
         21    1    1    2  504  505 -0.41385340821E+02 -0.20793321698E+02 -0.28527402873E+03  0.28900930803E+03  0.00000000000E+00 0.  1.
         21    1    1    2  505  502 -0.46604851528E+02  0.21237556662E+02 -0.40566539880E+03  0.40888563411E+03  0.00000000000E+00 0.  1.
         -4    1    1    2    0  504 -0.32340226955E+02 -0.32617329669E+01  0.17562425387E+02  0.36945472888E+02  0.00000000000E+00 0.  1.
<scales pt_clust_3="106.49257" pt_clust_4="42.63744" pt_clust_5="42.63744" pt_clust_6="32.50429"></scales>
<clustering>
<clus scale="   32.504">  1  6  2 -1</clus>
<clus scale="   42.637">  4  5 -1 -1</clus>
<clus scale="  106.493">  2  3  1 -1</clus>
<clus scale="  106.493">  2  3  1 -1</clus>
</clustering>
</event>
<event>
 6    0  0.6525019E+002  0.1053026E+03  0.7546771E-02  0.1269524E+00
         21   -1    0    0  505  502  0.00000000000E+00  0.00000000000E+00  0.36216188201E+03  0.36216188201E+03  0.00000000000E+00 0.  1.
         -1   -1    0    0    0  501 -0.00000000000E+00 -0.00000000000E+00 -0.27387744434E+03  0.27387744434E+03  0.00000000000E+00 0.  1.
         21    1    1    2  503  502 -0.60055860378E+02  0.92882268240E+02  0.31114699108E+03  0.33022155014E+03  0.00000000000E+00 0.  1.
         21    1    1    2  504  501 -0.14585279898E+02 -0.36193643742E+02 -0.12433328669E+03  0.13031299404E+03  0.00000000000E+00 0.  1.
         21    1    1    2  505  504  0.25394466106E+02 -0.42164696822E+02  0.14540101683E+02  0.51324020925E+02  0.00000000000E+00 0.  1.
         -1    1    1    2    0  503  0.49246674169E+02 -0.14523927675E+02 -0.11306936840E+03  0.12418076124E+03  0.00000000000E+00 0.  1.
<scales pt_clust_3="105.30265" pt_clust_4="39.02192" pt_clust_5="52.31439" pt_clust_6="14000.00000"></scales>
<clustering>
<clus scale="   39.022">  2  4  1 -1</clus>
<clus scale="   52.314">  2  5  1 -1</clus>
<clus scale="  105.303">  1  3  2 -1</clus>
<clus scale="  105.303">  1  3  2 -1</clus>
</clustering>
</event>
<event>
 6    0  0.6525019E+002  0.1173063E+03  0.7546771E-02  0.1247608E+00
         21   -1    0    0  503  502  0.00000000000E+00  0.00000000000E+00  0.35065164971E+03  0.35065164971E+03  0.00000000000E+00 0. -1.
         -2   -1    0    0    0  501 -0.00000000000E+00 -0.00000000000E+00 -0.11768253616E+04  0.11768253616E+04  0.00000000000E+00 0.  1.
         21    1    1    2  503  505  0.38966187273E+02  0.89446914959E+02  0.28338378204E+03  0.29970899598E+03  0.00000000000E+00 0. -1.
         21    1    1    2  504  502 -0.23809709214E+02  0.29364731802E+02 -0.18522073862E+02  0.42098182227E+02  0.00000000000E+00 0. -1.
         21    1    1    2  505  501  0.28938125840E+02 -0.12690861344E+03 -0.43598030481E+02  0.13727344810E+03  0.00000000000E+00 0. -1.
         -2    1    1    2    0  504 -0.44094603899E+02  0.80969666753E+01 -0.10474373896E+04  0.10483963850E+04  0.00000000000E+00 0.  1.
<scales pt_clust_3="14000.00000" pt_clust_4="37.80463" pt_clust_5="117.30632" pt_clust_6="44.87251"></scales>
<clustering>
<clus scale="   37.805">  1  4  2 -1</clus>
<clus scale="   44.873">  2  6  1 -1</clus>
<clus scale="  117.306">  2  5  1 -1</clus>
<clus scale="   37.805">  1  3  2 -1</clus>
</clustering>
</event>
<event>
 6    0  0.6525019E+002  0.7939866E+02  0.7546771E-02  0.1330767E+00
          2   -1    0    0  503    0 -0.00000000000E+00  0.00000000000E+00  0.83598842056E+02  0.83598842056E+02  0.00000000000E+00 0. -1.
         21   -1    0    0  505  502  0.00000000000E+00 -0.00000000000E+00 -0.17795399735E+04  0.17795399735E+04  0.00000000000E+00 0.  1.
         21    1    1    2  503  502  0.70474453668E+02  0.33355883568E+02 -0.17356694335E+03  0.19027545142E+03  0.00000000000E+00 0. -1.
         21    1    1    2  504  501 -0.81126994695E+02 -0.18931054930E+02 -0.26999819488E+03  0.28255795750E+03  0.00000000000E+00 0. -1.
         21    1    1    2  505  504 -0.43093230278E+02  0.16078589957E+02 -0.13070102064E+04  0.13078192640E+04  0.00000000000E+00 0.  1.
          2    1    1    2  501    0  0.53745771305E+02 -0.30503418594E+02  0.54634213201E+02  0.82486142662E+02  0.00000000000E+00 0. -1.
<scales pt_clust_3="79.39866" pt_clust_4="14000.00000" pt_clust_5="45.99508" pt_clust_6="60.45943"></scales>
<clustering>
<clus scale="   45.995">  2  5  1 -1</clus>
<clus scale="   60.459">  1  6  2 -1</clus>
<clus scale="   79.399">  2  3  1 -1</clus>
<clus scale="   45.995">  2  3  1 -1</clus>
</clustering>
</event>
<event>
 6    0  0.6525019E+002  0.1858328E+03  0.7546771E-02  0.1162274E+00
          2   -1    0    0  505    0 -0.00000000000E+00  0.00000000000E+00  0.17957877620E+04  0.17957877620E+04  0.00000000000E+00 0. -1.
         21   -1    0    0  504  502  0.00000000000E+00 -0.00000000000E+00 -0.80690330630E+02  0.80690330630E+02  0.00000000000E+00 0.  1.
         21    1    1    2  503  501  0.41255152904E+02  0.14331582207E+03  0.27941173075E+03  0.31672121460E+03  0.00000000000E+00 0.  1.
         21    1    1    2  504  503  0.18581510884E+02  0.80769076761E+02 -0.14656420508E+02  0.84164879669E+02  0.00000000000E+00 0.  1.
         21    1    1    2  505  502 -0.17022364484E+02 -0.28896901691E+02  0.45048087548E+02  0.56161570595E+02  0.00000000000E+00 0. -1.
          2    1    1    2  501    0 -0.42814299305E+02 -0.19518799714E+03  0.14052940336E+04  0.14194304277E+04  0.00000000000E+00 0. -1.
<scales pt_clust_3="14000.00000" pt_clust_4="62.20556" pt_clust_5="33.53792" pt_clust_6="185.83284"></scales>
<clustering>
<clus scale="   33.538">  2  5  1 -1</clus>
<clus scale="   62.206">  2  4  1 -1</clus>
<clus scale="  185.833">  1  6  2 -1</clus>
<clus scale="   33.538">  2  3  1 -1</clus>
</clustering>
</event>
<event>
 6    0  0.6525019E+002  0.7557628E+02  0.7546771E-02  0.1342096E+00
          3   -1    0    0  502    0 -0.00000000000E+00  0.00000000000E+00  0.26735018393E+03  0.26735018393E+03  0.00000000000E+00 0. -1.
         21   -1    0    0  505  502  0.00000000000E+00 -0.00000000000E+00 -0.23784372050E+03  0.23784372050E+03  0.00000000000E+00 0. -1.
         21    1    1    2  503  504  0.72369007380E+01  0.63194846584E+02 -0.31201356845E+02  0.70848331215E+02  0.00000000000E+00 0. -1.
         21    1    1    2  504  501  0.57743574754E+02 -0.69750496258E+02  0.25168776044E+02  0.93983612620E+02  0.00000000000E+00 0. -1.
         21    1    1    2  505  503 -0.28635677094E+02  0.39884746494E+02 -0.14506368465E+03  0.15314786192E+03  0.00000000000E+00 0. -1.
          3    1    1    2  501    0 -0.36344798398E+02 -0.33329096820E+02  0.18060272888E+03  0.18721409868E+03  0.00000000000E+00 0. -1.
<scales pt_clust_3="75.57628" pt_clust_4="14000.00000" pt_clust_5="49.09985" pt_clust_6="49.12860"></scales>
<clustering>
<clus scale="   49.100">  2  5  1 -1</clus>
<clus scale="   49.129">  1  6  2 -1</clus>
<clus scale="   75.576">  2  3  1 -1</clus>
<clus scale="   49.100">  2  3  1 -1</clus>
</clustering>
</event>
<event>
 6    0  0.6525019E+002  0.1454882E+03  0.7546771E-02  0.1206129E+00
          2   -1    0    0  503    0 -0.00000000000E+00  0.00000000000E+00  0.15123469622E+04  0.15123469622E+04  0.00000000000E+00 0. -1.
         21   -1    0    0  504  502  0.00000000000E+00 -0.00000000000E+00 -0.45176777034E+02  0.45176777034E+02  0.00000000000E+00 0.  1.
         21    1    1    2  503  505 -0.12670803324E+03 -0.40019266335E+02  0.43580707555E+03  0.45561417281E+03  0.00000000000E+00 0. -1.
         21    1    1    2  504  501  0.17841393246E+03 -0.34555978329E+02  0.27269122444E+03  0.32769826185E+03  0.00000000000E+00 0.  1.
         21    1    1    2  505  502 -0.39936455360E+02  0.23274886071E+02  0.72228927080E+02  0.85753476288E+02  0.00000000000E+00 0.  1.
          2    1    1    2  501    0 -0.11769443861E+02  0.51300358593E+02  0.68644295809E+03  0.68845782827E+03  0.00000000000E+00 0. -1.
<scales pt_clust_3="145.48823" pt_clust_4="14000.00000" pt_clust_5="46.22381" pt_clust_6="53.46958"></scales>
<clustering>
<clus scale="   46.224">  2  5  1 -1</clus>
<clus scale="   53.470">  1  6  2 -1</clus>
<clus scale="  145.488">  1  3  2 -1</clus>
<clus scale="   46.224">  2  3  1 -1</clus>
</clustering>
</event>
<event>
 6    0  0.6525019E+002  0.1050387E+03  0.7546771E-02  0.1270043E+00
         21   -1    0    0  503  502  0.00000000000E+00  0.00000000000E+00  0.16565111744E+04  0.16565111744E+04  0.00000000000E+00 0. -1.
          1   -1    0    0  505    0 -0.00000000000E+00 -0.00000000000E+00 -0.70939940926E+03  0.70939940926E+03  0.00000000000E+00 0.  1.
         21    1    1    2  503  504 -0.15951194085E+02  0.62630697589E+02  0.15024882364E+04  0.15038776364E+04  0.00000000000E+00 0. -1.
         21    1    1    2  504  501  0.38262436177E+02  0.57752909812E+02  0.99832138518E+02  0.12151489001E+03  0.00000000000E+00 0. -1.
         21    1    1    2  505  502 -0.74453626715E+02 -0.97034313108E+02 -0.49215273405E+02  0.13183756516E+03  0.00000000000E+00 0.  1.
          1    1    1    2  501    0  0.52142384624E+02 -0.23349294292E+02 -0.60599333631E+03  0.60868049211E+03  0.00000000000E+00 0.  1.
<scales pt_clust_3="64.38917" pt_clust_4="105.03865" pt_clust_5="14000.00000" pt_clust_6="57.13158"></scales>
<clustering>
<clus scale="   57.132">  2  6  1 -1</clus>
<clus scale="   64.389">  1  3  2 -1</clus>
<clus scale="  105.039">  1  4  2 -1</clus>
<clus scale="   64.389">  1  3  2 -1</clus>
</clustering>
</event>
<event>
 6    0  0.6525019E+002  0.8017445E+02  0.7546771E-02  0.1328557E+00
         21   -1    0    0  503  502  0.00000000000E+00  0.00000000000E+00  0.49751285786E+02  0.49751285786E+02  0.00000000000E+00 0. -1.
          1   -1    0    0  504    0 -0.00000000000E+00 -0.00000000000E+00 -0.96970777086E+03  0.96970777086E+03  0.00000000000E+00 0. -1.
         21    1    1    2  503  505  0.29323692976E+02 -0.25511177423E+02 -0.90228462066E+01  0.39901264353E+02  0.00000000000E+00 0. -1.
         21    1    1    2  504  502 -0.96444404527E+02  0.71076324958E+02 -0.10170693275E+03  0.15715491498E+03  0.00000000000E+00 0. -1.
         21    1    1    2  505  501  0.34127807915E+02 -0.48787700020E+02 -0.13723597852E+03  0.14959498904E+03  0.00000000000E+00 0.  1.
          1    1    1    2  501    0  0.32992903636E+02  0.32225524854E+01 -0.67199072760E+03  0.67280788826E+03  0.00000000000E+00 0. -1.
<scales pt_clust_3="40.78988" pt_clust_4="14000.00000" pt_clust_5="80.17445" pt_clust_6="33.14991"></scales>
<clustering>
<clus scale="   33.150">  2  6  1 -1</clus>
<clus scale="   40.790">  1  3  2 -1</clus>
<clus scale="   80.174">  2  5  1 -1</clus>
<clus scale="   40.790">  1  3  2 -1</clus>
</clustering>
</event>
<event>
 6    0  0.6525019E+002  0.9270719E+02  0.7546771E-02  0.1296425E+00
         21   -1    0    0  501  502  0.00000000000E+00  0.00000000000E+00  0.10637460345E+03  0.10637460345E+03  0.00000000000E+00 0. -1.
          1   -1    0    0  504    0 -0.00000000000E+00 -0.00000000000E+00 -0.23992835455E+04  0.23992835455E+04  0.00000000000E+00 0.  1.
         21    1    1    2  503  502  0.21311609279E+02 -0.25505586928E+02  0.15178549580E+02  0.36539130011E+02  0.00000000000E+00 0. -1.
         21    1    1    2  504  505 -0.77665495723E+02 -0.10460925811E+03 -0.98945767365E+02  0.16360101157E+03  0.00000000000E+00 0. -1.
         21    1    1    2  505  503  0.40748215276E+02  0.39444697703E+02  0.30223774930E+02  0.64263347222E+02  0.00000000000E+00 0. -1.
          1    1    1    2  501    0  0.15605671168E+02  0.90670147338E+02 -0.22393654992E+04  0.22412546602E+04  0.00000000000E+00 0.  1.
<scales pt_clust_3="33.23732" pt_clust_4="92.70719" pt_clust_5="58.60980" pt_clust_6="14000.00000"></scales>
<clustering>
<clus scale="   33.237">  1  3  2 -1</clus>
<clus scale="   58.610">  1  5  2 -1</clus>
<clus scale="   92.707">  1  4  2 -1</clus>
<clus scale="   33.237">  1  3  2 -1</clus>
</clustering>
</event>
<event>
 6    0  0.6525019E+002  0.1323889E+03  0.7546771E-02  0.1223954E+00
          2   -1    0    0  504    0 -0.00000000000E+00  0.00000000000E+00  0.36081223897E+03  0.36081223897E+03  0.00000000000E+00 0.  1.
         21   -1    0    0  505  502  0.00000000000E+00 -0.00000000000E+00 -0.45396905762E+03  0.45396905762E+03  0.00000000000E+00 0. -1.
         21    1    1    2  503  501 -0.93340346689E+02  0.39069877577E+02  0.66240964640E+02  0.12094106437E+03  0.00000000000E+00 0. -1.
         21    1    1    2  504  502  0.15229121454E+03 -0.30086805655E+02 -0.12633032334E+02  0.15574794832E+03  0.00000000000E+00 0. -1.
         21    1    1    2  505  503  0.16129650945E+02 -0.30248564750E+02 -0.33373514482E+03  0.33549111493E+03  0.00000000000E+00 0. -1.
          2    1    1    2  501    0 -0.75080518792E+02  0.21265492828E+02  0.18697039386E+03  0.20260116897E+03  0.00000000000E+00 0.  1.
<scales pt_clust_3="14000.00000" pt_clust_4="132.38888" pt_clust_5="34.28033" pt_clust_6="76.49516"></scales>
<clustering>
<clus scale="   34.280">  2  5  1 -1</clus>
<clus scale="   76.495">  1  6  2 -1</clus>
<clus scale="  132.389">  1  4  2 -1</clus>
<clus scale="   34.280">  2  3  1 -1</clus>
</clustering>
</event>
<event>
 6    0  0.6525019E+002  0.1833166E+03  0.7546771E-02  0.1164631E+00
          1   -1    0    0  503    0 -0.00000000000E+00  0.00000000000E+00  0.14286028683E+04  0.14286028683E+04  0.00000000000E+00 0.  1.
         21   -1    0    0  505  502  0.00000000000E+00 -0.00000000000E+00 -0.28854005723E+03  0.28854005723E+03  0.00000000000E+00 0.  1.
         21    1    1    2  503  502 -0.67172766279E+01  0.46966873208E+02 -0.76106243008E+02  0.89683717636E+02  0.00000000000E+00 0.  1.
         21    1    1    2  504  501 -0.70888297581E+02  0.14184278385E+03  0.88488612452E+03  0.89898163465E+03  0.00000000000E+00 0.  1.
         21    1    1    2  505  504  0.11582899599E+03 -0.19411005090E+03 -0.13321712430E+03  0.26237734349E+03  0.00000000000E+00 0.  1.
          1    1    1    2  501    0 -0.38223421780E+02  0.53003938374E+01  0.46450005384E+03  0.46610022974E+03  0.00000000000E+00 0.  1.
<scales pt_clust_3="47.52063" pt_clust_4="183.31664" pt_clust_5="14000.00000" pt_clust_6="38.58917"></scales>
<clustering>
<clus scale="   38.589">  1  6  2 -1</clus>
<clus scale="   47.521">  2  3  1 -1</clus>
<clus scale="  183.317">  1  4  2 -1</clus>
<clus scale="   47.521">  2  3  1 -1</clus>
</clustering>
</event>
<event>
 6    0  0.6525019E+002  0.1462369E+03  0.7546771E-02  0.1205175E+00
          1   -1    0    0  504    0 -0.00000000000E+00  0.00000000000E+00  0.23224352583E+04  0.23224352583E+04  0.00000000000E+00 0.  1.
         21   -1    0    0  505  502  0.00000000000E+00 -0.00000000000E+00 -0.97261599165E+02  0.97261599165E+02  0.00000000000E+00 0. -1.
         21    1    1    2  503  501  0.14516591396E+03  0.71575458979E+02  0.29810422906E+03  0.33920837296E+03  0.00000000000E+00 0. -1.
         21    1    1    2  504  502 -0.12462976901E+03  0.36244468586E+02  0.81428505788E+02  0.15322154673E+03  0.00000000000E+00 0. -1.
         21    1    1    2  505  503 -0.62852219647E+02 -0.57865246660E+02  0.51244969053E+01  0.85586498667E+02  0.00000000000E+00 0. -1.
          1    1    1    2  501    0  0.42316074702E+02 -0.49954680905E+02  0.18405164274E+04  0.18416804391E+04  0.00000000000E+00 0.  1.
<scales pt_clust_3="146.23694" pt_clust_4="14000.00000" pt_clust_5="85.90911" pt_clust_6="65.46847"></scales>
<clustering>
<clus scale="   65.468">  1  6  2 -1</clus>
<clus scale="   85.909">  2  5  1 -1</clus>
<clus scale="  146.237">  1  3  2 -1</clus>
<clus scale="   85.909">  2  3  1 -1</clus>
</clustering>
</event>
<event>
 6    0  0.6525019E+002  0.2039957E+03  0.7546771E-02  0.1146411E+00
          2   -1    0    0  503    0 -0.00000000000E+00  0.00000000000E+00  0.35120216149E+03  0.35120216149E+03  0.00000000000E+00 0. -1.
         21   -1    0    0  504  502  0.00000000000E+00 -0.00000000000E+00 -0.85364976796E+03  0.85364976796E+03  0.00000000000E+00 0. -1.
         21    1    1    2  503  505  0.11551402087E+03 -0.21786155915E+03  0.13224672553E+03  0.27981483947E+03  0.00000000000E+00 0. -1.
         21    1    1    2  504  501 -0.73208348264E+02  0.13607277917E+03 -0.70286494686E+03  0.71964880116E+03  0.00000000000E+00 0. -1.
         21    1    1    2  505  502 -0.10116157490E+02  0.50547605739E+02 -0.54353304187E+02  0.74911139120E+02  0.00000000000E+00 0. -1.
          2    1    1    2  501    0 -0.32189515120E+02  0.31241174247E+02  0.12252391906E+03  0.13047714970E+03  0.00000000000E+00 0. -1.
<scales pt_clust_3="203.99574" pt_clust_4="14000.00000" pt_clust_5="53.25295" pt_clust_6="44.85728"></scales>
<clustering>
<clus scale="   44.857">  1  6  2 -1</clus>
<clus scale="   53.253">  2  5  1 -1</clus>
<clus scale="  203.996">  1  3  2 -1</clus>
<clus scale="   53.253">  2  3  1 -1</clus>
</clustering>
</event>
<event>
 6    0  0.6525019E+002  0.6353773E+02  0.7546771E-02  0.1383558E+00
          4   -1    0    0  505    0 -0.00000000000E+00  0.00000000000E+00  0.93237457304E+03  0.93237457304E+03  0.00000000000E+00 0. -1.
         21   -1    0    0  503  502  0.00000000000E+00 -0.00000000000E+00 -0.54319463096E+03  0.54319463096E+03  0.00000000000E+00 0.  1.
         21    1    1    2  503  501  0.29734655719E+02 -0.51411673622E+02 -0.46463621861E+03  0.46841661540E+03  0.00000000000E+00 0.  1.
         21    1    1    2  504  502 -0.35359723799E+02 -0.59345608795E+01 -0.54147431462E+02  0.64942077376E+02  0.00000000000E+00 0. -1.
         21    1    1    2  505  504 -0.22670295659E+01  0.11628451431E+03  0.19704906758E+03  0.22881337969E+03  0.00000000000E+00 0. -1.
          4    1    1    2  501    0  0.78920976455E+01 -0.58938279813E+02  0.71091452458E+03  0.71339713154E+03  0.00000000000E+00 0. -1.
<scales pt_clust_3="57.30324" pt_clust_4="35.85428" pt_clust_5="14000.00000" pt_clust_6="63.53773"></scales>
<clustering>
<clus scale="   35.854">  2  4  1 -1</clus>
<clus scale="   57.303">  2  3  1 -1</clus>
<clus scale="   63.538">  1  6  2 -1</clus>
<clus scale="   35.854">  2  3  1 -1</clus>
</clustering>
</event>
<event>
 6    0  0.6525019E+002  0.1041596E+03  0.7546771E-02  0.1271784E+00
          2   -1    0    0  503    0 -0.00000000000E+00  0.00000000000E+00  0.15355390048E+04  0.15355390048E+04  0.00000000000E+00 0. -1.
         21   -1    0    0  504  502  0.00000000000E+00 -0.00000000000E+00 -0.10900896177E+04  0.10900896177E+04  0.00000000000E+00 0.  1.
         21    1    1    2  503  502 -0.96519150553E+02  0.15676539335E+02 -0.35535003165E+03  0.36855846931E+03  0.00000000000E+00 0.  1.
         21    1    1    2  504  505 -0.10990132551E+01  0.42899853647E+02 -0.11528953962E+03  0.12301741022E+03  0.00000000000E+00 0.  1.
         21    1    1    2  505  501  0.57506413572E+02 -0.13466030884E+03 -0.59894275645E+03  0.61658155331E+03  0.00000000000E+00 0.  1.
          2    1    1    2  501    0  0.40111750236E+02  0.76083915861E+02  0.15150317148E+04  0.15174711897E+04  0.00000000000E+00 0. -1.
<scales pt_clust_3="14000.00000" pt_clust_4="42.91393" pt_clust_5="104.15956" pt_clust_6="86.05700"></scales>
<clustering>
<clus scale="   42.914">  2  4  1 -1</clus>
<clus scale="   86.057">  1  6  2 -1</clus>
<clus scale="  104.160">  2  5  1 -1</clus>
<clus scale="   42.914">  2  3  1 -1</clus>
</clustering>
</event>
<event>
 6    0  0.6525019E+002  0.8873289E+02  0.7546771E-02  0.1305950E+00
         21   -1    0    0  505  502  0.00000000000E+00  0.00000000000E+00  0.12903142598E+03  0.12903142598E+03  0.00000000000E+00 0.  1.
          1   -1    0    0  504    0 -0.00000000000E+00 -0.00000000000E+00 -0.36404842323E+03  0.36404842323E+03  0.00000000000E+00 0.  1.
         21    1    1    2  503  502  0.83098167519E+01 -0.34967712252E+02  0.69503114610E+02  0.78246258026E+02  0.00000000000E+00 0.  1.
         21    1    1    2  504  503 -0.97455080502E+02  0.32405100376E+02 -0.64251424291E+02  0.12114383505E+03  0.00000000000E+00 0. -1.
         21    1    1    2  505  501  0.18419713440E+02  0.50814082461E+02 -0.20454984195E+02  0.57790684353E+02  0.00000000000E+00 0. -1.
          1    1    1    2  501    0  0.70725550311E+02 -0.48251470585E+02 -0.21981370337E+03  0.23589907178E+03  0.00000000000E+00 0.  1.
<scales pt_clust_3="35.94154" pt_clust_4="14000.00000" pt_clust_5="44.38677" pt_clust_6="88.73289"></scales>
<clustering>
<clus scale="   35.942">  1  3  2 -1</clus>
<clus scale="   44.387">  1  5  2 -1</clus>
<clus scale="   88.733">  2  6  1 -1</clus>
<clus scale="   35.942">  1  3  2 -1</clus>
</clustering>
</event>
<event>
 6    0  0.6525019E+002  0.1075299E+03  0.7546771E-02  0.1265214E+00
          2   -1    0    0  503    0 -0.00000000000E+00  0.00000000000E+00  0.18851348842E+04  0.18851348842E+04  0.00000000000E+00 0.  1.
         21   -1    0    0  504  502  0.00000000000E+00 -0.00000000000E+00 -0.43687429868E+02  0.43687429868E+02  0.00000000000E+00 0.  1.
         21    1    1    2  503  505 -0.74802273418E+01 -0.47056294723E+02  0.17833758681E+03  0.18459291304E+03  0.00000000000E+00 0.  1.
         21    1    1    2  504  501  0.77102814634E+02  0.11604177828E+03  0.52987324566E+03  0.54788337701E+03  0.00000000000E+00 0.  1.
         21    1    1    2  505  502 -0.44899427749E+02 -0.92384666157E+02  0.53021774996E+02  0.11559495567E+03  0.00000000000E+00 0.  1.
          2    1    1    2  501    0 -0.24723159544E+02  0.23399182604E+02  0.10802148469E+04  0.10807510684E+04  0.00000000000E+00 0.  1.
<scales pt_clust_3="43.77173" pt_clust_4="14000.00000" pt_clust_5="107.52991" pt_clust_6="34.04051"></scales>
<clustering>
<clus scale="   34.041">  1  6  2 -1</clus>
<clus scale="   43.772">  1  3  2 -1</clus>
<clus scale="  107.530">  2  5  1 -1</clus>
<clus scale="  107.530">  2  3  1 -1</clus>
</clustering>
</event>
<event>
 6    0  0.6525019E+002  0.1605684E+03  0.7546771E-02  0.1188057E+00
         21   -1    0    0  503  502  0.00000000000E+00  0.00000000000E+00  0.82401105394E+03  0.82401105394E+03  0.00000000000E+00 0.  1.
          2   -1    0    0  505    0 -0.00000000000E+00 -0.00000000000E+00 -0.29840597313E+03  0.29840597313E+03  0.00000000000E+00 0.  1.
         21    1    1    2  503  501  0.58485536083E+02 -0.59552422833E+02  0.29212886410E+02  0.88433261439E+02  0.00000000000E+00 0.  1.
         21    1    1    2  504  502 -0.14553088647E+03  0.96822122053E+01  0.69703225553E+03  0.71212846411E+03  0.00000000000E+00 0.  1.
         21    1    1    2  505  504  0.11703539861E+02  0.42203950990E+02 -0.23474758860E+03  0.23879819237E+03  0.00000000000E+00 0.  1.
          2    1    1    2  501    0  0.75341810531E+02  0.76662596380E+01  0.34107527472E+02  0.83057109155E+02  0.00000000000E+00 0.  1.
<scales pt_clust_3="65.67108" pt_clust_4="144.86082" pt_clust_5="43.79665" pt_clust_6="65.67108"></scales>
<clustering>
<clus scale="   43.797">  2  5  1 -1</clus>
<clus scale="   65.671">  3  6 -1 -1</clus>
<clus scale="  144.861">  1  4  2 -1</clus>
<clus scale="  144.861">  1  3  2 -1</clus>
</clustering>
</event>
<event>
 6    0  0.6525019E+002  0.1121684E+03  0.7546771E-02  0.1256606E+00
         21   -1    0    0  501  502  0.00000000000E+00  0.00000000000E+00  0.43586655797E+03  0.43586655797E+03  0.00000000000E+00 0.  1.
          2   -1    0    0  504    0 -0.00000000000E+00 -0.00000000000E+00 -0.58167994255E+03  0.58167994255E+03  0.00000000000E+00 0. -1.
         21    1    1    2  503  502  0.21822724307E+02  0.24196530696E+02  0.17361099769E+02  0.36920335576E+02  0.00000000000E+00 0. -1.
         21    1    1    2  504  505 -0.17239963296E+02 -0.98925264765E+02  0.11096688578E+03  0.14965652035E+03  0.00000000000E+00 0. -1.
         21    1    1    2  505  503  0.45718951555E+02  0.10704695947E+03  0.26452095361E+03  0.28899932346E+03  0.00000000000E+00 0.  1.
          2    1    1    2  501    0 -0.50301712566E+02 -0.32318225397E+02 -0.53866232374E+03  0.54197032114E+03  0.00000000000E+00 0. -1.
<scales pt_clust_3="32.58379" pt_clust_4="14000.00000" pt_clust_5="112.16841" pt_clust_6="59.66183"></scales>
<clustering>
<clus scale="   32.584">  1  3  2 -1</clus>
<clus scale="   59.662">  2  6  1 -1</clus>
<clus scale="  112.168">  1  5  2 -1</clus>
<clus scale="   32.584">  1  3  2 -1</clus>
</clustering>
</event>
<event>
 6    0  0.6525019E+002  0.8872438E+02  0.7546771E-02  0.1305971E+00
          2   -1    0    0  503    0 -0.00000000000E+00  0.00000000000E+00  0.15756481490E+04  0.15756481490E+04  0.00000000000E+00 0. -1.
         21   -1    0    0  504  502  0.00000000000E+00 -0.00000000000E+00 -0.59402973428E+03  0.59402973428E+03  0.00000000000E+00 0. -1.
         21    1    1    2  503  502 -0.74747023987E+01  0.10543525168E+03 -0.31464081955E+03  0.33192063630E+03  0.00000000000E+00 0. -1.
         21    1    1    2  504  505  0.42814056609E+01 -0.77170605951E+02 -0.25067681603E+03  0.26232136580E+03  0.00000000000E+00 0. -1.
         21    1    1    2  505  501  0.13493119572E+02 -0.62665918931E+02  0.59169305888E+02  0.87235820799E+02  0.00000000000E+00 0. -1.
          2    1    1    2  501    0 -0.10299822835E+02  0.34401273206E+02  0.14877667444E+04  0.14882000604E+04  0.00000000000E+00 0. -1.
<scales pt_clust_3="14000.00000" pt_clust_4="88.72438" pt_clust_5="34.29069" pt_clust_6="35.91008"></scales>
<clustering>
<clus scale="   35.910">  1  6  2 -1</clus>
<clus scale="   34.291">  1  5  2 -1</clus>
<clus scale="   88.724">  2  4  1 -1</clus>
<clus scale="   88.724">  2  3  1 -1</clus>
</clustering>
</event>
<event>
 6    0  0.6525019E+002  0.1081298E+03  0.7546771E-02  0.1264073E+00
          2   -1    0    0  504    0 -0.00000000000E+00  0.00000000000E+00  0.25232520602E+04  0.25232520602E+04  0.00000000000E+00 0. -1.
         21   -1    0    0  503  502  0.00000000000E+00 -0.00000000000E+00 -0.71959773332E+02  0.71959773332E+02  0.00000000000E+00 0.  1.
         21    1    1    2  503  505  0.57533361644E+00 -0.35363936861E+02 -0.53598665389E+02  0.64216477407E+02  0.00000000000E+00 0.  1.
         21    1    1    2  504  502 -0.36834548479E+02  0.43343671209E+02  0.49411796074E+03  0.49738115860E+03  0.00000000000E+00 0. -1.
         21    1    1    2  505  501  0.52855625013E+02 -0.74241514680E+02  0.18177684426E+03  0.20334291408E+03  0.00000000000E+00 0.  1.
          2    1    1    2  501    0 -0.16596410150E+02  0.66261780331E+02  0.18289961472E+04  0.18302712834E+04  0.00000000000E+00 0. -1.
<scales pt_clust_3="35.36862" pt_clust_4="53.53960" pt_clust_5="14000.00000" pt_clust_6="108.12981"></scales>
<clustering>
<clus scale="   35.369">  2  3  1 -1</clus>
<clus scale="   53.540">  1  4  2 -1</clus>
<clus scale="  108.130">  1  6  2 -1</clus>
<clus scale="   35.369">  2  3  1 -1</clus>
</clustering>
</event>
<event>
 6    0  0.6525019E+002  0.1361805E+03  0.7546771E-02  0.1218563E+00
         21   -1    0    0  504  502  0.00000000000E+00  0.00000000000E+00  0.75070998568E+02  0.75070998568E+02  0.00000000000E+00 0. -1.
          1   -1    0    0  503    0 -0.00000000000E+00 -0.00000000000E+00 -0.28906841262E+04  0.28906841262E+04  0.00000000000E+00 0.  1.
         21    1    1    2  503  505 -0.12016197554E+03 -0.48244795269E+02 -0.48629843457E+03  0.50324211678E+03  0.00000000000E+00 0.  1.
         21    1    1    2  504  501  0.14778414721E+03 -0.17227040967E+02 -0.77073965673E+03  0.78496913542E+03  0.00000000000E+00 0.  1.
         21    1    1    2  505  502 -0.40126425544E+02 -0.88586442372E+01  0.51399066773E+02  0.65806304179E+02  0.00000000000E+00 0. -1.
          1    1    1    2  501    0  0.12504253874E+02  0.74330480473E+02 -0.16099741032E+04  0.16117375684E+04  0.00000000000E+00 0.  1.
<scales pt_clust_3="136.18046" pt_clust_4="14000.00000" pt_clust_5="41.09265" pt_clust_6="74.57867"></scales>
<clustering>
<clus scale="   41.093">  1  5  2 -1</clus>
<clus scale="   74.579">  2  6  1 -1</clus>
<clus scale="  136.180">  2  3  1 -1</clus>
<clus scale="   41.093">  1  3  2 -1</clus>
</clustering>
</event>
<event>
 6    0  0.6525019E+002  0.7441550E+02  0.7546771E-02  0.1345691E+00
          1   -1    0    0  505    0 -0.00000000000E+00  0.00000000000E+00  0.70980589658E+02  0.70980589658E+02  0.00000000000E+00 0. -1.
         21   -1    0    0  503  502  0.00000000000E+00 -0.00000000000E+00 -0.14061488743E+04  0.14061488743E+04  0.00000000000E+00 0. -1.
         21    1    1    2  503  504  0.17590057524E+02 -0.85067391517E+02 -0.80362659247E+03  0.80830784442E+03  0.00000000000E+00 0. -1.
         21    1    1    2  504  501 -0.43143647030E+02  0.86082675065E+02 -0.19643052927E+03  0.21876140897E+03  0.00000000000E+00 0.  1.
         21    1    1    2  505  502  0.26335355952E+02  0.35849091413E+02 -0.38525734359E+03  0.38781687576E+03  0.00000000000E+00 0.  1.
          1    1    1    2  501    0 -0.78176644634E+00 -0.36864374961E+02  0.50146180650E+02  0.62243334855E+02  0.00000000000E+00 0. -1.
<scales pt_clust_3="74.41550" pt_clust_4="14000.00000" pt_clust_5="41.91133" pt_clust_6="36.87266"></scales>
<clustering>
<clus scale="   36.873">  1  6  2 -1</clus>
<clus scale="   41.911">  2  5  1 -1</clus>
<clus scale="   74.415">  2  3  1 -1</clus>
<clus scale="   41.911">  2  3  1 -1</clus>
</clustering>
</event>
<event>
 6    0  0.6525019E+002  0.1230260E+03  0.7546771E-02  0.1238187E+00
         21   -1    0    0  503  502  0.00000000000E+00  0.00000000000E+00  0.16249280329E+03  0.16249280329E+03  0.00000000000E+00 0.  1.
          2   -1    0    0  504    0 -0.00000000000E+00 -0.00000000000E+00 -0.19303430101E+04  0.19303430101E+04  0.00000000000E+00 0. -1.
         21    1    1    2  503  501 -0.96051952033E+02 -0.11109040337E+03 -0.64171823643E+02  0.16026564872E+03  0.00000000000E+00 0.  1.
         21    1    1    2  504  505  0.66488148997E+02  0.29973085657E+02 -0.46193425829E+02  0.86330136167E+02  0.00000000000E+00 0.  1.
         21    1    1    2  505  502 -0.32218227341E+02 -0.24164885573E+02  0.87849933584E+02  0.96641433653E+02  0.00000000000E+00 0.  1.
          2    1    1    2  501    0  0.61782030377E+02  0.10528220329E+03 -0.17453348909E+04  0.17495985948E+04  0.00000000000E+00 0. -1.
<scales pt_clust_3="14000.00000" pt_clust_4="61.75484" pt_clust_5="40.27351" pt_clust_6="123.02604"></scales>
<clustering>
<clus scale="   40.274">  1  5  2 -1</clus>
<clus scale="   61.755">  1  4  2 -1</clus>
<clus scale="  123.026">  2  6  1 -1</clus>
<clus scale="   40.274">  1  3  2 -1</clus>
</clustering>
</event>
<event>
 6    0  0.6525019E+002  0.8344084E+02  0.7546771E-02  0.1319561E+00
         21   -1    0    0  503  502  0.00000000000E+00  0.00000000000E+00  0.20100627502E+04  0.20100627502E+04  0.00000000000E+00 0.  1.
          2   -1    0    0  505    0 -0.00000000000E+00 -0.00000000000E+00 -0.12412504371E+04  0.12412504371E+04  0.00000000000E+00 0.  1.
         21    1    1    2  503  504  0.39175634659E+02  0.13792134490E+02  0.12629849140E+04  0.12636676171E+04  0.00000000000E+00 0. -1.
         21    1    1    2  504  501 -0.55190823550E+02  0.37730132204E+02 -0.17811588419E+02  0.69187011514E+02  0.00000000000E+00 0.  1.
         21    1    1    2  505  502  0.97571801000E+02 -0.33936375069E+02  0.71588332816E+03  0.72329860600E+03  0.00000000000E+00 0.  1.
          2    1    1    2  501    0 -0.81556612109E+02 -0.17585891624E+02 -0.11922443407E+04  0.11951599527E+04  0.00000000000E+00 0.  1.
<scales pt_clust_3="41.53256" pt_clust_4="66.02029" pt_clust_5="14000.00000" pt_clust_6="83.44084"></scales>
<clustering>
<clus scale="   41.533">  1  3  2 -1</clus>
<clus scale="   66.020">  1  4  2 -1</clus>
<clus scale="   83.441">  2  6  1 -1</clus>
<clus scale="   41.533">  1  3  2 -1</clus>
</clustering>
</event>
<event>
 6    0  0.6525019E+002  0.5779902E+02  0.7546771E-02  0.1407307E+00
         21   -1    0    0  504  502  0.00000000000E+00  0.00000000000E+00  0.80074341955E+03  0.80074341955E+03  0.00000000000E+00 0.  1.
          2   -1    0    0  503    0 -0.00000000000E+00 -0.00000000000E+00 -0.30015050146E+04  0.30015050146E+04  0.00000000000E+00 0.  1.
         21    1    1    2  503  505  0.92586800090E+02  0.37373361555E+02 -0.20918681793E+03  0.23179346086E+03  0.00000000000E+00 0. -1.
         21    1    1    2  504  501 -0.79467383835E+02 -0.41266990330E+02  0.75231923368E+03  0.75762936780E+03  0.00000000000E+00 0.  1.
         21    1    1    2  505  502  0.33234170133E+02  0.10708435070E+02  0.25373099363E+02  0.43162191989E+02  0.00000000000E+00 0. -1.
          2    1    1    2  501    0 -0.46353586388E+02 -0.68148062946E+01 -0.27692671102E+04  0.27696634135E+04  0.00000000000E+00 0.  1.
<scales pt_clust_3="14000.00000" pt_clust_4="57.79902" pt_clust_5="34.91677" pt_clust_6="46.84295"></scales>
<clustering>
<clus scale="   34.917">  1  5  2 -1</clus>
<clus scale="   46.843">  2  6  1 -1</clus>
<clus scale="   57.799">  1  4  2 -1</clus>
<clus scale="   34.917">  1  3  2 -1</clus>
</clustering>
</event>
<event>
 6    0  0.6525019E+002  0.1284406E+03  0.7546771E-02  0.1229788E+00
          2   -1    0    0  502    0 -0.00000000000E+00  0.00000000000E+00  0.22309864127E+04  0.22309864127E+04  0.00000000000E+00 0.  1.
         21   -1    0    0  505  502  0.00000000000E+00 -0.00000000000E+00 -0.21582914776E+02  0.21582914776E+02  0.00000000000E+00 0. -1.
         21    1    1    2  503  504 -0.12820597454E+02  0.11094236338E+03  0.21765199736E+03  0.24463231117E+03  0.00000000000E+00 0. -1.
         21    1    1    2  504  501 -0.47260655393E+02 -0.12447372282E+03  0.94513600038E+03  0.95446809084E+03  0.00000000000E+00 0. -1.
         21    1    1    2  505  503  0.32693413918E+02  0.28283277727E+02  0.14475830025E+03  0.15107537392E+03  0.00000000000E+00 0. -1.
          2    1    1    2  501    0  0.27387838930E+02 -0.14751918284E+02  0.90185719993E+03  0.90239355155E+03  0.00000000000E+00 0.  1.
<scales pt_clust_3="128.44059" pt_clust_4="14000.00000" pt_clust_5="44.57852" pt_clust_6="31.10808"></scales>
<clustering>
<clus scale="   31.108">  1  6  2 -1</clus>
<clus scale="   44.579">  2  5  1 -1</clus>
<clus scale="  128.441">  2  3  1 -1</clus>
<clus scale="   44.579">  2  3  1 -1</clus>
</clustering>
</event>
<event>
 6    0  0.6525019E+002  0.9465718E+02  0.7546771E-02  0.1291950E+00
         21   -1    0    0  505  502  0.00000000000E+00  0.00000000000E+00  0.86210737213E+03  0.86210737213E+03  0.00000000000E+00 0. -1.
          2   -1    0    0  504    0 -0.00000000000E+00 -0.00000000000E+00 -0.78562790454E+03  0.78562790454E+03  0.00000000000E+00 0. -1.
         21    1    1    2  503  502 -0.56432911971E+02  0.31267942375E+02  0.43050030974E+02  0.77560704875E+02  0.00000000000E+00 0. -1.
         21    1    1    2  504  503 -0.35561519698E+02  0.60199788417E+02 -0.15112566036E+02  0.71533389832E+02  0.00000000000E+00 0. -1.
         21    1    1    2  505  501  0.26369398143E+02 -0.19090099344E+02  0.76995486867E+03  0.77064276863E+03  0.00000000000E+00 0. -1.
          2    1    1    2  501    0  0.65625033525E+02 -0.72377631448E+02 -0.72141286602E+03  0.72799841334E+03  0.00000000000E+00 0. -1.
<scales pt_clust_3="43.36468" pt_clust_4="14000.00000" pt_clust_5="32.55422" pt_clust_6="94.65718"></scales>
<clustering>
<clus scale="   32.554">  1  5  2 -1</clus>
<clus scale="   43.365">  1  3  2 -1</clus>
<clus scale="   94.657">  2  6  1 -1</clus>
<clus scale="   32.554">  1  3  2 -1</clus>
</clustering>
</event>
<event>
 6    0  0.6525019E+002  0.1418353E+03  0.7546771E-02  0.1210881E+00
         21   -1    0    0  503  502  0.00000000000E+00  0.00000000000E+00  0.49328038667E+02  0.49328038667E+02  0.00000000000E+00 0. -1.
         -4   -1    0    0    0  501 -0.00000000000E+00 -0.00000000000E+00 -0.22361426962E+04  0.22361426962E+04  0.00000000000E+00 0. -1.
         21    1    1    2  503  505  0.88180055570E+01  0.46377923050E+02 -0.51219769770E+02  0.69657259375E+02  0.00000000000E+00 0. -1.
         21    1    1    2  504  502 -0.73569420964E+02  0.41003157045E+02 -0.51110435238E+02  0.98519009226E+02  0.00000000000E+00 0. -1.
         21    1    1    2  505  501 -0.14434302577E+02 -0.19535831126E+03 -0.71726179319E+03  0.74353056348E+03  0.00000000000E+00 0. -1.
         -4    1    1    2    0  504  0.79185717984E+02  0.10797723116E+03 -0.13672226594E+04  0.13737639028E+04  0.00000000000E+00 0. -1.
<scales pt_clust_3="47.20878" pt_clust_4="96.71115" pt_clust_5="141.83533" pt_clust_6="14000.00000"></scales>
<clustering>
<clus scale="   47.209">  1  3  2 -1</clus>
<clus scale="   96.711">  1  4  2 -1</clus>
<clus scale="  141.835">  1  5  2 -1</clus>
<clus scale="   47.209">  1  3  2 -1</clus>
</clustering>
</event>
<event>
 6    0  0.6525019E+002  0.1289224E+03  0.7546771E-02  0.1229064E+00
         21   -1    0    0  503  502  0.00000000000E+00  0.00000000000E+00  0.14168886588E+03  0.14168886588E+03  0.00000000000E+00 0. -1.
          2   -1    0    0  504    0 -0.00000000000E+00 -0.00000000000E+00 -0.34882445528E+04  0.34882445528E+04  0.00000000000E+00 0.  1.
         21    1    1    2  503  501  0.46158567515E+02 -0.11077401899E+03 -0.92751509320E+03  0.93524635511E+03  0.00000000000E+00 0.  1.
         21    1    1    2  504  505 -0.31541242412E+02  0.13591897155E+03 -0.11105351433E+04  0.11192663317E+04  0.00000000000E+00 0. -1.
         21    1    1    2  505  502 -0.44328093280E+02 -0.30143360959E+02  0.12791031133E+03  0.13868903997E+03  0.00000000000E+00 0. -1.
          2    1    1    2  501    0  0.29710768177E+02  0.49984084043E+01 -0.14364157618E+04  0.14367316919E+04  0.00000000000E+00 0.  1.
<scales pt_clust_3="14000.00000" pt_clust_4="128.92238" pt_clust_5="53.53408" pt_clust_6="30.12829"></scales>
<clustering>
<clus scale="   30.128">  2  6  1 -1</clus>
<clus scale="   53.534">  1  5  2 -1</clus>
<clus scale="  128.922">  1  4  2 -1</clus>
<clus scale="   53.534">  1  3  2 -1</clus>
</clustering>
</event>
<event>
 6    0  0.6525019E+002  0.9360567E+02  0.7546771E-02  0.1294348E+00
         21   -1    0    0  503  502  0.00000000000E+00  0.00000000000E+00  0.28582575552E+03  0.28582575552E+03  0.00000000000E+00 0.  1.
          1   -1    0    0  504    0 -0.00000000000E+00 -0.00000000000E+00 -0.27304765201E+04  0.27304765201E+04  0.00000000000E+00 0.  1.
         21    1    1    2  503  501 -0.90808265052E+02  0.82363473612E+02 -0.27664334627E+03  0.30259118265E+03  0.00000000000E+00 0.  1.
         21    1    1    2  504  505 -0.35444597267E+02 -0.21142708519E+02 -0.10553643002E+03  0.11331933489E+03  0.00000000000E+00 0. -1.
         21    1    1    2  505  502  0.70910014261E+02  0.51323801740E+01  0.26344592531E+03  0.27287053159E+03  0.00000000000E+00 0.  1.
          1    1    1    2  501    0  0.55342848058E+02 -0.66353145267E+02 -0.23259169136E+04  0.23275212265E+04  0.00000000000E+00 0.  1.
<scales pt_clust_3="14000.00000" pt_clust_4="41.27146" pt_clust_5="71.02921" pt_clust_6="93.60567"></scales>
<clustering>
<clus scale="   41.271">  2  4  1 -1</clus>
<clus scale="   71.029">  1  5  2 -1</clus>
<clus scale="   93.606">  2  6  1 -1</clus>
<clus scale="   71.029">  1  3  2 -1</clus>
</clustering>
</event>
<event>
 6    0  0.6525019E+002  0.1344179E+03  0.7546771E-02  0.1221044E+00
         21   -1    0    0  504  502  0.00000000000E+00  0.00000000000E+00  0.29220975043E+03  0.29220975043E+03  0.00000000000E+00 0.  1.
          4   -1    0    0  505    0 -0.00000000000E+00 -0.00000000000E+00 -0.94604597389E+03  0.94604597389E+03  0.00000000000E+00 0.  1.
         21    1    1    2  503  501 -0.33592516405E+02 -0.90154979801E+02  0.34125885298E+02  0.10208307200E+03  0.00000000000E+00 0.  1.
         21    1    1    2  504  503  0.10753646552E+02 -0.48291793048E+02  0.21465669894E+03  0.22028444473E+03  0.00000000000E+00 0.  1.
         21    1    1    2  505  502  0.27150559402E+02  0.15702499392E+02 -0.14251183726E+03  0.14592239417E+03  0.00000000000E+00 0. -1.
          4    1    1    2  501    0 -0.43116895490E+01  0.12274427346E+03 -0.76010697043E+03  0.76996581342E+03  0.00000000000E+00 0.  1.
<scales pt_clust_3="14000.00000" pt_clust_4="49.44166" pt_clust_5="31.36433" pt_clust_6="134.41793"></scales>
<clustering>
<clus scale="   31.364">  2  5  1 -1</clus>
<clus scale="   49.442">  1  4  2 -1</clus>
<clus scale="  134.418">  2  6  1 -1</clus>
<clus scale="   49.442">  1  3  2 -1</clus>
</clustering>
</event>
<event>
 6    0  0.6525019E+002  0.1144498E+03  0.7546771E-02  0.1252545E+00
          2   -1    0    0  502    0 -0.00000000000E+00  0.00000000000E+00  0.22416806056E+04  0.22416806056E+04  0.00000000000E+00 0.  1.
         21   -1    0    0  503  502  0.00000000000E+00 -0.00000000000E+00 -0.92343262138E+02  0.92343262138E+02  0.00000000000E+00 0. -1.
         21    1    1    2  503  504  0.10154652219E+02 -0.33654193884E+02  0.16360087668E+02  0.38773369678E+02  0.00000000000E+00 0.  1.
         21    1    1    2  504  505  0.90639608982E+02 -0.50584390114E+02 -0.39898760391E+02  0.11120355354E+03  0.00000000000E+00 0. -1.
         21    1    1    2  505  501 -0.44907763600E+02  0.56246566340E+02  0.24997998276E+03  0.26013530179E+03  0.00000000000E+00 0. -1.
          2    1    1    2  501    0 -0.55886497601E+02  0.27992017658E+02  0.19228960335E+04  0.19239116428E+04  0.00000000000E+00 0.  1.
<scales pt_clust_3="35.15283" pt_clust_4="114.44982" pt_clust_5="14000.00000" pt_clust_6="62.35388"></scales>
<clustering>
<clus scale="   35.153">  2  3  1 -1</clus>
<clus scale="   62.354">  1  6  2 -1</clus>
<clus scale="  114.450">  2  4  1 -1</clus>
<clus scale="   35.153">  2  3  1 -1</clus>
</clustering>
</event>
<event>
 6    0  0.6525019E+002  0.1452433E+03  0.7546771E-02  0.1206443E+00
          2   -1    0    0  503    0 -0.00000000000E+00  0.00000000000E+00  0.29607583765E+04  0.29607583765E+04  0.00000000000E+00 0.  1.
         21   -1    0    0  504  502  0.00000000000E+00 -0.00000000000E+00 -0.12356268060E+04  0.12356268060E+04  0.00000000000E+00 0. -1.
         21    1    1    2  503  502 -0.30049617042E+02  0.72584407789E+02 -0.11961756956E+03  0.14310778695E+03  0.00000000000E+00 0.  1.
         21    1    1    2  504  505 -0.40962125445E+02 -0.56349000892E+02 -0.94785269346E+03  0.95040929821E+03  0.00000000000E+00 0. -1.
         21    1    1    2  505  501  0.16444898874E+03 -0.12654015113E+03 -0.83110506059E+02  0.22352457574E+03  0.00000000000E+00 0.  1.
          2    1    1    2  501    0 -0.93437246248E+02  0.11030474423E+03  0.28757123396E+04  0.28793435217E+04  0.00000000000E+00 0.  1.
<scales pt_clust_3="67.60056" pt_clust_4="69.66423" pt_clust_5="14000.00000" pt_clust_6="145.24327"></scales>
<clustering>
<clus scale="   69.664">  2  4  1 -1</clus>
<clus scale="   67.601">  2  3  1 -1</clus>
<clus scale="  145.243">  1  6  2 -1</clus>
<clus scale="   69.664">  2  3  1 -1</clus>
</clustering>
</event>
<event>
 6    0  0.6525019E+002  0.1001107E+03  0.7546771E-02  0.1280063E+00
         21   -1    0    0  505  502  0.00000000000E+00  0.00000000000E+00  0.22019753394E+04  0.22019753394E+04  0.00000000000E+00 0. -1.
          1   -1    0    0  502    0 -0.00000000000E+00 -0.00000000000E+00 -0.43888849485E+03  0.43888849485E+03  0.00000000000E+00 0.  1.
         21    1    1    2  503  501  0.56482458930E+02  0.21346806336E+02 -0.27868101123E+03  0.28514743612E+03  0.00000000000E+00 0.  1.
         21    1    1    2  504  503 -0.13098628408E+03 -0.20890540028E+02  0.27238962345E+03  0.30296852682E+03  0.00000000000E+00 0.  1.
         21    1    1    2  505  504  0.40198537115E+02  0.16650007763E+02  0.19082176493E+04  0.19087136355E+04  0.00000000000E+00 0. -1.
          1    1    1    2  501    0  0.34305288033E+02 -0.17106274071E+02 -0.13883941695E+03  0.14403423585E+03  0.00000000000E+00 0.  1.
<scales pt_clust_3="32.00239" pt_clust_4="91.70031" pt_clust_5="43.51029" pt_clust_6="32.00239"></scales>
<clustering>
<clus scale="   32.002">  3  6 -1 -1</clus>
<clus scale="   43.510">  1  5  2 -1</clus>
<clus scale="   91.700">  1  4  2 -1</clus>
<clus scale="   43.510">  1  3  2 -1</clus>
</clustering>
</event>
<event>
 6    0  0.6525019E+002  0.1206042E+03  0.7546771E-02  0.1242104E+00
         21   -1    0    0  503  502  0.00000000000E+00  0.00000000000E+00  0.98390090936E+02  0.98390090936E+02  0.00000000000E+00 0.  1.
          2   -1    0    0  505    0 -0.00000000000E+00 -0.00000000000E+00 -0.69379682593E+03  0.69379682593E+03  0.00000000000E+00 0. -1.
         21    1    1    2  503  501 -0.58495220649E+01  0.34303632391E+02  0.70906656152E+01  0.35513851417E+02  0.00000000000E+00 0.  1.
         21    1    1    2  504  502  0.46649494230E+02 -0.13819860658E+03 -0.17734883961E+02  0.14693385002E+03  0.00000000000E+00 0.  1.
         21    1    1    2  505  504  0.18506285632E+02 -0.24490891024E+02 -0.12523946610E+03  0.12894654016E+03  0.00000000000E+00 0. -1.
          2    1    1    2  501    0 -0.59306257797E+02  0.12838586522E+03 -0.45952305055E+03  0.48079267527E+03  0.00000000000E+00 0. -1.
<scales pt_clust_3="34.11719" pt_clust_4="120.60423" pt_clust_5="30.69668" pt_clust_6="14000.00000"></scales>
<clustering>
<clus scale="   30.697">  2  5  1 -1</clus>
<clus scale="   34.117">  1  3  2 -1</clus>
<clus scale="  120.604">  1  4  2 -1</clus>
<clus scale="   34.117">  1  3  2 -1</clus>
</clustering>
</event>
<event>
 6    0  0.6525019E+002  0.1533152E+03  0.7546771E-02  0.1196457E+00
          2   -1    0    0  505    0 -0.00000000000E+00  0.00000000000E+00  0.14204905752E+04  0.14204905752E+04  0.00000000000E+00 0. -1.
         21   -1    0    0  504  502  0.00000000000E+00 -0.00000000000E+00 -0.10779879855E+03  0.10779879855E+03  0.00000000000E+00 0.  1.
         21    1    1    2  503  502 -0.12906354631E+02 -0.89963718434E+02 -0.40523063670E+02  0.99509614177E+02  0.00000000000E+00 0.  1.
         21    1    1    2  504  501 -0.15514354075E+03  0.58965289497E+02  0.22598414626E+03  0.28038412573E+03  0.00000000000E+00 0.  1.
         21    1    1    2  505  503  0.51731960627E+02 -0.11036966416E+02  0.94598180422E+02  0.10838277592E+03  0.00000000000E+00 0. -1.
          2    1    1    2  501    0  0.11631793476E+03  0.42035395353E+02  0.10326325136E+04  0.10400128579E+04  0.00000000000E+00 0. -1.
<scales pt_clust_3="90.97246" pt_clust_4="14000.00000" pt_clust_5="52.89622" pt_clust_6="153.31522"></scales>
<clustering>
<clus scale="   52.896">  1  5  2 -1</clus>
<clus scale="   90.972">  2  3  1 -1</clus>
<clus scale="  153.315">  1  6  2 -1</clus>
<clus scale="   90.972">  2  3  1 -1</clus>
</clustering>
</event>
<event>
 6    0  0.6525019E+002  0.1874199E+03  0.7546771E-02  0.1160809E+00
          2   -1    0    0  503    0 -0.00000000000E+00  0.00000000000E+00  0.87152904450E+03  0.87152904450E+03  0.00000000000E+00 0.  1.
         21   -1    0    0  505  502  0.00000000000E+00 -0.00000000000E+00 -0.35886801850E+03  0.35886801850E+03  0.00000000000E+00 0.  1.
         21    1    1    2  503  502  0.46278320911E+02  0.64043385926E+02 -0.28573130316E+03  0.29645508238E+03  0.00000000000E+00 0.  1.
         21    1    1    2  504  501  0.37145732728E+01  0.14888405037E+03  0.26318734752E+03  0.30240343650E+03  0.00000000000E+00 0.  1.
         21    1    1    2  505  504 -0.73251013985E+02 -0.23967954670E+03  0.28789467298E+03  0.38170058801E+03  0.00000000000E+00 0.  1.
          2    1    1    2  501    0  0.23258119801E+02  0.26752110402E+02  0.24731030866E+03  0.24983795611E+03  0.00000000000E+00 0.  1.
<scales pt_clust_3="79.31805" pt_clust_4="187.41988" pt_clust_5="14000.00000" pt_clust_6="35.44877"></scales>
<clustering>
<clus scale="   35.449">  1  6  2 -1</clus>
<clus scale="   79.318">  2  3  1 -1</clus>
<clus scale="  187.420">  1  4  2 -1</clus>
<clus scale="   79.318">  2  3  1 -1</clus>
</clustering>
</event>
<event>
 6    0  0.6525019E+002  0.5568465E+02  0.7546771E-02  0.1416889E+00
          1   -1    0    0  505    0 -0.00000000000E+00  0.00000000000E+00  0.37573611106E+03  0.37573611106E+03  0.00000000000E+00 0. -1.
         21   -1    0    0  504  502  0.00000000000E+00 -0.00000000000E+00 -0.20538668309E+03  0.20538668309E+03  0.00000000000E+00 0.  1.
         21    1    1    2  503  501 -0.45495855247E+01 -0.71112713244E+02  0.13195972940E+02  0.72469651684E+02  0.00000000000E+00 0.  1.
         21    1    1    2  504  503  0.28893031447E+02  0.46548083797E+02 -0.15409100467E+03  0.16354072609E+03  0.00000000000E+00 0.  1.
         21    1    1    2  505  502 -0.48229400827E+02  0.69585572730E+02  0.11781430423E+03  0.14508079583E+03  0.00000000000E+00 0.  1.
          1    1    1    2  501    0  0.23885954905E+02 -0.45020943283E+02  0.19343015546E+03  0.20003162054E+03  0.00000000000E+00 0. -1.
<scales pt_clust_3="14000.00000" pt_clust_4="55.68465" pt_clust_5="47.70708" pt_clust_6="50.96493"></scales>
<clustering>
<clus scale="   50.965">  1  6  2 -1</clus>
<clus scale="   47.707">  1  5  2 -1</clus>
<clus scale="   55.685">  2  4  1 -1</clus>
<clus scale="   55.685">  2  3  1 -1</clus>
</clustering>
</event>
<event>
 6    0  0.6525019E+002  0.1160127E+03  0.7546771E-02  0.1249824E+00
         -1   -1    0    0    0  501 -0.00000000000E+00  0.00000000000E+00  0.11581226306E+03  0.11581226306E+03  0.00000000000E+00 0. -1.
         21   -1    0    0  504  502  0.00000000000E+00 -0.00000000000E+00 -0.58547922232E+03  0.58547922232E+03  0.00000000000E+00 0. -1.
         21    1    1    2  503  502  0.18095904232E+02  0.40007470624E+02 -0.10955705308E+03  0.11802884112E+03  0.00000000000E+00 0. -1.
         21    1    1    2  504  501  0.72427722356E+02 -0.10353078807E+03 -0.33312754224E+03  0.35628409794E+03  0.00000000000E+00 0. -1.
         21    1    1    2  505  503 -0.74823179980E+02  0.93829103687E+02 -0.93554256459E+02  0.15216703934E+03  0.00000000000E+00 0. -1.
         -1    1    1    2    0  505 -0.15700446608E+02 -0.30305786240E+02  0.66571892523E+02  0.74811506985E+02  0.00000000000E+00 0. -1.
<scales pt_clust_3="40.71034" pt_clust_4="116.01265" pt_clust_5="14000.00000" pt_clust_6="34.13129"></scales>
<clustering>
<clus scale="   34.131">  1  6  2 -1</clus>
<clus scale="   40.710">  2  3  1 -1</clus>
<clus scale="  116.013">  2  4  1 -1</clus>
<clus scale="   40.710">  2  3  1 -1</clus>
</clustering>
</event>
<event>
 6    0  0.6525019E+002  0.9759365E+02  0.7546771E-02  0.1285439E+00
          1   -1    0    0  504    0 -0.00000000000E+00  0.00000000000E+00  0.59241419122E+03  0.59241419122E+03  0.00000000000E+00 0.  1.
         21   -1    0    0  505  502  0.00000000000E+00 -0.00000000000E+00 -0.29761061969E+03  0.29761061969E+03  0.00000000000E+00 0.  1.
         21    1    1    2  503  502  0.42015312668E+02  0.78524677366E+02 -0.22673480126E+02  0.91899391483E+02  0.00000000000E+00 0.  1.
         21    1    1    2  504  503 -0.12654371892E+02 -0.12637788737E+03  0.14384094670E+03  0.19188986813E+03  0.00000000000E+00 0.  1.
         21    1    1    2  505  501 -0.30709328722E+02  0.14568365606E+02 -0.21424608580E+03  0.21692552969E+03  0.00000000000E+00 0.  1.
          1    1    1    2  501    0  0.13483879470E+01  0.33284844398E+02  0.38788219076E+03  0.38931002161E+03  0.00000000000E+00 0.  1.
<scales pt_clust_3="14000.00000" pt_clust_4="97.59365" pt_clust_5="34.07607" pt_clust_6="33.31215"></scales>
<clustering>
<clus scale="   33.312">  1  6  2 -1</clus>
<clus scale="   34.076">  2  5  1 -1</clus>
<clus scale="   97.594">  1  4  2 -1</clus>
<clus scale="   34.076">  2  3  1 -1</clus>
</clustering>
</event>
<event>
 6    0  0.6525019E+002  0.1405337E+03  0.7546771E-02  0.1212613E+00
          2   -1    0    0  504    0 -0.00000000000E+00  0.00000000000E+00  0.21902937198E+04  0.21902937198E+04  0.00000000000E+00 0.  1.
         21   -1    0    0  505  502  0.00000000000E+00 -0.00000000000E+00 -0.43535111406E+03  0.43535111406E+03  0.00000000000E+00 0.  1.
         21    1    1    2  503  501 -0.11358263001E+03  0.16024680448E+03  0.20535399080E+03  0.28416599677E+03  0.00000000000E+00 0.  1.
         21    1    1    2  504  502  0.10793856290E+03 -0.10640896336E+03 -0.12774129142E+02  0.15210778816E+03  0.00000000000E+00 0. -1.
         21    1    1    2  505  503 -0.41793059978E+02  0.10478764037E+02 -0.31116783619E+03  0.31413673239E+03  0.00000000000E+00 0.  1.
          2    1    1    2  501    0  0.47437127085E+02 -0.64316605162E+02  0.18735305803E+04  0.18752343166E+04  0.00000000000E+00 0.  1.
<scales pt_clust_3="14000.00000" pt_clust_4="140.53373" pt_clust_5="43.08671" pt_clust_6="79.68757"></scales>
<clustering>
<clus scale="   43.087">  2  5  1 -1</clus>
<clus scale="   79.688">  1  6  2 -1</clus>
<clus scale="  140.534">  2  4  1 -1</clus>
<clus scale="   43.087">  2  3  1 -1</clus>
</clustering>
</event>
<event>
 6    0  0.6525019E+002  0.8656892E+02  0.7546771E-02  0.1311380E+00
          2   -1    0    0  503    0 -0.00000000000E+00  0.00000000000E+00  0.83913820775E+03  0.83913820775E+03  0.00000000000E+00 0.  1.
         21   -1    0    0  504  502  0.00000000000E+00 -0.00000000000E+00 -0.78621404710E+02  0.78621404710E+02  0.00000000000E+00 0. -1.
         21    1    1    2  503  502  0.27510391246E+02  0.10798027929E+03  0.16561614622E+02  0.11265367025E+03  0.00000000000E+00 0. -1.
         21    1    1    2  504  505  0.31470955015E+02 -0.22968842550E+02 -0.65285957265E+01  0.39504573151E+02  0.00000000000E+00 0.  1.
         21    1    1    2  505  501 -0.42390146683E+02 -0.38689279894E+02  0.11810218036E+03  0.13130845335E+03  0.00000000000E+00 0. -1.
          2    1    1    2  501    0 -0.16591199578E+02 -0.46322156846E+02  0.63238160378E+03  0.63429291570E+03  0.00000000000E+00 0.  1.
<scales pt_clust_3="86.56892" pt_clust_4="38.96137" pt_clust_5="14000.00000" pt_clust_6="49.39719"></scales>
<clustering>
<clus scale="   38.961">  2  4  1 -1</clus>
<clus scale="   49.397">  1  6  2 -1</clus>
<clus scale="   86.569">  2  3  1 -1</clus>
<clus scale="   38.961">  2  3  1 -1</clus>
</clustering>
</event>
<event>
 6    0  0.6525019E+002  0.7991045E+02  0.7546771E-02  0.1329306E+00
         21   -1    0    0  504  502  0.00000000000E+00  0.00000000000E+00  0.13317451286E+03  0.13317451286E+03  0.00000000000E+00 0.  1.
          2   -1    0    0  503    0 -0.00000000000E+00 -0.00000000000E+00 -0.12672940363E+04  0.12672940363E+04  0.00000000000E+00 0. -1.
         21    1    1    2  503  502  0.40397235403E+02  0.46206788625E+02 -0.84683158166E+02  0.10458604697E+03  0.00000000000E+00 0.  1.
         21    1    1    2  504  505  0.48174561792E+01  0.78800380720E+02  0.99628470104E+02  0.12711624578E+03  0.00000000000E+00 0.  1.
         21    1    1    2  505  501 -0.29819784277E+02 -0.96940052266E+02 -0.25935775691E+03  0.27848346331E+03  0.00000000000E+00 0.  1.
          2    1    1    2  501    0 -0.15394907305E+02 -0.28067117080E+02 -0.88970707849E+03  0.89028279314E+03  0.00000000000E+00 0. -1.
<scales pt_clust_3="53.56230" pt_clust_4="79.91045" pt_clust_5="14000.00000" pt_clust_6="32.01197"></scales>
<clustering>
<clus scale="   32.012">  2  6  1 -1</clus>
<clus scale="   53.562">  2  3  1 -1</clus>
<clus scale="   79.910">  1  4  2 -1</clus>
<clus scale="   79.910">  1  3  2 -1</clus>
</clustering>
</event>
<event>
 6    0  0.6525019E+002  0.1929686E+03  0.7546771E-02  0.1155811E+00
         -1   -1    0    0    0  501 -0.00000000000E+00  0.00000000000E+00  0.91001462215E+03  0.91001462215E+03  0.00000000000E+00 0.  1.
         21   -1    0    0  504  502  0.00000000000E+00 -0.00000000000E+00 -0.13549543114E+03  0.13549543114E+03  0.00000000000E+00 0.  1.
         21    1    1    2  503  502 -0.30365914646E+02  0.22592305717E+02 -0.57680425164E+02  0.68989365101E+02  0.00000000000E+00 0. -1.
         21    1    1    2  504  501 -0.37473070269E+02  0.19714454377E+03  0.15065306049E+03  0.25093135868E+03  0.00000000000E+00 0.  1.
         21    1    1    2  505  503  0.40590874396E+02 -0.30960648613E+02  0.83550925559E+02  0.97912910326E+02  0.00000000000E+00 0. -1.
         -1    1    1    2    0  505  0.27248110519E+02 -0.18877620087E+03  0.59799563013E+03  0.62767641918E+03  0.00000000000E+00 0.  1.
<scales pt_clust_3="37.84840" pt_clust_4="192.96855" pt_clust_5="47.28461" pt_clust_6="14000.00000"></scales>
<clustering>
<clus scale="   37.848">  2  3  1 -1</clus>
<clus scale="   47.285">  2  5  1 -1</clus>
<clus scale="  192.969">  2  4  1 -1</clus>
<clus scale="   37.848">  2  3  1 -1</clus>
</clustering>
</event>
<event>
 6    0  0.6525019E+002  0.8510097E+02  0.7546771E-02  0.1315169E+00
          2   -1    0    0  505    0 -0.00000000000E+00  0.00000000000E+00  0.58183415752E+03  0.58183415752E+03  0.00000000000E+00 0.  1.
         21   -1    0    0  504  502  0.00000000000E+00 -0.00000000000E+00 -0.12736102826E+04  0.12736102826E+04  0.00000000000E+00 0.  1.
         21    1    1    2  503  501 -0.85091247002E+02 -0.19393817779E+02 -0.22393029388E+02  0.90100434236E+02  0.00000000000E+00 0. -1.
         21    1    1    2  504  503 -0.13697831955E+02 -0.27823494648E+02 -0.10249725836E+03  0.10708625228E+03  0.00000000000E+00 0. -1.
         21    1    1    2  505  502  0.51693883134E+02 -0.25209567755E+02 -0.11084021785E+04  0.11098933143E+04  0.00000000000E+00 0.  1.
          2    1    1    2  501    0  0.47095195823E+02  0.72426880182E+02  0.54151634121E+03  0.54836443925E+03  0.00000000000E+00 0.  1.
<scales pt_clust_3="14000.00000" pt_clust_4="31.01254" pt_clust_5="64.50730" pt_clust_6="85.10097"></scales>
<clustering>
<clus scale="   31.013">  2  4  1 -1</clus>
<clus scale="   64.507">  2  5  1 -1</clus>
<clus scale="   85.101">  1  6  2 -1</clus>
<clus scale="   31.013">  2  3  1 -1</clus>
</clustering>
</event>
<event>
 6    0  0.6525019E+002  0.1134047E+03  0.7546771E-02  0.1254392E+00
          2   -1    0    0  504    0 -0.00000000000E+00  0.00000000000E+00  0.42694122125E+03  0.42694122125E+03  0.00000000000E+00 0.  1.
         21   -1    0    0  503  502  0.00000000000E+00 -0.00000000000E+00 -0.52693313899E+03  0.52693313899E+03  0.00000000000E+00 0. -1.
         21    1    1    2  503  505 -0.40617779733E+02  0.48718667167E+00 -0.10682079673E+03  0.11428352460E+03  0.00000000000E+00 0. -1.
         21    1    1    2  504  502  0.91217802201E+02  0.54422140591E+02 -0.33371143433E+03  0.35020819269E+03  0.00000000000E+00 0. -1.
         21    1    1    2  505  501 -0.64731451079E+02  0.14659804049E+02 -0.55814988999E+02  0.86720145356E+02  0.00000000000E+00 0. -1.
          2    1    1    2  501    0  0.14131428612E+02 -0.69569131312E+02  0.39635530231E+03  0.40266249760E+03  0.00000000000E+00 0.  1.
<scales pt_clust_3="40.07585" pt_clust_4="101.17529" pt_clust_5="40.07585" pt_clust_6="70.98987"></scales>
<clustering>
<clus scale="   40.076">  3  5 -1 -1</clus>
<clus scale="   70.990">  1  6  2 -1</clus>
<clus scale="  101.175">  2  4  1 -1</clus>
<clus scale="  101.175">  2  3  1 -1</clus>
</clustering>
</event>
<event>
 6    0  0.6525019E+002  0.9783532E+02  0.7546771E-02  0.1284915E+00
         -1   -1    0    0    0  501 -0.00000000000E+00  0.00000000000E+00  0.43562316877E+02  0.43562316877E+02  0.00000000000E+00 0. -1.
         21   -1    0    0  504  502  0.00000000000E+00 -0.00000000000E+00 -0.30161655350E+04  0.30161655350E+04  0.00000000000E+00 0.  1.
         21    1    1    2  503  505 -0.33813152573E+02  0.55356966257E+02 -0.34214961721E+03  0.34824428718E+03  0.00000000000E+00 0.  1.
         21    1    1    2  504  501  0.94330731659E+02 -0.29255580883E+02 -0.60547869421E+03  0.61348074549E+03  0.00000000000E+00 0.  1.
         21    1    1    2  505  502 -0.93342297411E+02 -0.47875886250E+02 -0.20491185720E+04  0.20518020877E+04  0.00000000000E+00 0.  1.
         -1    1    1    2    0  503  0.32824718326E+02  0.21774500875E+02  0.24143665266E+02  0.46200731531E+02  0.00000000000E+00 0. -1.
<scales pt_clust_3="66.94588" pt_clust_4="14000.00000" pt_clust_5="97.83532" pt_clust_6="39.39024"></scales>
<clustering>
<clus scale="   39.390">  1  6  2 -1</clus>
<clus scale="   66.946">  1  3  2 -1</clus>
<clus scale="   97.835">  2  5  1 -1</clus>
<clus scale="   97.835">  2  3  1 -1</clus>
</clustering>
</event>
<event>
 6    0  0.6525019E+002  0.9806513E+02  0.7546771E-02  0.1284418E+00
         21   -1    0    0  504  502  0.00000000000E+00  0.00000000000E+00  0.28587503626E+03  0.28587503626E+03  0.00000000000E+00 0. -1.
          2   -1    0    0  505    0 -0.00000000000E+00 -0.00000000000E+00 -0.24502029531E+04  0.24502029531E+04  0.00000000000E+00 0. -1.
         21    1    1    2  503  501  0.74693204248E+02 -0.11729316164E+03  0.17176780843E+03  0.22099986548E+03  0.00000000000E+00 0. -1.
         21    1    1    2  504  503 -0.54041768693E+02  0.21782836518E+02  0.74083965575E+02  0.94251995658E+02  0.00000000000E+00 0. -1.
         21    1    1    2  505  502  0.10736426710E+02  0.49230640852E+02 -0.12243477656E+03  0.13239789034E+03  0.00000000000E+00 0.  1.
          2    1    1    2  501    0 -0.31387862266E+02  0.46279684268E+02 -0.22877449143E+04  0.22884282379E+04  0.00000000000E+00 0. -1.
<scales pt_clust_3="98.06513" pt_clust_4="58.30374" pt_clust_5="50.38776" pt_clust_6="14000.00000"></scales>
<clustering>
<clus scale="   50.388">  2  5  1 -1</clus>
<clus scale="   58.304">  1  4  2 -1</clus>
<clus scale="   98.065">  1  3  2 -1</clus>
<clus scale="   58.304">  1  3  2 -1</clus>
</clustering>
</event>
<event>
 6    0  0.6525019E+002  0.1100788E+03  0.7546771E-02  0.1260424E+00
          1   -1    0    0  503    0 -0.00000000000E+00  0.00000000000E+00  0.31568797353E+03  0.31568797353E+03  0.00000000000E+00 0.  1.
         21   -1    0    0  505  502  0.00000000000E+00 -0.00000000000E+00 -0.12851453816E+03  0.12851453816E+03  0.00000000000E+00 0. -1.
         21    1    1    2  503  504  0.69846224504E+02 -0.49961345448E+02  0.58462961415E+02  0.10388719350E+03  0.00000000000E+00 0. -1.
         21    1    1    2  504  502  0.90083340614E+02  0.14217095480E+02 -0.40673328051E+02  0.99857166367E+02  0.00000000000E+00 0. -1.
         21    1    1    2  505  501 -0.85711520637E+02  0.57882168257E+01  0.59430388436E+02  0.10446022829E+03  0.00000000000E+00 0.  1.
          1    1    1    2  501    0 -0.74218044481E+02  0.29956033142E+02  0.10995341358E+03  0.13599792353E+03  0.00000000000E+00 0.  1.
<scales pt_clust_3="85.87567" pt_clust_4="99.21290" pt_clust_5="46.02944" pt_clust_6="46.02944"></scales>
<clustering>
<clus scale="   46.029">  5  6 -1 -1</clus>
<clus scale="   85.876">  1  3  2 -1</clus>
<clus scale="   99.213">  2  4  1 -1</clus>
<clus scale="   99.213">  2  3  1 -1</clus>
</clustering>
</event>
<event>
 6    0  0.6525019E+002  0.9958088E+02  0.7546771E-02  0.1281180E+00
         21   -1    0    0  503  502  0.00000000000E+00  0.00000000000E+00  0.37674236276E+03  0.37674236276E+03  0.00000000000E+00 0. -1.
          3   -1    0    0  504    0 -0.00000000000E+00 -0.00000000000E+00 -0.11092720254E+03  0.11092720254E+03  0.00000000000E+00 0.  1.
         21    1    1    2  503  505  0.12479996832E+02 -0.42204300645E+02  0.20225603578E+03  0.20698902706E+03  0.00000000000E+00 0. -1.
         21    1    1    2  504  502 -0.64254473442E+02  0.11479106749E+03  0.21979277996E+02  0.13337434234E+03  0.00000000000E+00 0.  1.
         21    1    1    2  505  501  0.20059082452E+02 -0.67371596633E+02  0.73713002349E+02  0.10185728024E+03  0.00000000000E+00 0. -1.
          3    1    1    2  501    0  0.31715394158E+02 -0.52151702095E+01 -0.32133155902E+02  0.45448915665E+02  0.00000000000E+00 0.  1.
<scales pt_clust_3="44.48007" pt_clust_4="99.58088" pt_clust_5="14000.00000" pt_clust_6="32.14132"></scales>
<clustering>
<clus scale="   32.141">  2  6  1 -1</clus>
<clus scale="   44.480">  1  3  2 -1</clus>
<clus scale="   99.581">  2  4  1 -1</clus>
<clus scale="   44.480">  1  3  2 -1</clus>
</clustering>
</event>
<event>
 6    0  0.6525019E+002  0.1407908E+03  0.7546771E-02  0.1212269E+00
         21   -1    0    0  503  502  0.00000000000E+00  0.00000000000E+00  0.12990912049E+03  0.12990912049E+03  0.00000000000E+00 0. -1.
          1   -1    0    0  504    0 -0.00000000000E+00 -0.00000000000E+00 -0.68619347527E+03  0.68619347527E+03  0.00000000000E+00 0. -1.
         21    1    1    2  503  501  0.92077214341E+02 -0.12509401997E+03 -0.29887405384E+03  0.33682699906E+03  0.00000000000E+00 0. -1.
         21    1    1    2  504  505 -0.99663116438E+02  0.64838550975E+02 -0.67894380648E+02  0.13691757153E+03  0.00000000000E+00 0. -1.
         21    1    1    2  505  502 -0.18004057230E+02  0.37863215758E+02  0.69474564836E+02  0.81144835593E+02  0.00000000000E+00 0. -1.
          1    1    1    2  501    0  0.25589959326E+02  0.22392253234E+02 -0.25899048512E+03  0.26121318957E+03  0.00000000000E+00 0. -1.
<scales pt_clust_3="140.79082" pt_clust_4="14000.00000" pt_clust_5="42.05459" pt_clust_6="34.00381"></scales>
<clustering>
<clus scale="   34.004">  2  6  1 -1</clus>
<clus scale="   42.055">  1  5  2 -1</clus>
<clus scale="  140.791">  2  3  1 -1</clus>
<clus scale="   42.055">  1  3  2 -1</clus>
</clustering>
</event>
<event>
 6    0  0.6525019E+002  0.1597726E+03  0.7546771E-02  0.1188954E+00
         21   -1    0    0  503  502  0.00000000000E+00  0.00000000000E+00  0.57102670775E+02  0.57102670775E+02  0.00000000000E+00 0. -1.
          2   -1    0    0  505    0 -0.00000000000E+00 -0.00000000000E+00 -0.86606090458E+03  0.86606090458E+03  0.00000000000E+00 0. -1.
         21    1    1    2  503  504  0.21799014267E+02 -0.82242472174E+02 -0.98858642172E+02  0.13043025870E+03  0.00000000000E+00 0. -1.
         21    1    1    2  504  501  0.50587232304E+02 -0.31660184493E+02 -0.10931205258E+03  0.12454139952E+03  0.00000000000E+00 0. -1.
         21    1    1    2  505  502 -0.11867023099E+03  0.11126263695E+03 -0.17138429821E+03  0.23629341036E+03  0.00000000000E+00 0. -1.
          2    1    1    2  501    0  0.46283984418E+02  0.26400197189E+01 -0.42940324084E+03  0.43189850679E+03  0.00000000000E+00 0. -1.
<scales pt_clust_3="52.45134" pt_clust_4="52.45134" pt_clust_5="148.54413" pt_clust_6="46.35922"></scales>
<clustering>
<clus scale="   46.359">  2  6  1 -1</clus>
<clus scale="   52.451">  3  4 -1 -1</clus>
<clus scale="  148.544">  1  5  2 -1</clus>
<clus scale="  148.544">  1  3  2 -1</clus>
</clustering>
</event>
<event>
 6    0  0.6525019E+002  0.1457900E+03  0.7546771E-02  0.1205744E+00
          2   -1    0    0  504    0 -0.00000000000E+00  0.00000000000E+00  0.44793725012E+03  0.44793725012E+03  0.00000000000E+00 0.  1.
         21   -1    0    0  503  502  0.00000000000E+00 -0.00000000000E+00 -0.26650410465E+03  0.26650410465E+03  0.00000000000E+00 0. -1.
         21    1    1    2  503  501  0.13748047066E+02 -0.45134982546E+02 -0.52147629663E+02  0.70324609683E+02  0.00000000000E+00 0.  1.
         21    1    1    2  504  505  0.28071127339E+02  0.16201960103E+02  0.16526446663E+02  0.36381521966E+02  0.00000000000E+00 0.  1.
         21    1    1    2  505  502 -0.75921314274E+02  0.17078188071E+03 -0.13240540465E+03  0.22904516568E+03  0.00000000000E+00 0. -1.
          2    1    1    2  501    0  0.34102139869E+02 -0.14184885827E+03  0.34945973312E+03  0.37869005744E+03  0.00000000000E+00 0.  1.
<scales pt_clust_3="47.02946" pt_clust_4="32.41129" pt_clust_5="145.78996" pt_clust_6="14000.00000"></scales>
<clustering>
<clus scale="   32.411">  1  4  2 -1</clus>
<clus scale="   47.029">  2  3  1 -1</clus>
<clus scale="  145.790">  2  5  1 -1</clus>
<clus scale="   47.029">  2  3  1 -1</clus>
</clustering>
</event>
<event>
 6    0  0.6525019E+002  0.1363799E+03  0.7546771E-02  0.1218285E+00
         21   -1    0    0  504  502  0.00000000000E+00  0.00000000000E+00  0.51538011379E+03  0.51538011379E+03  0.00000000000E+00 0. -1.
          2   -1    0    0  503    0 -0.00000000000E+00 -0.00000000000E+00 -0.26612199717E+04  0.26612199717E+04  0.00000000000E+00 0.  1.
         21    1    1    2  503  505 -0.56174068657E+02 -0.11175859565E+03  0.27523398953E+02  0.12807438144E+03  0.00000000000E+00 0. -1.
         21    1    1    2  504  501  0.13152555416E+03 -0.28645156120E+01  0.74340664426E+02  0.15110827653E+03  0.00000000000E+00 0. -1.
         21    1    1    2  505  502  0.33886930435E+02  0.13639894881E+03  0.30838554914E+03  0.33890211597E+03  0.00000000000E+00 0. -1.
          2    1    1    2  501    0 -0.10923841594E+03 -0.21775837551E+02 -0.25560894705E+04  0.25585153116E+04  0.00000000000E+00 0.  1.
<scales pt_clust_3="14000.00000" pt_clust_4="91.82656" pt_clust_5="136.37989" pt_clust_6="111.38770"></scales>
<clustering>
<clus scale="  111.388">  2  6  1 -1</clus>
<clus scale="   91.827">  2  4  1 -1</clus>
<clus scale="  136.380">  1  5  2 -1</clus>
<clus scale="  136.380">  1  3  2 -1</clus>
</clustering>
</event>
<event>
 6    0  0.6525019E+002  0.6566868E+02  0.7546771E-02  0.1375474E+00
         21   -1    0    0  505  502  0.00000000000E+00  0.00000000000E+00  0.69348638751E+02  0.69348638751E+02  0.00000000000E+00 0.  1.
          1   -1    0    0  504    0 -0.00000000000E+00 -0.00000000000E+00 -0.10699548170E+04  0.10699548170E+04  0.00000000000E+00 0.  1.
         21    1    1    2  503  501  0.73137349709E+01  0.92134991039E+02 -0.44651046333E+02  0.10264532737E+03  0.00000000000E+00 0.  1.
         21    1    1    2  504  502 -0.13546342856E+02 -0.40146576530E+02 -0.60360615991E+03  0.60509143714E+03  0.00000000000E+00 0.  1.
         21    1    1    2  505  503 -0.49920280254E+02 -0.38966129932E+02  0.10478580072E+02  0.64188739689E+02  0.00000000000E+00 0.  1.
          1    1    1    2  501    0  0.56152888139E+02 -0.13022284577E+02 -0.36282755211E+03  0.36737795159E+03  0.00000000000E+00 0.  1.
<scales pt_clust_3="14000.00000" pt_clust_4="42.37040" pt_clust_5="65.66868" pt_clust_6="63.66753"></scales>
<clustering>
<clus scale="   42.370">  2  4  1 -1</clus>
<clus scale="   63.668">  2  6  1 -1</clus>
<clus scale="   65.669">  1  5  2 -1</clus>
<clus scale="   65.669">  1  3  2 -1</clus>
</clustering>
</event>
<event>
 6    0  0.6525019E+002  0.1346349E+03  0.7546771E-02  0.1220736E+00
         21   -1    0    0  505  502  0.00000000000E+00  0.00000000000E+00  0.17218670694E+03  0.17218670694E+03  0.00000000000E+00 0.  1.
          2   -1    0    0  504    0 -0.00000000000E+00 -0.00000000000E+00 -0.70247892553E+03  0.70247892553E+03  0.00000000000E+00 0.  1.
         21    1    1    2  503  501 -0.10332079693E+03 -0.64044002461E+02 -0.28296732462E+03  0.30797293409E+03  0.00000000000E+00 0.  1.
         21    1    1    2  504  502  0.74947595035E+02  0.86521624628E+02  0.69413542678E+02  0.13387073406E+03  0.00000000000E+00 0.  1.
         21    1    1    2  505  503  0.59278716303E+02 -0.33904718572E+02  0.36920530492E+02  0.77631319194E+02  0.00000000000E+00 0.  1.
          2    1    1    2  501    0 -0.30905514411E+02  0.11427096405E+02 -0.35365896714E+03  0.35519064513E+03  0.00000000000E+00 0.  1.
<scales pt_clust_3="134.63492" pt_clust_4="14000.00000" pt_clust_5="66.38980" pt_clust_6="32.95041"></scales>
<clustering>
<clus scale="   32.950">  2  6  1 -1</clus>
<clus scale="   66.390">  1  5  2 -1</clus>
<clus scale="  134.635">  2  3  1 -1</clus>
<clus scale="   66.390">  1  3  2 -1</clus>
</clustering>
</event>
<event>
 6    0  0.6525019E+002  0.2057162E+03  0.7546771E-02  0.1145004E+00
          2   -1    0    0  504    0 -0.00000000000E+00  0.00000000000E+00  0.79725022170E+03  0.79725022170E+03  0.00000000000E+00 0.  1.
         21   -1    0    0  503  502  0.00000000000E+00 -0.00000000000E+00 -0.19096716213E+03  0.19096716213E+03  0.00000000000E+00 0. -1.
         21    1    1    2  503  501  0.80154719288E+02 -0.18913741575E+03  0.75012035209E+02  0.21868824040E+03  0.00000000000E+00 0. -1.
         21    1    1    2  504  505 -0.81249248353E+02  0.18982779016E+03  0.38367457133E+02  0.21001926588E+03  0.00000000000E+00 0.  1.
         21    1    1    2  505  502 -0.59850774386E+02 -0.30191632829E+02  0.53179219864E+01  0.67245298584E+02  0.00000000000E+00 0. -1.
          2    1    1    2  501    0  0.60945303450E+02  0.29501258426E+02  0.48758564524E+03  0.49226457897E+03  0.00000000000E+00 0.  1.
<scales pt_clust_3="205.71624" pt_clust_4="14000.00000" pt_clust_5="67.03469" pt_clust_6="66.73007"></scales>
<clustering>
<clus scale="   67.035">  2  5  1 -1</clus>
<clus scale="   66.730">  1  6  2 -1</clus>
<clus scale="  205.716">  1  3  2 -1</clus>
<clus scale="   67.035">  2  3  1 -1</clus>
</clustering>
</event>
<event>
 6    0  0.6525019E+002  0.8316671E+02  0.7546771E-02  0.1320298E+00
         21   -1    0    0  503  502  0.00000000000E+00  0.00000000000E+00  0.15253171440E+03  0.15253171440E+03  0.00000000000E+00 0.  1.
          2   -1    0    0  505    0 -0.00000000000E+00 -0.00000000000E+00 -0.87163377988E+03  0.87163377988E+03  0.00000000000E+00 0.  1.
         21    1    1    2  503  504 -0.39247851617E+02  0.31445179459E+02  0.25351932867E+02  0.56319744920E+02  0.00000000000E+00 0.  1.
         21    1    1    2  504  501  0.50264502784E+02  0.40499613976E+02 -0.74665353152E+02  0.98699817293E+02  0.00000000000E+00 0.  1.
         21    1    1    2  505  502  0.31887002274E+02 -0.14165571754E+03  0.43187039214E+02  0.15148677692E+03  0.00000000000E+00 0.  1.
          2    1    1    2  501    0 -0.42903653441E+02  0.69710924102E+02 -0.71297568440E+03  0.71765915515E+03  0.00000000000E+00 0.  1.
<scales pt_clust_3="50.29108" pt_clust_4="63.60465" pt_clust_5="83.16671" pt_clust_6="14000.00000"></scales>
<clustering>
<clus scale="   50.291">  1  3  2 -1</clus>
<clus scale="   63.605">  1  4  2 -1</clus>
<clus scale="   83.167">  1  5  2 -1</clus>
<clus scale="   50.291">  1  3  2 -1</clus>
</clustering>
</event>
<event>
 6    0  0.6525019E+002  0.1326192E+03  0.7546771E-02  0.1223620E+00
          2   -1    0    0  503    0 -0.00000000000E+00  0.00000000000E+00  0.13694698134E+04  0.13694698134E+04  0.00000000000E+00 0.  1.
         21   -1    0    0  504  502  0.00000000000E+00 -0.00000000000E+00 -0.29458626060E+03  0.29458626060E+03  0.00000000000E+00 0. -1.
         21    1    1    2  503  505 -0.83478888436E+01  0.77971087989E+02  0.99086375278E+02  0.12636173304E+03  0.00000000000E+00 0. -1.
         21    1    1    2  504  501 -0.78276366556E+02  0.96746575351E+02 -0.13912167936E+03  0.18665993430E+03  0.00000000000E+00 0. -1.
         21    1    1    2  505  502  0.76352342312E+02 -0.12922150772E+03 -0.69707498350E+02  0.16549022195E+03  0.00000000000E+00 0. -1.
          2    1    1    2  501    0  0.10271913087E+02 -0.45496155617E+02  0.11846263553E+04  0.11855441847E+04  0.00000000000E+00 0.  1.
<scales pt_clust_3="50.19949" pt_clust_4="14000.00000" pt_clust_5="132.61921" pt_clust_6="46.64132"></scales>
<clustering>
<clus scale="   46.641">  1  6  2 -1</clus>
<clus scale="   50.199">  1  3  2 -1</clus>
<clus scale="  132.619">  1  5  2 -1</clus>
<clus scale="  132.619">  2  3  1 -1</clus>
</clustering>
</event>
<event>
 6    0  0.6525019E+002  0.7691103E+02  0.7546771E-02  0.1338053E+00
          2   -1    0    0  503    0 -0.00000000000E+00  0.00000000000E+00  0.28732607166E+04  0.28732607166E+04  0.00000000000E+00 0. -1.
         21   -1    0    0  504  502  0.00000000000E+00 -0.00000000000E+00 -0.20341560248E+03  0.20341560248E+03  0.00000000000E+00 0. -1.
         21    1    1    2  503  505 -0.61931568767E+02  0.46960192038E+02  0.11696705200E+04  0.11722499325E+04  0.00000000000E+00 0.  1.
         21    1    1    2  504  501  0.86093849426E+02 -0.41221533714E+02  0.12781806052E+02  0.96305453203E+02  0.00000000000E+00 0. -1.
         21    1    1    2  505  502 -0.89616904014E+01  0.48433682786E+02 -0.15608904398E+03  0.16367627554E+03  0.00000000000E+00 0. -1.
          2    1    1    2  501    0 -0.15200590257E+02 -0.54172341110E+02  0.16434818320E+04  0.16444446578E+04  0.00000000000E+00 0. -1.
<scales pt_clust_3="14000.00000" pt_clust_4="76.91103" pt_clust_5="49.25580" pt_clust_6="55.77616"></scales>
<clustering>
<clus scale="   49.256">  2  5  1 -1</clus>
<clus scale="   55.776">  1  6  2 -1</clus>
<clus scale="   76.911">  2  4  1 -1</clus>
<clus scale="   49.256">  2  3  1 -1</clus>
</clustering>
</event>
<event>
 6    0  0.6525019E+002  0.7230264E+02  0.7546771E-02  0.1352433E+00
         21   -1    0    0  504  502  0.00000000000E+00  0.00000000000E+00  0.14614174544E+03  0.14614174544E+03  0.00000000000E+00 0.  1.
          2   -1    0    0  502    0 -0.00000000000E+00 -0.00000000000E+00 -0.18285438838E+04  0.18285438838E+04  0.00000000000E+00 0.  1.
         21    1    1    2  503  505  0.70663112742E+02 -0.18478355012E+02  0.29525008392E+02  0.78781033421E+02  0.00000000000E+00 0.  1.
         21    1    1    2  504  503 -0.27171597230E+02 -0.36163673044E+02  0.76536709200E+02  0.88904301354E+02  0.00000000000E+00 0.  1.
         21    1    1    2  505  501 -0.84551718834E+02  0.74785962126E+02 -0.34881030107E+03  0.36662045690E+03  0.00000000000E+00 0.  1.
          2    1    1    2  501    0  0.41060203321E+02 -0.20143934070E+02 -0.14396535549E+04  0.14403798376E+04  0.00000000000E+00 0.  1.
<scales pt_clust_3="72.30264" pt_clust_4="45.23391" pt_clust_5="14000.00000" pt_clust_6="45.68754"></scales>
<clustering>
<clus scale="   45.234">  1  4  2 -1</clus>
<clus scale="   45.688">  2  6  1 -1</clus>
<clus scale="   72.303">  1  3  2 -1</clus>
<clus scale="   45.234">  1  3  2 -1</clus>
</clustering>
</event>
<event>
 6    0  0.8358410E+002  0.1000008E+03  0.7546771E-02  0.1280294E+00
          2   -1    0    0  504    0 -0.00000000000E+00  0.00000000000E+00  0.29649615053E+04  0.29649615053E+04  0.00000000000E+00 0. -1.
         21   -1    0    0  503  502  0.00000000000E+00 -0.00000000000E+00 -0.28521378334E+03  0.28521378334E+03  0.00000000000E+00 0.  1.
         21    1    1    2  503  501  0.27948545277E+02 -0.15506741230E+02 -0.23592398818E+03  0.23807920616E+03  0.00000000000E+00 0.  1.
         21    1    1    2  504  505 -0.56510525848E+02 -0.17762864088E+01  0.93995176204E+03  0.94165063038E+03  0.00000000000E+00 0.  1.
         21    1    1    2  505  502  0.37231106905E+02  0.93050026192E+02  0.72339660406E+01  0.10048279933E+03  0.00000000000E+00 0.  1.
          2    1    1    2  501    0 -0.86691263339E+01 -0.75766998553E+02  0.19684859820E+04  0.19699626528E+04  0.00000000000E+00 0. -1.
<scales pt_clust_3="31.96217" pt_clust_4="56.05559" pt_clust_5="100.00082" pt_clust_6="14000.00000"></scales>
<clustering>
<clus scale="   31.962">  2  3  1 -1</clus>
<clus scale="   56.056">  1  4  2 -1</clus>
<clus scale="  100.001">  2  5  1 -1</clus>
<clus scale="   31.962">  2  3  1 -1</clus>
</clustering>
</event>
<event>
 6    0  0.6525019E+002  0.1215309E+03  0.7546771E-02  0.1240593E+00
          1   -1    0    0  504    0 -0.00000000000E+00  0.00000000000E+00  0.98837730778E+03  0.98837730778E+03  0.00000000000E+00 0.  1.
         21   -1    0    0  503  502  0.00000000000E+00 -0.00000000000E+00 -0.29902834462E+03  0.29902834462E+03  0.00000000000E+00 0. -1.
         21    1    1    2  503  505  0.14667854766E+02  0.47164802349E+02 -0.24646754011E+02  0.55200788285E+02  0.00000000000E+00 0.  1.
         21    1    1    2  504  502 -0.17100360944E+03  0.61850056381E+02 -0.11260517317E+03  0.21388686014E+03  0.00000000000E+00 0. -1.
         21    1    1    2  505  501  0.37896755740E+02 -0.89020101071E+02 -0.66355550450E+02  0.11731922931E+03  0.00000000000E+00 0. -1.
          1    1    1    2  501    0  0.11843899893E+03 -0.19994757659E+02  0.89295644080E+03  0.90099877467E+03  0.00000000000E+00 0.  1.
<scales pt_clust_3="49.39296" pt_clust_4="14000.00000" pt_clust_5="84.17215" pt_clust_6="121.53095"></scales>
<clustering>
<clus scale="   49.393">  2  3  1 -1</clus>
<clus scale="   84.172">  2  5  1 -1</clus>
<clus scale="  121.531">  1  6  2 -1</clus>
<clus scale="   49.393">  2  3  1 -1</clus>
</clustering>
</event>
<event>
 6    0  0.6525019E+002  0.9961824E+02  0.7546771E-02  0.1281101E+00
          1   -1    0    0  505    0 -0.00000000000E+00  0.00000000000E+00  0.74622562592E+03  0.74622562592E+03  0.00000000000E+00 0.  1.
         21   -1    0    0  504  502  0.00000000000E+00 -0.00000000000E+00 -0.33072376852E+03  0.33072376852E+03  0.00000000000E+00 0. -1.
         21    1    1    2  503  502 -0.71453841713E+02 -0.14934889749E+02 -0.22245656752E+03  0.23412737315E+03  0.00000000000E+00 0. -1.
         21    1    1    2  504  501  0.34717992374E+02  0.18947786734E+02  0.12615316429E+02  0.41515103579E+02  0.00000000000E+00 0.  1.
         21    1    1    2  505  503 -0.62456306422E+02  0.15764508881E+02 -0.72033303714E+02  0.96633880167E+02  0.00000000000E+00 0. -1.
          1    1    1    2  501    0  0.99192155761E+02 -0.19777405866E+02  0.69737641220E+03  0.70467303755E+03  0.00000000000E+00 0.  1.
<scales pt_clust_3="46.41085" pt_clust_4="39.55196" pt_clust_5="14000.00000" pt_clust_6="99.61824"></scales>
<clustering>
<clus scale="   39.552">  2  4  1 -1</clus>
<clus scale="   46.411">  2  3  1 -1</clus>
<clus scale="   99.618">  1  6  2 -1</clus>
<clus scale="   39.552">  2  3  1 -1</clus>
</clustering>
</event>
<event>
 6    0  0.6525019E+002  0.1489081E+03  0.7546771E-02  0.1201821E+00
         21   -1    0    0  503  502  0.00000000000E+00  0.00000000000E+00  0.16973957213E+03  0.16973957213E+03  0.00000000000E+00 0. -1.
          2   -1    0    0  504    0 -0.00000000000E+00 -0.00000000000E+00 -0.38177749930E+04  0.38177749930E+04  0.00000000000E+00 0.  1.
         21    1    1    2  503  501 -0.14008735100E+03 -0.13870691339E+03 -0.82239499359E+03  0.84569356106E+03  0.00000000000E+00 0.  1.
         21    1    1    2  504  505  0.71295586384E+01  0.29684050283E+02 -0.71599146157E+02  0.77835796251E+02  0.00000000000E+00 0. -1.
         21    1    1    2  505  502  0.87600398541E+02  0.11802271460E+03  0.11989393108E+03  0.18967800531E+03  0.00000000000E+00 0. -1.
          2    1    1    2  501    0  0.45357393816E+02 -0.89998514980E+01 -0.28739352122E+04  0.28743072025E+04  0.00000000000E+00 0.  1.
<scales pt_clust_3="148.90813" pt_clust_4="30.52824" pt_clust_5="14000.00000" pt_clust_6="52.67000"></scales>
<clustering>
<clus scale="   30.528">  2  4  1 -1</clus>
<clus scale="   52.670">  2  6  1 -1</clus>
<clus scale="  148.908">  2  3  1 -1</clus>
<clus scale="  148.908">  1  3  2 -1</clus>
</clustering>
</event>
<event>
 6    0  0.6525019E+002  0.2170094E+03  0.7546771E-02  0.1136132E+00
         21   -1    0    0  501  502  0.00000000000E+00  0.00000000000E+00  0.52380933097E+03  0.52380933097E+03  0.00000000000E+00 0. -1.
          2   -1    0    0  504    0 -0.00000000000E+00 -0.00000000000E+00 -0.14040734601E+04  0.14040734601E+04  0.00000000000E+00 0.  1.
         21    1    1    2  503  502  0.84680333857E+02 -0.41374392432E+02  0.44940596689E+03  0.45918223220E+03  0.00000000000E+00 0. -1.
         21    1    1    2  504  505 -0.12360719718E+03  0.16636427160E+03 -0.58349168715E+03  0.61920784801E+03  0.00000000000E+00 0.  1.
         21    1    1    2  505  503  0.86381759377E+02 -0.15384066892E+03 -0.10376863572E+03  0.20468680838E+03  0.00000000000E+00 0.  1.
          2    1    1    2  501    0 -0.47454896049E+02  0.28850789758E+02 -0.64240977315E+03  0.64480590247E+03  0.00000000000E+00 0.  1.
<scales pt_clust_3="93.89207" pt_clust_4="14000.00000" pt_clust_5="217.00940" pt_clust_6="55.53679"></scales>
<clustering>
<clus scale="   55.537">  2  6  1 -1</clus>
<clus scale="   93.892">  1  3  2 -1</clus>
<clus scale="  217.009">  1  5  2 -1</clus>
<clus scale="   93.892">  1  3  2 -1</clus>
</clustering>
</event>
<event>
 6    0  0.6525019E+002  0.8583888E+02  0.7546771E-02  0.1313253E+00
         21   -1    0    0  503  502  0.00000000000E+00  0.00000000000E+00  0.13537443533E+03  0.13537443533E+03  0.00000000000E+00 0. -1.
          4   -1    0    0  505    0 -0.00000000000E+00 -0.00000000000E+00 -0.20110660591E+03  0.20110660591E+03  0.00000000000E+00 0. -1.
         21    1    1    2  503  501  0.49316997777E+02 -0.17045415394E+02  0.16259549415E+02  0.54654234995E+02  0.00000000000E+00 0. -1.
         21    1    1    2  504  502 -0.28467726172E+02  0.13763123579E+02  0.52890132826E+02  0.61621434213E+02  0.00000000000E+00 0. -1.
         21    1    1    2  505  504 -0.79562020144E+02 -0.47784181777E+02 -0.94832755542E+02  0.13269022044E+03  0.00000000000E+00 0. -1.
          4    1    1    2  501    0  0.58712748540E+02  0.51066473592E+02 -0.40049097280E+02  0.87515151597E+02  0.00000000000E+00 0. -1.
<scales pt_clust_3="37.96408" pt_clust_4="31.62017" pt_clust_5="14000.00000" pt_clust_6="85.83888"></scales>
<clustering>
<clus scale="   31.620">  1  4  2 -1</clus>
<clus scale="   37.964">  1  3  2 -1</clus>
<clus scale="   85.839">  1  6  2 -1</clus>
<clus scale="   31.620">  1  3  2 -1</clus>
</clustering>
</event>
<event>
 6    0  0.6525019E+002  0.6672254E+02  0.7546771E-02  0.1371607E+00
         21   -1    0    0  503  502  0.00000000000E+00  0.00000000000E+00  0.24101581677E+03  0.24101581677E+03  0.00000000000E+00 0. -1.
          1   -1    0    0  504    0 -0.00000000000E+00 -0.00000000000E+00 -0.43941553679E+03  0.43941553679E+03  0.00000000000E+00 0.  1.
         21    1    1    2  503  501  0.25297995923E+02  0.17876029693E+02  0.52585025991E+02  0.61030533291E+02  0.00000000000E+00 0. -1.
         21    1    1    2  504  505  0.58794205095E+02  0.26279025602E+02 -0.97277651161E+02  0.11666313537E+03  0.00000000000E+00 0.  1.
         21    1    1    2  505  502 -0.63106505458E+02  0.37646343443E+02  0.16095739460E+03  0.17693773221E+03  0.00000000000E+00 0. -1.
          1    1    1    2  501    0 -0.20985695559E+02 -0.81801398737E+02 -0.31466448944E+03  0.32579995268E+03  0.00000000000E+00 0.  1.
<scales pt_clust_3="30.97646" pt_clust_4="65.99974" pt_clust_5="14000.00000" pt_clust_6="66.72254"></scales>
<clustering>
<clus scale="   30.976">  1  3  2 -1</clus>
<clus scale="   66.000">  2  4  1 -1</clus>
<clus scale="   66.723">  2  6  1 -1</clus>
<clus scale="   30.976">  1  3  2 -1</clus>
</clustering>
</event>
<event>
 6    0  0.6525019E+002  0.1232728E+03  0.7546771E-02  0.1237794E+00
          2   -1    0    0  503    0 -0.00000000000E+00  0.00000000000E+00  0.17488302608E+04  0.17488302608E+04  0.00000000000E+00 0.  1.
         21   -1    0    0  504  502  0.00000000000E+00 -0.00000000000E+00 -0.41782938695E+03  0.41782938695E+03  0.00000000000E+00 0. -1.
         21    1    1    2  503  505 -0.10153883062E+03  0.12416506839E+03  0.24902317345E+03  0.29620877645E+03  0.00000000000E+00 0. -1.
         21    1    1    2  504  501  0.67197183659E+02 -0.76136808439E+02  0.54109153815E+02  0.11506552749E+03  0.00000000000E+00 0. -1.
         21    1    1    2  505  502 -0.18741803964E+02 -0.35446586738E+02 -0.36211675845E+03  0.36432988140E+03  0.00000000000E+00 0. -1.
          2    1    1    2  501    0  0.53083450923E+02 -0.12581673209E+02  0.13899853050E+04  0.13910554624E+04  0.00000000000E+00 0.  1.
<scales pt_clust_3="14000.00000" pt_clust_4="123.27279" pt_clust_5="40.09633" pt_clust_6="54.45685"></scales>
<clustering>
<clus scale="   40.096">  2  5  1 -1</clus>
<clus scale="   54.457">  1  6  2 -1</clus>
<clus scale="  123.273">  2  4  1 -1</clus>
<clus scale="   40.096">  2  3  1 -1</clus>
</clustering>
</event>
<event>
 6    0  0.6525019E+002  0.1031365E+03  0.7546771E-02  0.1273835E+00
          1   -1    0    0  504    0 -0.00000000000E+00  0.00000000000E+00  0.16457269927E+04  0.16457269927E+04  0.00000000000E+00 0.  1.
         21   -1    0    0  501  502  0.00000000000E+00 -0.00000000000E+00 -0.21647309982E+03  0.21647309982E+03  0.00000000000E+00 0.  1.
         21    1    1    2  503  502 -0.22599021401E+02  0.23055832354E+02 -0.13594456406E+03  0.13972548683E+03  0.00000000000E+00 0.  1.
         21    1    1    2  504  505  0.10486656205E+03 -0.89912014709E+02  0.15915247452E+03  0.21073840744E+03  0.00000000000E+00 0.  1.
         21    1    1    2  505  503 -0.52775088866E+02  0.52273557687E+02 -0.26459248800E+02  0.78853197051E+02  0.00000000000E+00 0.  1.
          1    1    1    2  501    0 -0.29492451780E+02  0.14582624668E+02  0.14325052312E+04  0.14328830012E+04  0.00000000000E+00 0.  1.
<scales pt_clust_3="32.28447" pt_clust_4="14000.00000" pt_clust_5="103.13652" pt_clust_6="32.97394"></scales>
<clustering>
<clus scale="   32.284">  2  3  1 -1</clus>
<clus scale="   32.974">  1  6  2 -1</clus>
<clus scale="  103.137">  2  5  1 -1</clus>
<clus scale="   32.284">  2  3  1 -1</clus>
</clustering>
</event>
<event>
 6    0  0.6525019E+002  0.1336846E+03  0.7546771E-02  0.1222089E+00
         21   -1    0    0  501  502  0.00000000000E+00  0.00000000000E+00  0.21626845838E+03  0.21626845838E+03  0.00000000000E+00 0. -1.
          1   -1    0    0  503    0 -0.00000000000E+00 -0.00000000000E+00 -0.78039892196E+03  0.78039892196E+03  0.00000000000E+00 0. -1.
         21    1    1    2  503  504 -0.35458403888E+02 -0.23249145851E+02 -0.38083758061E+02  0.56992927782E+02  0.00000000000E+00 0. -1.
         21    1    1    2  504  505 -0.68996124499E+02 -0.10737849950E+03  0.37921004375E+02  0.13314882622E+03  0.00000000000E+00 0. -1.
         21    1    1    2  505  502  0.10319286993E+03  0.95858036688E+02  0.79757804489E+02  0.16186055412E+03  0.00000000000E+00 0. -1.
          1    1    1    2  501    0  0.12616584576E+01  0.34769608663E+02 -0.64372551439E+03  0.64466507222E+03  0.00000000000E+00 0. -1.
<scales pt_clust_3="36.73934" pt_clust_4="14000.00000" pt_clust_5="133.68463" pt_clust_6="34.79249"></scales>
<clustering>
<clus scale="   34.792">  2  6  1 -1</clus>
<clus scale="   36.739">  2  3  1 -1</clus>
<clus scale="  133.685">  1  5  2 -1</clus>
<clus scale="  133.685">  1  3  2 -1</clus>
</clustering>
</event>
<event>
 6    0  0.6525019E+002  0.1005541E+03  0.7546771E-02  0.1279135E+00
          2   -1    0    0  504    0 -0.00000000000E+00  0.00000000000E+00  0.64574948148E+03  0.64574948148E+03  0.00000000000E+00 0.  1.
         21   -1    0    0  505  502  0.00000000000E+00 -0.00000000000E+00 -0.53421999457E+03  0.53421999457E+03  0.00000000000E+00 0.  1.
         21    1    1    2  503  502  0.28813594655E+02 -0.21324098716E+02 -0.29520171542E+03  0.29737012831E+03  0.00000000000E+00 0.  1.
         21    1    1    2  504  503  0.34070977502E+02  0.24977295542E+02 -0.45434318162E+02  0.62040100479E+02  0.00000000000E+00 0.  1.
         21    1    1    2  505  501 -0.23357779578E+02  0.89473139779E+02 -0.16822972207E+03  0.19196944548E+03  0.00000000000E+00 0.  1.
          2    1    1    2  501    0 -0.39526792578E+02 -0.93126336606E+02  0.62039524256E+03  0.62858980178E+03  0.00000000000E+00 0.  1.
<scales pt_clust_3="35.84607" pt_clust_4="45.31105" pt_clust_5="14000.00000" pt_clust_6="100.55411"></scales>
<clustering>
<clus scale="   35.846">  2  3  1 -1</clus>
<clus scale="   45.311">  2  4  1 -1</clus>
<clus scale="  100.554">  1  6  2 -1</clus>
<clus scale="   35.846">  2  3  1 -1</clus>
</clustering>
</event>
<event>
 6    0  0.6525019E+002  0.6880363E+02  0.7546771E-02  0.1364209E+00
         21   -1    0    0  504  502  0.00000000000E+00  0.00000000000E+00  0.94368460865E+02  0.94368460865E+02  0.00000000000E+00 0.  1.
          1   -1    0    0  505    0 -0.00000000000E+00 -0.00000000000E+00 -0.47783232764E+03  0.47783232764E+03  0.00000000000E+00 0.  1.
         21    1    1    2  503  501 -0.50611211207E+02 -0.91186600418E+01 -0.51689309013E+02  0.72913848664E+02  0.00000000000E+00 0.  1.
         21    1    1    2  504  503  0.12215251473E+02  0.38801823581E+02  0.46513829204E+02  0.61792638631E+02  0.00000000000E+00 0.  1.
         21    1    1    2  505  502  0.89664640123E+02 -0.66546709025E+02 -0.93049116789E+02  0.14534906366E+03  0.00000000000E+00 0.  1.
          1    1    1    2  501    0 -0.51268680389E+02  0.36863545485E+02 -0.28523927018E+03  0.29214523756E+03  0.00000000000E+00 0.  1.
<scales pt_clust_3="47.40102" pt_clust_4="40.67916" pt_clust_5="68.80363" pt_clust_6="14000.00000"></scales>
<clustering>
<clus scale="   40.679">  1  4  2 -1</clus>
<clus scale="   47.401">  1  3  2 -1</clus>
<clus scale="   68.804">  1  5  2 -1</clus>
<clus scale="   40.679">  1  3  2 -1</clus>
</clustering>
</event>
<event>
 6    0  0.6525019E+002  0.1740344E+03  0.7546771E-02  0.1173705E+00
         21   -1    0    0  504  502  0.00000000000E+00  0.00000000000E+00  0.94873261736E+02  0.94873261736E+02  0.00000000000E+00 0.  1.
          2   -1    0    0  503    0 -0.00000000000E+00 -0.00000000000E+00 -0.15895297122E+04  0.15895297122E+04  0.00000000000E+00 0.  1.
         21    1    1    2  503  502 -0.12285520349E+03  0.64623092482E+02 -0.17967066621E+03  0.22704865867E+03  0.00000000000E+00 0.  1.
         21    1    1    2  504  505  0.33271522777E+02  0.61964198680E+01 -0.56864499867E+01  0.34318006360E+02  0.00000000000E+00 0.  1.
         21    1    1    2  505  501  0.11455641834E+03 -0.10176900230E+03 -0.47237410764E+02  0.16034798343E+03  0.00000000000E+00 0.  1.
          2    1    1    2  501    0 -0.24972737633E+02  0.30949489955E+02 -0.12620619235E+04  0.12626883255E+04  0.00000000000E+00 0.  1.
<scales pt_clust_3="161.80628" pt_clust_4="30.11685" pt_clust_5="30.11685" pt_clust_6="39.76819"></scales>
<clustering>
<clus scale="   30.117">  4  5 -1 -1</clus>
<clus scale="   39.768">  2  6  1 -1</clus>
<clus scale="  161.806">  2  3  1 -1</clus>
<clus scale="  174.034">  1  3  2 -1</clus>
</clustering>
</event>
<event>
 6    0  0.6525019E+002  0.1301172E+03  0.7546771E-02  0.1227282E+00
         21   -1    0    0  505  502  0.00000000000E+00  0.00000000000E+00  0.20687336340E+03  0.20687336340E+03  0.00000000000E+00 0. -1.
          1   -1    0    0  503    0 -0.00000000000E+00 -0.00000000000E+00 -0.75646415019E+03  0.75646415019E+03  0.00000000000E+00 0. -1.
         21    1    1    2  503  502  0.15023614985E+03  0.24710326379E+02  0.79216640338E+02  0.17162976740E+03  0.00000000000E+00 0. -1.
         21    1    1    2  504  501 -0.11051447102E+03 -0.53110096769E+02 -0.65221325632E+02  0.13888107143E+03  0.00000000000E+00 0. -1.
         21    1    1    2  505  504 -0.48264867785E+02  0.57828492863E+02  0.12131424381E+02  0.76294190517E+02  0.00000000000E+00 0. -1.
          1    1    1    2  501    0  0.85431889537E+01 -0.29428722474E+02 -0.57571752587E+03  0.57653248424E+03  0.00000000000E+00 0. -1.
<scales pt_clust_3="130.11721" pt_clust_4="14000.00000" pt_clust_5="70.36445" pt_clust_6="30.64369"></scales>
<clustering>
<clus scale="   30.644">  2  6  1 -1</clus>
<clus scale="   70.364">  1  5  2 -1</clus>
<clus scale="  130.117">  1  3  2 -1</clus>
<clus scale="   70.364">  1  3  2 -1</clus>
</clustering>
</event>
<event>
 6    0  0.6525019E+002  0.8690706E+02  0.7546771E-02  0.1310519E+00
         21   -1    0    0  504  502  0.00000000000E+00  0.00000000000E+00  0.16917360247E+03  0.16917360247E+03  0.00000000000E+00 0. -1.
          2   -1    0    0  503    0 -0.00000000000E+00 -0.00000000000E+00 -0.13882677665E+04  0.13882677665E+04  0.00000000000E+00 0. -1.
         21    1    1    2  503  502  0.73163004964E+02  0.21038055798E+02  0.47492772339E+02  0.89727300815E+02  0.00000000000E+00 0. -1.
         21    1    1    2  504  505 -0.57045599927E+01  0.31821565009E+02  0.58565888535E+02  0.66896317569E+02  0.00000000000E+00 0. -1.
         21    1    1    2  505  501 -0.54465177653E+02 -0.11536777327E+03 -0.72897782814E+02  0.14693626314E+03  0.00000000000E+00 0.  1.
          2    1    1    2  501    0 -0.12993267318E+02  0.62508152461E+02 -0.12522550420E+04  0.12538814874E+04  0.00000000000E+00 0. -1.
<scales pt_clust_3="14000.00000" pt_clust_4="32.32884" pt_clust_5="86.90706" pt_clust_6="64.09120"></scales>
<clustering>
<clus scale="   32.329">  1  4  2 -1</clus>
<clus scale="   64.091">  2  6  1 -1</clus>
<clus scale="   86.907">  2  5  1 -1</clus>
<clus scale="   32.329">  1  3  2 -1</clus>
</clustering>
</event>
<event>
 6    0  0.6525019E+002  0.1089709E+03  0.7546771E-02  0.1262487E+00
          2   -1    0    0  505    0 -0.00000000000E+00  0.00000000000E+00  0.20259786339E+04  0.20259786339E+04  0.00000000000E+00 0. -1.
         21   -1    0    0  501  502  0.00000000000E+00 -0.00000000000E+00 -0.37254239642E+02  0.37254239642E+02  0.00000000000E+00 0. -1.
         21    1    1    2  503  502 -0.38544753886E+02  0.41224257338E+00 -0.77602121842E+00  0.38554768901E+02  0.00000000000E+00 0. -1.
         21    1    1    2  504  503  0.15363874614E+02 -0.45681967719E+02  0.55555418667E+02  0.73547912010E+02  0.00000000000E+00 0. -1.
         21    1    1    2  505  504  0.11651723071E+03  0.79672898947E+02  0.76140709597E+03  0.77438026942E+03  0.00000000000E+00 0. -1.
          2    1    1    2  501    0 -0.93336351435E+02 -0.34403173802E+02  0.11725379008E+04  0.11767499232E+04  0.00000000000E+00 0. -1.
<scales pt_clust_3="38.54696" pt_clust_4="45.67879" pt_clust_5="14000.00000" pt_clust_6="108.97094"></scales>
<clustering>
<clus scale="   38.547">  2  3  1 -1</clus>
<clus scale="   45.679">  2  4  1 -1</clus>
<clus scale="  108.971">  1  6  2 -1</clus>
<clus scale="   38.547">  2  3  1 -1</clus>
</clustering>
</event>
<event>
 6    0  0.6525019E+002  0.1243166E+03  0.7546771E-02  0.1236141E+00
          1   -1    0    0  505    0 -0.00000000000E+00  0.00000000000E+00  0.93945264742E+03  0.93945264742E+03  0.00000000000E+00 0. -1.
         21   -1    0    0  503  502  0.00000000000E+00 -0.00000000000E+00 -0.21602708269E+03  0.21602708269E+03  0.00000000000E+00 0. -1.
         21    1    1    2  503  504 -0.29613609073E+02 -0.36244486801E+02 -0.10214021208E+02  0.47905687502E+02  0.00000000000E+00 0. -1.
         21    1    1    2  504  501  0.10316309294E+03 -0.32958553506E+02  0.11779345432E+03  0.16001308657E+03  0.00000000000E+00 0.  1.
         21    1    1    2  505  502 -0.10273916105E+03  0.52457235470E+02 -0.14538258093E+03  0.18558877015E+03  0.00000000000E+00 0. -1.
          1    1    1    2  501    0  0.29189677187E+02  0.16745804837E+02  0.76122871256E+03  0.76197218588E+03  0.00000000000E+00 0. -1.
<scales pt_clust_3="43.49166" pt_clust_4="124.31662" pt_clust_5="14000.00000" pt_clust_6="33.65203"></scales>
<clustering>
<clus scale="   33.652">  1  6  2 -1</clus>
<clus scale="   43.492">  2  3  1 -1</clus>
<clus scale="  124.317">  1  4  2 -1</clus>
<clus scale="   43.492">  2  3  1 -1</clus>
</clustering>
</event>
<event>
 6    0  0.6525019E+002  0.6856341E+02  0.7546771E-02  0.1365048E+00
          1   -1    0    0  503    0 -0.00000000000E+00  0.00000000000E+00  0.39244273007E+03  0.39244273007E+03  0.00000000000E+00 0. -1.
         21   -1    0    0  504  502  0.00000000000E+00 -0.00000000000E+00 -0.21012565313E+03  0.21012565313E+03  0.00000000000E+00 0. -1.
         21    1    1    2  503  505 -0.55446736633E+02 -0.33935760197E+02  0.10597620306E+03  0.12432591057E+03  0.00000000000E+00 0. -1.
         21    1    1    2  504  501  0.45051749130E+02  0.43477221044E+02  0.63415169530E+02  0.89114603606E+02  0.00000000000E+00 0. -1.
         21    1    1    2  505  502  0.32573758244E+02 -0.65434287799E+02 -0.17615384004E+03  0.19071673001E+03  0.00000000000E+00 0. -1.
          1    1    1    2  501    0 -0.22178770741E+02  0.55892826952E+02  0.18907954439E+03  0.19841113901E+03  0.00000000000E+00 0. -1.
<scales pt_clust_3="68.31745" pt_clust_4="14000.00000" pt_clust_5="68.56341" pt_clust_6="60.13240"></scales>
<clustering>
<clus scale="   60.132">  1  6  2 -1</clus>
<clus scale="   68.317">  1  3  2 -1</clus>
<clus scale="   68.563">  2  5  1 -1</clus>
<clus scale="   68.563">  2  3  1 -1</clus>
</clustering>
</event>
<event>
 6    0  0.6525019E+002  0.1295020E+03  0.7546771E-02  0.1228197E+00
          2   -1    0    0  503    0 -0.00000000000E+00  0.00000000000E+00  0.20948752426E+04  0.20948752426E+04  0.00000000000E+00 0. -1.
         21   -1    0    0  504  502  0.00000000000E+00 -0.00000000000E+00 -0.20469008485E+03  0.20469008485E+03  0.00000000000E+00 0.  1.
         21    1    1    2  503  505  0.20119944241E+02 -0.95883869606E+02 -0.45942746960E+02  0.10820935544E+03  0.00000000000E+00 0. -1.
         21    1    1    2  504  501 -0.59067811793E+02  0.15004623149E+03  0.14876535121E+04  0.14963675518E+04  0.00000000000E+00 0. -1.
         21    1    1    2  505  502  0.15976826326E+02 -0.29266377151E+02 -0.12048900556E+03  0.12501751986E+03  0.00000000000E+00 0.  1.
          2    1    1    2  501    0  0.22971041226E+02 -0.24895984729E+02  0.56896339817E+03  0.56997090035E+03  0.00000000000E+00 0. -1.
<scales pt_clust_3="14000.00000" pt_clust_4="129.50198" pt_clust_5="33.34336" pt_clust_6="34.07334"></scales>
<clustering>
<clus scale="   33.343">  2  5  1 -1</clus>
<clus scale="   34.073">  1  6  2 -1</clus>
<clus scale="  129.502">  1  4  2 -1</clus>
<clus scale="   33.343">  2  3  1 -1</clus>
</clustering>
</event>
<event>
 6    0  0.6525019E+002  0.2062103E+03  0.7546771E-02  0.1144603E+00
         21   -1    0    0  503  502  0.00000000000E+00  0.00000000000E+00  0.41248969883E+03  0.41248969883E+03  0.00000000000E+00 0.  1.
          2   -1    0    0  504    0 -0.00000000000E+00 -0.00000000000E+00 -0.19325701406E+04  0.19325701406E+04  0.00000000000E+00 0.  1.
         21    1    1    2  503  501  0.10803555598E+03  0.17620851084E+03  0.37533325485E+03  0.42848123978E+03  0.00000000000E+00 0.  1.
         21    1    1    2  504  505 -0.44134388303E+02 -0.13063204501E+02 -0.17616395847E+03  0.18207754339E+03  0.00000000000E+00 0.  1.
         21    1    1    2  505  502 -0.10512064453E+03 -0.14546723107E+03 -0.15009097731E+04  0.15116022004E+04  0.00000000000E+00 0.  1.
          2    1    1    2  501    0  0.41219476859E+02 -0.17678075266E+02 -0.21833996499E+03  0.22289885583E+03  0.00000000000E+00 0.  1.
<scales pt_clust_3="206.21025" pt_clust_4="42.52239" pt_clust_5="14000.00000" pt_clust_6="44.85041"></scales>
<clustering>
<clus scale="   44.850">  2  6  1 -1</clus>
<clus scale="   42.522">  2  4  1 -1</clus>
<clus scale="  206.210">  1  3  2 -1</clus>
<clus scale="  206.210">  1  3  2 -1</clus>
</clustering>
</event>
<event>
 6    0  0.6525019E+002  0.1428832E+03  0.7546771E-02  0.1209501E+00
         21   -1    0    0  503  502  0.00000000000E+00  0.00000000000E+00  0.29434933495E+03  0.29434933495E+03  0.00000000000E+00 0. -1.
          2   -1    0    0  504    0 -0.00000000000E+00 -0.00000000000E+00 -0.11946162136E+04  0.11946162136E+04  0.00000000000E+00 0.  1.
         21    1    1    2  503  505  0.33548840828E+02 -0.76681165766E+01  0.24434398112E+03  0.24675555889E+03  0.00000000000E+00 0. -1.
         21    1    1    2  504  502  0.30263183709E+02  0.17328529702E+03 -0.16902370591E+03  0.24395218304E+03  0.00000000000E+00 0.  1.
         21    1    1    2  505  501 -0.57572118209E+02 -0.84144974567E+02 -0.28182447139E+03  0.29969978014E+03  0.00000000000E+00 0.  1.
          2    1    1    2  501    0 -0.62399063284E+01 -0.81472205880E+02 -0.69376268248E+03  0.69855802648E+03  0.00000000000E+00 0.  1.
<scales pt_clust_3="34.41402" pt_clust_4="142.88320" pt_clust_5="14000.00000" pt_clust_6="81.97765"></scales>
<clustering>
<clus scale="   34.414">  1  3  2 -1</clus>
<clus scale="   81.978">  2  6  1 -1</clus>
<clus scale="  142.883">  1  4  2 -1</clus>
<clus scale="   34.414">  1  3  2 -1</clus>
</clustering>
</event>
<event>
 6    0  0.6525019E+002  0.1062741E+03  0.7546771E-02  0.1267629E+00
         21   -1    0    0  503  502  0.00000000000E+00  0.00000000000E+00  0.49913396572E+03  0.49913396572E+03  0.00000000000E+00 0.  1.
          3   -1    0    0  505    0 -0.00000000000E+00 -0.00000000000E+00 -0.69630101570E+03  0.69630101570E+03  0.00000000000E+00 0. -1.
         21    1    1    2  503  504  0.12980035672E+03 -0.18027056838E+02  0.68969574482E+01  0.13122757105E+03  0.00000000000E+00 0. -1.
         21    1    1    2  504  501 -0.56907359874E+02  0.78845024213E+02 -0.23213550006E+03  0.25167811951E+03  0.00000000000E+00 0. -1.
         21    1    1    2  505  502 -0.42956820008E+02 -0.46811344123E+02  0.41719482077E+03  0.42200486822E+03  0.00000000000E+00 0.  1.
          3    1    1    2  501    0 -0.29936176836E+02 -0.14006623252E+02 -0.38912332814E+03  0.39052442265E+03  0.00000000000E+00 0. -1.
<scales pt_clust_3="14000.00000" pt_clust_4="106.27409" pt_clust_5="63.77406" pt_clust_6="33.05087"></scales>
<clustering>
<clus scale="   33.051">  2  6  1 -1</clus>
<clus scale="   63.774">  1  5  2 -1</clus>
<clus scale="  106.274">  2  4  1 -1</clus>
<clus scale="   63.774">  1  3  2 -1</clus>
</clustering>
</event>
<event>
 6    0  0.6525019E+002  0.7994527E+02  0.7546771E-02  0.1329207E+00
         21   -1    0    0  503  502  0.00000000000E+00  0.00000000000E+00  0.82745026230E+03  0.82745026230E+03  0.00000000000E+00 0. -1.
         -1   -1    0    0    0  501 -0.00000000000E+00 -0.00000000000E+00 -0.49890886041E+02  0.49890886041E+02  0.00000000000E+00 0. -1.
         21    1    1    2  503  504 -0.82856795765E+01 -0.73717287984E+02  0.46018459099E+03  0.46612525014E+03  0.00000000000E+00 0. -1.
         21    1    1    2  504  505 -0.78329275918E+02  0.42942045018E+02  0.20818476430E+03  0.22654004234E+03  0.00000000000E+00 0. -1.
         21    1    1    2  505  501  0.75812278365E+02  0.59596595611E+02  0.11825505444E+03  0.15258936286E+03  0.00000000000E+00 0. -1.
         -1    1    1    2    0  502  0.10802677130E+02 -0.28821352645E+02 -0.90650334644E+01  0.32086493003E+02  0.00000000000E+00 0. -1.
<scales pt_clust_3="76.97423" pt_clust_4="14000.00000" pt_clust_5="79.94527" pt_clust_6="30.77935"></scales>
<clustering>
<clus scale="   30.779">  2  6  1 -1</clus>
<clus scale="   76.974">  1  3  2 -1</clus>
<clus scale="   79.945">  2  5  1 -1</clus>
<clus scale="   76.974">  1  3  2 -1</clus>
</clustering>
</event>
<event>
 6    0  0.6525019E+002  0.6932481E+02  0.7546771E-02  0.1362404E+00
          1   -1    0    0  504    0 -0.00000000000E+00  0.00000000000E+00  0.21004269078E+04  0.21004269078E+04  0.00000000000E+00 0. -1.
         21   -1    0    0  503  502  0.00000000000E+00 -0.00000000000E+00 -0.58586549035E+03  0.58586549035E+03  0.00000000000E+00 0. -1.
         21    1    1    2  503  501  0.33602474433E+02  0.88343667147E+02  0.45743803627E+02  0.10500583500E+03  0.00000000000E+00 0. -1.
         21    1    1    2  504  505 -0.44016964291E+02 -0.10141072160E+03  0.13321461915E+03  0.17311199368E+03  0.00000000000E+00 0. -1.
         21    1    1    2  505  502  0.16185357227E+01 -0.54532140242E+02 -0.53427559089E+03  0.53705379712E+03  0.00000000000E+00 0. -1.
          1    1    1    2  501    0  0.87959541347E+01  0.67599194696E+02  0.18698785855E+04  0.18711207723E+04  0.00000000000E+00 0. -1.
<scales pt_clust_3="65.93745" pt_clust_4="14000.00000" pt_clust_5="54.55615" pt_clust_6="69.32481"></scales>
<clustering>
<clus scale="   54.556">  2  5  1 -1</clus>
<clus scale="   65.937">  2  3  1 -1</clus>
<clus scale="   69.325">  1  6  2 -1</clus>
<clus scale="   54.556">  2  3  1 -1</clus>
</clustering>
</event>
<event>
 6    0  0.6525019E+002  0.7578916E+02  0.7546771E-02  0.1341445E+00
         21   -1    0    0  503  502  0.00000000000E+00  0.00000000000E+00  0.55113153792E+03  0.55113153792E+03  0.00000000000E+00 0.  1.
          2   -1    0    0  505    0 -0.00000000000E+00 -0.00000000000E+00 -0.39193902803E+03  0.39193902803E+03  0.00000000000E+00 0. -1.
         21    1    1    2  503  504  0.50426289179E+02  0.25095324783E+02 -0.28589392875E+02  0.63165966716E+02  0.00000000000E+00 0. -1.
         21    1    1    2  504  501  0.66988695906E+02 -0.33896720742E+01 -0.90070610849E+02  0.11230178180E+03  0.00000000000E+00 0. -1.
         21    1    1    2  505  502 -0.40785019097E+02  0.16129960461E+02  0.51430925273E+03  0.51617593982E+03  0.00000000000E+00 0.  1.
          2    1    1    2  501    0 -0.76629965987E+02 -0.37835613170E+02 -0.23645673912E+03  0.25142687762E+03  0.00000000000E+00 0. -1.
<scales pt_clust_3="45.02788" pt_clust_4="75.78916" pt_clust_5="43.85879" pt_clust_6="14000.00000"></scales>
<clustering>
<clus scale="   43.859">  1  5  2 -1</clus>
<clus scale="   45.028">  1  3  2 -1</clus>
<clus scale="   75.789">  1  4  2 -1</clus>
<clus scale="   43.859">  1  3  2 -1</clus>
</clustering>
</event>
<event>
 6    0  0.6525019E+002  0.7459835E+02  0.7546771E-02  0.1345119E+00
          3   -1    0    0  504    0 -0.00000000000E+00  0.00000000000E+00  0.33478075768E+04  0.33478075768E+04  0.00000000000E+00 0. -1.
         21   -1    0    0  503  502  0.00000000000E+00 -0.00000000000E+00 -0.20407230974E+02  0.20407230974E+02  0.00000000000E+00 0. -1.
         21    1    1    2  503  505 -0.38856798238E+02 -0.30576505639E+02  0.35468843749E+03  0.35811822231E+03  0.00000000000E+00 0. -1.
         21    1    1    2  504  502 -0.18807344443E+02  0.39194283911E+02  0.29522060781E+02  0.52549597231E+02  0.00000000000E+00 0. -1.
         21    1    1    2  505  501  0.55008219979E+02 -0.82562056325E+02  0.36347164837E+03  0.37676788156E+03  0.00000000000E+00 0. -1.
          3    1    1    2  501    0  0.26559227013E+01  0.73944278052E+02  0.25797181992E+04  0.25807791067E+04  0.00000000000E+00 0. -1.
<scales pt_clust_3="48.31874" pt_clust_4="43.47307" pt_clust_5="14000.00000" pt_clust_6="74.59835"></scales>
<clustering>
<clus scale="   43.473">  2  4  1 -1</clus>
<clus scale="   48.319">  2  3  1 -1</clus>
<clus scale="   74.598">  1  6  2 -1</clus>
<clus scale="   43.473">  2  3  1 -1</clus>
</clustering>
</event>
<event>
 6    0  0.6525019E+002  0.8277169E+02  0.7546771E-02  0.1321365E+00
         21   -1    0    0  505  502  0.00000000000E+00  0.00000000000E+00  0.26797631483E+03  0.26797631483E+03  0.00000000000E+00 0. -1.
          1   -1    0    0  503    0 -0.00000000000E+00 -0.00000000000E+00 -0.11457593746E+04  0.11457593746E+04  0.00000000000E+00 0. -1.
         21    1    1    2  503  502  0.15394092264E+02 -0.37437073939E+02  0.21190546561E+03  0.21573696701E+03  0.00000000000E+00 0. -1.
         21    1    1    2  504  501 -0.10559691993E+03  0.64862290031E+02 -0.15566455645E+03  0.19897055134E+03  0.00000000000E+00 0. -1.
         21    1    1    2  505  504  0.42019422240E+02 -0.32135593755E+02  0.99387530627E+01  0.53824780945E+02  0.00000000000E+00 0. -1.
          1    1    1    2  501    0  0.48183405421E+02  0.47103776626E+01 -0.94396272195E+03  0.94520339009E+03  0.00000000000E+00 0. -1.
<scales pt_clust_3="40.47854" pt_clust_4="82.77169" pt_clust_5="14000.00000" pt_clust_6="48.54891"></scales>
<clustering>
<clus scale="   40.479">  1  3  2 -1</clus>
<clus scale="   48.549">  2  6  1 -1</clus>
<clus scale="   82.772">  2  4  1 -1</clus>
<clus scale="   40.479">  1  3  2 -1</clus>
</clustering>
</event>
<event>
 6    0  0.6525019E+002  0.7007544E+02  0.7546771E-02  0.1359837E+00
         21   -1    0    0  505  502  0.00000000000E+00  0.00000000000E+00  0.35561571745E+03  0.35561571745E+03  0.00000000000E+00 0.  1.
          2   -1    0    0  504    0 -0.00000000000E+00 -0.00000000000E+00 -0.31252810094E+04  0.31252810094E+04  0.00000000000E+00 0. -1.
         21    1    1    2  503  502  0.27057580735E+01 -0.30050181651E+02  0.21493323641E+03  0.21704061984E+03  0.00000000000E+00 0.  1.
         21    1    1    2  504  503 -0.11611519999E+03  0.69826317713E+02 -0.48794850180E+02  0.14401177632E+03  0.00000000000E+00 0. -1.
         21    1    1    2  505  501  0.52785782197E+02 -0.57371575716E+01  0.83927413515E+02  0.99312962490E+02  0.00000000000E+00 0.  1.
          2    1    1    2  501    0  0.60623659722E+02 -0.34038978491E+02 -0.30197310917E+04  0.30205313682E+04  0.00000000000E+00 0. -1.
<scales pt_clust_3="30.17175" pt_clust_4="70.07544" pt_clust_5="60.20708" pt_clust_6="14000.00000"></scales>
<clustering>
<clus scale="   30.172">  1  3  2 -1</clus>
<clus scale="   60.207">  1  5  2 -1</clus>
<clus scale="   70.075">  1  4  2 -1</clus>
<clus scale="   30.172">  1  3  2 -1</clus>
</clustering>
</event>
<event>
 6    0  0.6525019E+002  0.1042777E+03  0.7546771E-02  0.1271549E+00
         21   -1    0    0  505  502  0.00000000000E+00  0.00000000000E+00  0.16177462313E+03  0.16177462313E+03  0.00000000000E+00 0. -1.
          3   -1    0    0  502    0 -0.00000000000E+00 -0.00000000000E+00 -0.22160487104E+04  0.22160487104E+04  0.00000000000E+00 0. -1.
         21    1    1    2  503  501  0.10093312834E+03  0.58981298876E+02 -0.47068976498E+03  0.48498983997E+03  0.00000000000E+00 0. -1.
         21    1    1    2  504  503 -0.29210389382E+02 -0.76806473344E+02 -0.35978204521E+01  0.82252206702E+02  0.00000000000E+00 0. -1.
         21    1    1    2  505  504 -0.35976596039E+02 -0.10886958884E+02  0.11191508057E+03  0.11805857273E+03  0.00000000000E+00 0. -1.
          3    1    1    2  501    0 -0.35746142919E+02  0.28712133352E+02 -0.16919015824E+04  0.16925227141E+04  0.00000000000E+00 0. -1.
<scales pt_clust_3="14000.00000" pt_clust_4="104.27775" pt_clust_5="37.58778" pt_clust_6="45.99085"></scales>
<clustering>
<clus scale="   37.588">  1  5  2 -1</clus>
<clus scale="   45.991">  2  6  1 -1</clus>
<clus scale="  104.278">  1  4  2 -1</clus>
<clus scale="   37.588">  1  3  2 -1</clus>
</clustering>
</event>
<event>
 6    0  0.6525019E+002  0.1033844E+03  0.7546771E-02  0.1273336E+00
         -1   -1    0    0    0  501 -0.00000000000E+00  0.00000000000E+00  0.10248297905E+04  0.10248297905E+04  0.00000000000E+00 0.  1.
         21   -1    0    0  503  502  0.00000000000E+00 -0.00000000000E+00 -0.33825184552E+03  0.33825184552E+03  0.00000000000E+00 0.  1.
         21    1    1    2  503  504 -0.17698102563E+02  0.57183976343E+02 -0.24821673625E+02  0.64802356949E+02  0.00000000000E+00 0.  1.
         21    1    1    2  504  501  0.11268187409E+02 -0.14748380726E+03  0.33798569785E+03  0.36893465194E+03  0.00000000000E+00 0.  1.
         21    1    1    2  505  502  0.26287126608E+01  0.51931615662E+02 -0.27495586314E+03  0.27982946506E+03  0.00000000000E+00 0.  1.
         -1    1    1    2    0  505  0.38012024923E+01  0.38368215251E+02  0.64836978391E+03  0.64951516208E+03  0.00000000000E+00 0.  1.
<scales pt_clust_3="14000.00000" pt_clust_4="103.38438" pt_clust_5="52.24777" pt_clust_6="38.55605"></scales>
<clustering>
<clus scale="   38.556">  1  6  2 -1</clus>
<clus scale="   52.248">  2  5  1 -1</clus>
<clus scale="  103.384">  1  4  2 -1</clus>
<clus scale="   52.248">  2  3  1 -1</clus>
</clustering>
</event>
<event>
 6    0  0.6525019E+002  0.1574862E+03  0.7546771E-02  0.1191564E+00
          2   -1    0    0  505    0 -0.00000000000E+00  0.00000000000E+00  0.17697738033E+04  0.17697738033E+04  0.00000000000E+00 0.  1.
         21   -1    0    0  504  502  0.00000000000E+00 -0.00000000000E+00 -0.68346379994E+03  0.68346379994E+03  0.00000000000E+00 0. -1.
         21    1    1    2  503  501 -0.12701382517E+03 -0.10747857193E+03 -0.21357539686E+03  0.27073715178E+03  0.00000000000E+00 0. -1.
         21    1    1    2  504  503  0.51440362536E+02 -0.37697020687E+02 -0.42880595952E+03  0.43352246445E+03  0.00000000000E+00 0. -1.
         21    1    1    2  505  502  0.52792100246E+02  0.92365616404E+02  0.28609508964E+03  0.30523566839E+03  0.00000000000E+00 0.  1.
          2    1    1    2  501    0  0.22781362388E+02  0.52809976211E+02  0.14425962701E+04  0.14437423187E+04  0.00000000000E+00 0.  1.
<scales pt_clust_3="157.48616" pt_clust_4="63.68299" pt_clust_5="14000.00000" pt_clust_6="57.51421"></scales>
<clustering>
<clus scale="   57.514">  1  6  2 -1</clus>
<clus scale="   63.683">  2  4  1 -1</clus>
<clus scale="  157.486">  2  3  1 -1</clus>
<clus scale="   63.683">  2  3  1 -1</clus>
</clustering>
</event>
<event>
 6    0  0.6525019E+002  0.8970324E+02  0.7546771E-02  0.1303572E+00
         21   -1    0    0  503  502  0.00000000000E+00  0.00000000000E+00  0.16288303678E+04  0.16288303678E+04  0.00000000000E+00 0.  1.
          1   -1    0    0  502    0 -0.00000000000E+00 -0.00000000000E+00 -0.32346497152E+03  0.32346497152E+03  0.00000000000E+00 0. -1.
         21    1    1    2  503  504  0.86662772442E+02 -0.13560778190E+02  0.11371108287E+04  0.11404890914E+04  0.00000000000E+00 0.  1.
         21    1    1    2  504  505 -0.39631506947E+02  0.33113955548E+02  0.30816686388E+03  0.31246440819E+03  0.00000000000E+00 0.  1.
         21    1    1    2  505  501 -0.10447068355E+02  0.42098649396E+02  0.17298335486E+03  0.17833866259E+03  0.00000000000E+00 0.  1.
          1    1    1    2  501    0 -0.36584197140E+02 -0.61651826754E+02 -0.31289565116E+03  0.32100317715E+03  0.00000000000E+00 0. -1.
<scales pt_clust_3="82.63988" pt_clust_4="31.97508" pt_clust_5="31.97508" pt_clust_6="71.68927"></scales>
<clustering>
<clus scale="   31.975">  4  5 -1 -1</clus>
<clus scale="   71.689">  2  6  1 -1</clus>
<clus scale="   82.640">  1  3  2 -1</clus>
<clus scale="   82.640">  1  3  2 -1</clus>
</clustering>
</event>
<event>
 6    0  0.6525019E+002  0.1094860E+03  0.7546771E-02  0.1261525E+00
         -4   -1    0    0    0  501 -0.00000000000E+00  0.00000000000E+00  0.31164066439E+04  0.31164066439E+04  0.00000000000E+00 0. -1.
         21   -1    0    0  503  502  0.00000000000E+00 -0.00000000000E+00 -0.23075438412E+03  0.23075438412E+03  0.00000000000E+00 0.  1.
         21    1    1    2  503  501  0.11593169127E+03 -0.39097208765E+01 -0.81920087144E+02  0.14200825200E+03  0.00000000000E+00 0.  1.
         21    1    1    2  504  505 -0.70126264652E+02  0.22993609396E+02  0.54094004641E+02  0.91501696187E+02  0.00000000000E+00 0.  1.
         21    1    1    2  505  502  0.18182730847E+02 -0.41650876846E+02 -0.94524933781E+02  0.10488265037E+03  0.00000000000E+00 0.  1.
         -4    1    1    2    0  504 -0.63988157468E+02  0.22566988327E+02  0.30080032761E+04  0.30087684295E+04  0.00000000000E+00 0. -1.
<scales pt_clust_3="109.48603" pt_clust_4="14000.00000" pt_clust_5="45.44675" pt_clust_6="67.76053"></scales>
<clustering>
<clus scale="   45.447">  2  5  1 -1</clus>
<clus scale="   67.761">  1  6  2 -1</clus>
<clus scale="  109.486">  2  3  1 -1</clus>
<clus scale="   45.447">  2  3  1 -1</clus>
</clustering>
</event>
<event>
 6    0  0.6525019E+002  0.1047650E+03  0.7546771E-02  0.1270583E+00
          1   -1    0    0  504    0 -0.00000000000E+00  0.00000000000E+00  0.10436244291E+04  0.10436244291E+04  0.00000000000E+00 0. -1.
         21   -1    0    0  503  502  0.00000000000E+00 -0.00000000000E+00 -0.10030324915E+04  0.10030324915E+04  0.00000000000E+00 0.  1.
         21    1    1    2  503  505 -0.34327788660E+02 -0.10465470398E+02 -0.73118181561E+02  0.81450547081E+02  0.00000000000E+00 0.  1.
         21    1    1    2  504  502 -0.42212006360E+02 -0.54189551561E+02 -0.73131531931E+03  0.73453417704E+03  0.00000000000E+00 0.  1.
         21    1    1    2  505  501  0.13355714970E+03  0.10253065832E+03 -0.15467205028E+03  0.22863396788E+03  0.00000000000E+00 0.  1.
          1    1    1    2  501    0 -0.57017354683E+02 -0.37875636357E+02  0.99969748875E+03  0.10020382286E+04  0.00000000000E+00 0. -1.
<scales pt_clust_3="35.88765" pt_clust_4="14000.00000" pt_clust_5="104.76505" pt_clust_6="68.49449"></scales>
<clustering>
<clus scale="   35.888">  2  3  1 -1</clus>
<clus scale="   68.494">  1  6  2 -1</clus>
<clus scale="  104.765">  1  5  2 -1</clus>
<clus scale="   35.888">  2  3  1 -1</clus>
</clustering>
</event>
<event>
 6    0  0.6525019E+002  0.1035542E+03  0.7546771E-02  0.1272995E+00
         -1   -1    0    0    0  501 -0.00000000000E+00  0.00000000000E+00  0.51247454547E+03  0.51247454547E+03  0.00000000000E+00 0.  1.
         21   -1    0    0  503  502  0.00000000000E+00 -0.00000000000E+00 -0.30937918121E+03  0.30937918121E+03  0.00000000000E+00 0.  1.
         21    1    1    2  503  501 -0.36359886533E+02  0.21906662651E+02 -0.10782420686E+01  0.42462993573E+02  0.00000000000E+00 0.  1.
         21    1    1    2  504  505  0.83854692875E+02 -0.93005857082E+02  0.13457872637E+03  0.18382908519E+03  0.00000000000E+00 0. -1.
         21    1    1    2  505  502 -0.78850976757E+02  0.65135547353E+02 -0.25222024660E+03  0.27216753821E+03  0.00000000000E+00 0.  1.
         -1    1    1    2    0  504  0.31356170415E+02  0.59636470787E+01  0.32181512655E+03  0.32339410970E+03  0.00000000000E+00 0.  1.
<scales pt_clust_3="39.92514" pt_clust_4="103.55417" pt_clust_5="14000.00000" pt_clust_6="31.91825"></scales>
<clustering>
<clus scale="   31.918">  1  6  2 -1</clus>
<clus scale="   39.925">  1  3  2 -1</clus>
<clus scale="  103.554">  1  4  2 -1</clus>
<clus scale="  103.554">  2  3  1 -1</clus>
</clustering>
</event>
<event>
 6    0  0.6525019E+002  0.8561060E+02  0.7546771E-02  0.1313843E+00
         21   -1    0    0  503  502  0.00000000000E+00  0.00000000000E+00  0.69338268629E+03  0.69338268629E+03  0.00000000000E+00 0.  1.
         -2   -1    0    0    0  501 -0.00000000000E+00 -0.00000000000E+00 -0.13578367225E+04  0.13578367225E+04  0.00000000000E+00 0. -1.
         21    1    1    2  503  504 -0.49773710566E+02 -0.13768513133E+02  0.55063414811E+03  0.55305059378E+03  0.00000000000E+00 0.  1.
         21    1    1    2  504  501 -0.54890332019E+02  0.61118386397E+01  0.10628692008E+03  0.11977985015E+03  0.00000000000E+00 0.  1.
         21    1    1    2  505  502  0.63703222098E+02  0.62660867429E+02 -0.44771958152E+02  0.99945050150E+02  0.00000000000E+00 0.  1.
         -2    1    1    2    0  505  0.40960820486E+02 -0.55004192935E+02 -0.12766031462E+04  0.12784439147E+04  0.00000000000E+00 0. -1.
<scales pt_clust_3="51.64295" pt_clust_4="14000.00000" pt_clust_5="85.61060" pt_clust_6="68.45946"></scales>
<clustering>
<clus scale="   51.643">  1  3  2 -1</clus>
<clus scale="   68.459">  2  6  1 -1</clus>
<clus scale="   85.611">  2  5  1 -1</clus>
<clus scale="   51.643">  1  3  2 -1</clus>
</clustering>
</event>
<event>
 6    0  0.6525019E+002  0.8268121E+02  0.7546771E-02  0.1321610E+00
         21   -1    0    0  505  502  0.00000000000E+00  0.00000000000E+00  0.22006887096E+02  0.22006887096E+02  0.00000000000E+00 0. -1.
          2   -1    0    0  504    0 -0.00000000000E+00 -0.00000000000E+00 -0.20582334105E+04  0.20582334105E+04  0.00000000000E+00 0. -1.
         21    1    1    2  503  501 -0.68362655039E+02 -0.48264721600E+02 -0.38818645132E+03  0.39710408830E+03  0.00000000000E+00 0. -1.
         21    1    1    2  504  502  0.17744668341E+02 -0.62515265699E+02 -0.12173327940E+03  0.13799283682E+03  0.00000000000E+00 0.  1.
         21    1    1    2  505  503 -0.28560988774E+02  0.12005642793E+03 -0.47332392999E+03  0.48914703175E+03  0.00000000000E+00 0. -1.
          2    1    1    2  501    0  0.79178975471E+02 -0.92764406297E+01 -0.10529828627E+04  0.10559963407E+04  0.00000000000E+00 0. -1.
<scales pt_clust_3="79.25485" pt_clust_4="64.98486" pt_clust_5="14000.00000" pt_clust_6="82.68121"></scales>
<clustering>
<clus scale="   64.985">  1  4  2 -1</clus>
<clus scale="   82.681">  2  6  1 -1</clus>
<clus scale="   79.255">  2  3  1 -1</clus>
<clus scale="   64.985">  1  3  2 -1</clus>
</clustering>
</event>
<event>
 6    0  0.6525019E+002  0.1485570E+03  0.7546771E-02  0.1202257E+00
          1   -1    0    0  504    0 -0.00000000000E+00  0.00000000000E+00  0.14546854144E+04  0.14546854144E+04  0.00000000000E+00 0. -1.
         21   -1    0    0  503  502  0.00000000000E+00 -0.00000000000E+00 -0.25984440442E+03  0.25984440442E+03  0.00000000000E+00 0. -1.
         21    1    1    2  503  505 -0.29259508611E+02 -0.25730733804E+02 -0.16565342202E+02  0.42339108027E+02  0.00000000000E+00 0. -1.
         21    1    1    2  504  502  0.34881230158E+02 -0.20210314679E+02 -0.16536771478E+03  0.17021056997E+03  0.00000000000E+00 0. -1.
         21    1    1    2  505  501 -0.59493387797E+02  0.18121171568E+03  0.97050187636E+02  0.21399973835E+03  0.00000000000E+00 0. -1.
          1    1    1    2  501    0  0.53871666250E+02 -0.13527066720E+03  0.12797238793E+04  0.12879804024E+04  0.00000000000E+00 0. -1.
<scales pt_clust_3="38.96395" pt_clust_4="41.24634" pt_clust_5="14000.00000" pt_clust_6="148.55698"></scales>
<clustering>
<clus scale="   38.964">  2  3  1 -1</clus>
<clus scale="   41.246">  2  4  1 -1</clus>
<clus scale="  148.557">  1  6  2 -1</clus>
<clus scale="   38.964">  2  3  1 -1</clus>
</clustering>
</event>
<event>
 6    0  0.6525019E+002  0.1566527E+03  0.7546771E-02  0.1192528E+00
         -3   -1    0    0    0  501 -0.00000000000E+00  0.00000000000E+00  0.82082426000E+03  0.82082426000E+03  0.00000000000E+00 0.  1.
         21   -1    0    0  505  502  0.00000000000E+00 -0.00000000000E+00 -0.17248294517E+04  0.17248294517E+04  0.00000000000E+00 0. -1.
         21    1    1    2  503  502  0.10894448539E+03  0.78732066558E+02 -0.99075435061E+03  0.99983089693E+03  0.00000000000E+00 0. -1.
         21    1    1    2  504  503 -0.15985425022E+03 -0.10650503176E+03 -0.21037912986E+03  0.28487906449E+03  0.00000000000E+00 0. -1.
         21    1    1    2  505  501 -0.36237812756E+01  0.37006821436E+02 -0.48020636917E+03  0.48164384520E+03  0.00000000000E+00 0. -1.
         -3    1    1    2    0  504  0.54533546104E+02 -0.92338562331E+01  0.77733465790E+03  0.77929990512E+03  0.00000000000E+00 0.  1.
<scales pt_clust_3="14000.00000" pt_clust_4="156.65272" pt_clust_5="37.18382" pt_clust_6="55.30208"></scales>
<clustering>
<clus scale="   37.184">  2  5  1 -1</clus>
<clus scale="   55.302">  1  6  2 -1</clus>
<clus scale="  156.653">  1  4  2 -1</clus>
<clus scale="   37.184">  2  3  1 -1</clus>
</clustering>
</event>
<event>
 6    0  0.6525019E+002  0.1239731E+03  0.7546771E-02  0.1236683E+00
          2   -1    0    0  503    0 -0.00000000000E+00  0.00000000000E+00  0.13497414797E+04  0.13497414797E+04  0.00000000000E+00 0.  1.
         21   -1    0    0  504  502  0.00000000000E+00 -0.00000000000E+00 -0.65580847232E+02  0.65580847232E+02  0.00000000000E+00 0. -1.
         21    1    1    2  503  502 -0.95866791659E+02  0.14579578820E+03  0.11974651696E+03  0.21162722397E+03  0.00000000000E+00 0. -1.
         21    1    1    2  504  505  0.47111649306E+02 -0.50068889785E+02  0.55649636829E+02  0.88449326192E+02  0.00000000000E+00 0. -1.
         21    1    1    2  505  501  0.42972329010E+02 -0.51375088123E+02  0.44913142953E+03  0.45409807501E+03  0.00000000000E+00 0. -1.
          2    1    1    2  501    0  0.57828133442E+01 -0.44351810295E+02  0.65963304915E+03  0.66114770175E+03  0.00000000000E+00 0.  1.
<scales pt_clust_3="111.78354" pt_clust_4="68.74883" pt_clust_5="43.80732" pt_clust_6="43.80732"></scales>
<clustering>
<clus scale="   43.807">  5  6 -1 -1</clus>
<clus scale="   68.749">  2  4  1 -1</clus>
<clus scale="  111.784">  2  3  1 -1</clus>
<clus scale="   68.749">  2  3  1 -1</clus>
</clustering>
</event>
<event>
 6    0  0.6525019E+002  0.1306785E+03  0.7546771E-02  0.1226452E+00
         -1   -1    0    0    0  501 -0.00000000000E+00  0.00000000000E+00  0.66191553678E+03  0.66191553678E+03  0.00000000000E+00 0. -1.
         21   -1    0    0  505  502  0.00000000000E+00 -0.00000000000E+00 -0.15844005889E+03  0.15844005889E+03  0.00000000000E+00 0. -1.
         21    1    1    2  503  502 -0.14082453455E+03 -0.24486053565E+02  0.21924803870E+03  0.26172661084E+03  0.00000000000E+00 0.  1.
         21    1    1    2  504  501  0.10590598575E+03 -0.47148219601E+02  0.66540215647E+02  0.13366612408E+03  0.00000000000E+00 0. -1.
         21    1    1    2  505  504  0.70529474829E+02 -0.27494449145E+02 -0.79431815656E+02  0.10972586246E+03  0.00000000000E+00 0. -1.
         -1    1    1    2    0  503 -0.35610926024E+02  0.99128722311E+02  0.29711903920E+03  0.31523699829E+03  0.00000000000E+00 0. -1.
<scales pt_clust_3="14000.00000" pt_clust_4="130.67849" pt_clust_5="75.69909" pt_clust_6="98.61105"></scales>
<clustering>
<clus scale="   75.699">  2  5  1 -1</clus>
<clus scale="   98.611">  1  6  2 -1</clus>
<clus scale="  130.678">  2  4  1 -1</clus>
<clus scale="   75.699">  2  3  1 -1</clus>
</clustering>
</event>
<event>
 6    0  0.6525019E+002  0.1806020E+03  0.7546771E-02  0.1167222E+00
         21   -1    0    0  504  502  0.00000000000E+00  0.00000000000E+00  0.16612648844E+03  0.16612648844E+03  0.00000000000E+00 0.  1.
          2   -1    0    0  505    0 -0.00000000000E+00 -0.00000000000E+00 -0.10832235438E+04  0.10832235438E+04  0.00000000000E+00 0.  1.
         21    1    1    2  503  502 -0.70426883150E+02 -0.63675731582E+01 -0.14032624002E+01  0.70728077900E+02  0.00000000000E+00 0.  1.
         21    1    1    2  504  501  0.51524421576E+01 -0.35831038081E+02  0.40174632441E+02  0.54077833184E+02  0.00000000000E+00 0.  1.
         21    1    1    2  505  503  0.16077167376E+03 -0.11102979234E+03 -0.51127054337E+02  0.20196316881E+03  0.00000000000E+00 0.  1.
          2    1    1    2  501    0 -0.95497232765E+02  0.15322840358E+03 -0.90474137107E+03  0.92258095236E+03  0.00000000000E+00 0.  1.
<scales pt_clust_3="70.94500" pt_clust_4="36.19960" pt_clust_5="180.60195" pt_clust_6="14000.00000"></scales>
<clustering>
<clus scale="   36.200">  1  4  2 -1</clus>
<clus scale="   70.945">  1  3  2 -1</clus>
<clus scale="  180.602">  1  5  2 -1</clus>
<clus scale="   36.200">  1  3  2 -1</clus>
</clustering>
</event>
<event>
 6    0  0.6525019E+002  0.1359432E+03  0.7546771E-02  0.1218894E+00
         -1   -1    0    0    0  501 -0.00000000000E+00  0.00000000000E+00  0.15446151642E+04  0.15446151642E+04  0.00000000000E+00 0.  1.
         21   -1    0    0  504  502  0.00000000000E+00 -0.00000000000E+00 -0.95818776489E+02  0.95818776489E+02  0.00000000000E+00 0. -1.
         21    1    1    2  503  501 -0.52141841966E+01  0.89737376660E+02  0.11002396158E+03  0.14207482750E+03  0.00000000000E+00 0. -1.
         21    1    1    2  504  503 -0.60192072733E+02  0.12904840319E+02  0.99299709805E+01  0.62355632041E+02  0.00000000000E+00 0. -1.
         21    1    1    2  505  502  0.10447521706E+02  0.35264731934E+02 -0.42753496025E+02  0.56396927669E+02  0.00000000000E+00 0. -1.
         -1    1    1    2    0  505  0.54958735223E+02 -0.13790694891E+03  0.13715959512E+04  0.13796065535E+04  0.00000000000E+00 0.  1.
<scales pt_clust_3="135.94325" pt_clust_4="63.46078" pt_clust_5="36.77978" pt_clust_6="14000.00000"></scales>
<clustering>
<clus scale="   36.780">  2  5  1 -1</clus>
<clus scale="   63.461">  2  4  1 -1</clus>
<clus scale="  135.943">  2  3  1 -1</clus>
<clus scale="   36.780">  2  3  1 -1</clus>
</clustering>
</event>
<event>
 6    0  0.6525019E+002  0.1988094E+03  0.7546771E-02  0.1150747E+00
          1   -1    0    0  504    0 -0.00000000000E+00  0.00000000000E+00  0.11578753972E+04  0.11578753972E+04  0.00000000000E+00 0.  1.
         21   -1    0    0  503  502  0.00000000000E+00 -0.00000000000E+00 -0.54646147023E+03  0.54646147023E+03  0.00000000000E+00 0.  1.
         21    1    1    2  503  501 -0.65808972716E+02  0.77767136268E+01 -0.29032667158E+02  0.72347729246E+02  0.00000000000E+00 0. -1.
         21    1    1    2  504  505  0.20265304807E+03  0.42892872060E+02  0.24585536809E+03  0.32148548705E+03  0.00000000000E+00 0. -1.
         21    1    1    2  505  502 -0.12414952103E+03 -0.79617650190E+02 -0.44577683674E+03  0.46954133148E+03  0.00000000000E+00 0.  1.
          1    1    1    2  501    0 -0.12694554327E+02  0.28948064502E+02  0.84036806279E+03  0.84096231967E+03  0.00000000000E+00 0.  1.
<scales pt_clust_3="67.38525" pt_clust_4="14000.00000" pt_clust_5="198.80942" pt_clust_6="31.60921"></scales>
<clustering>
<clus scale="   31.609">  1  6  2 -1</clus>
<clus scale="   67.385">  2  3  1 -1</clus>
<clus scale="  198.809">  2  5  1 -1</clus>
<clus scale="   67.385">  2  3  1 -1</clus>
</clustering>
</event>
<event>
 6    0  0.6525019E+002  0.1420619E+03  0.7546771E-02  0.1210581E+00
         21   -1    0    0  504  502  0.00000000000E+00  0.00000000000E+00  0.35801731676E+02  0.35801731676E+02  0.00000000000E+00 0.  1.
          1   -1    0    0  505    0 -0.00000000000E+00 -0.00000000000E+00 -0.15194270888E+04  0.15194270888E+04  0.00000000000E+00 0. -1.
         21    1    1    2  503  501  0.51252740497E+02  0.18799798389E+02 -0.31259225112E+03  0.31732348052E+03  0.00000000000E+00 0. -1.
         21    1    1    2  504  503 -0.10351940194E+03 -0.90292240591E+02 -0.14025377614E+03  0.19631626782E+03  0.00000000000E+00 0.  1.
         21    1    1    2  505  502 -0.22800643668E+01  0.68358848691E+02 -0.25902409886E+03  0.26790224836E+03  0.00000000000E+00 0. -1.
          1    1    1    2  501    0  0.54546725808E+02  0.31335935108E+01 -0.77175523100E+03  0.77368682377E+03  0.00000000000E+00 0. -1.
<scales pt_clust_3="53.07647" pt_clust_4="131.76556" pt_clust_5="68.39686" pt_clust_6="53.07647"></scales>
<clustering>
<clus scale="   53.076">  3  6 -1 -1</clus>
<clus scale="   68.397">  2  5  1 -1</clus>
<clus scale="  131.766">  1  4  2 -1</clus>
<clus scale="  131.766">  1  3  2 -1</clus>
</clustering>
</event>
<event>
 6    0  0.6525019E+002  0.1352637E+03  0.7546771E-02  0.1219848E+00
          2   -1    0    0  503    0 -0.00000000000E+00  0.00000000000E+00  0.24205959868E+04  0.24205959868E+04  0.00000000000E+00 0. -1.
         21   -1    0    0  505  502  0.00000000000E+00 -0.00000000000E+00 -0.38930818484E+02  0.38930818484E+02  0.00000000000E+00 0. -1.
         21    1    1    2  503  502  0.63289549719E+01  0.54804240510E+02  0.27301044511E+03  0.27852874822E+03  0.00000000000E+00 0.  1.
         21    1    1    2  504  501 -0.79103325893E+01 -0.14356716657E+03  0.29695223682E+03  0.32993141050E+03  0.00000000000E+00 0. -1.
         21    1    1    2  505  504  0.10824654215E+02 -0.45035002321E+02  0.14026846846E+02  0.48395010129E+02  0.00000000000E+00 0. -1.
          2    1    1    2  501    0 -0.92432765974E+01  0.13379792839E+03  0.17976756395E+04  0.18026716364E+04  0.00000000000E+00 0. -1.
<scales pt_clust_3="49.69093" pt_clust_4="135.26372" pt_clust_5="46.31765" pt_clust_6="14000.00000"></scales>
<clustering>
<clus scale="   46.318">  2  5  1 -1</clus>
<clus scale="   49.691">  2  3  1 -1</clus>
<clus scale="  135.264">  2  4  1 -1</clus>
<clus scale="   46.318">  2  3  1 -1</clus>
</clustering>
</event>
<event>
 6    0  0.6525019E+002  0.1013839E+03  0.7546771E-02  0.1277413E+00
          2   -1    0    0  504    0 -0.00000000000E+00  0.00000000000E+00  0.17024992436E+04  0.17024992436E+04  0.00000000000E+00 0. -1.
         21   -1    0    0  503  502  0.00000000000E+00 -0.00000000000E+00 -0.81273094228E+02  0.81273094228E+02  0.00000000000E+00 0.  1.
         21    1    1    2  503  505  0.31102072085E+02 -0.18521389815E+02 -0.35960666410E+02  0.51024996789E+02  0.00000000000E+00 0.  1.
         21    1    1    2  504  502  0.32009376073E+02  0.46199856769E+02  0.37231480917E+02  0.67418173317E+02  0.00000000000E+00 0.  1.
         21    1    1    2  505  501 -0.15405255913E+02 -0.11743254437E+03  0.14657171381E+03  0.18844360344E+03  0.00000000000E+00 0.  1.
          2    1    1    2  501    0 -0.47706192245E+02  0.89754077420E+02  0.14733836210E+04  0.14768855642E+04  0.00000000000E+00 0. -1.
<scales pt_clust_3="36.19918" pt_clust_4="58.99090" pt_clust_5="101.38386" pt_clust_6="14000.00000"></scales>
<clustering>
<clus scale="   36.199">  2  3  1 -1</clus>
<clus scale="   58.991">  2  4  1 -1</clus>
<clus scale="  101.384">  2  5  1 -1</clus>
<clus scale="   36.199">  2  3  1 -1</clus>
</clustering>
</event>
<event>
 6    0  0.6525019E+002  0.1550210E+03  0.7546771E-02  0.1194436E+00
          2   -1    0    0  505    0 -0.00000000000E+00  0.00000000000E+00  0.23119301631E+04  0.23119301631E+04  0.00000000000E+00 0.  1.
         21   -1    0    0  503  502  0.00000000000E+00 -0.00000000000E+00 -0.38596724998E+03  0.38596724998E+03  0.00000000000E+00 0.  1.
         21    1    1    2  503  504 -0.79645629019E+02 -0.31625489686E+02 -0.24942120038E+03  0.26373193401E+03  0.00000000000E+00 0.  1.
         21    1    1    2  504  501  0.19006822590E+03  0.13169098493E+02  0.40290909327E+03  0.44568497068E+03  0.00000000000E+00 0.  1.
         21    1    1    2  505  502  0.30676953675E+02 -0.38798559727E+02 -0.99080797303E+02  0.11074027324E+03  0.00000000000E+00 0.  1.
          2    1    1    2  501    0 -0.14109955056E+03  0.57254950919E+02  0.18715558175E+04  0.18777402351E+04  0.00000000000E+00 0.  1.
<scales pt_clust_3="84.62710" pt_clust_4="14000.00000" pt_clust_5="49.46113" pt_clust_6="155.02098"></scales>
<clustering>
<clus scale="   49.461">  2  5  1 -1</clus>
<clus scale="   84.627">  2  3  1 -1</clus>
<clus scale="  155.021">  1  6  2 -1</clus>
<clus scale="   49.461">  2  3  1 -1</clus>
</clustering>
</event>
<event>
 6    0  0.6525019E+002  0.6588767E+02  0.7546771E-02  0.1374663E+00
          2   -1    0    0  505    0 -0.00000000000E+00  0.00000000000E+00  0.24777246513E+03  0.24777246513E+03  0.00000000000E+00 0.  1.
         21   -1    0    0  503  502  0.00000000000E+00 -0.00000000000E+00 -0.13906687854E+03  0.13906687854E+03  0.00000000000E+00 0. -1.
         21    1    1    2  503  501 -0.44338242297E+02  0.60243926789E+02  0.27939422993E+02  0.79848743273E+02  0.00000000000E+00 0. -1.
         21    1    1    2  504  502 -0.39045786208E+02 -0.53888038778E+02 -0.76937022137E+02  0.10172413440E+03  0.00000000000E+00 0. -1.
         21    1    1    2  505  504  0.59961020220E+02  0.32605773052E+02  0.40049595858E+02  0.79135519904E+02  0.00000000000E+00 0. -1.
          2    1    1    2  501    0  0.23423008285E+02 -0.38961661063E+02  0.11765358988E+03  0.12613094609E+03  0.00000000000E+00 0.  1.
<scales pt_clust_3="55.45183" pt_clust_4="14000.00000" pt_clust_5="65.88767" pt_clust_6="45.46040"></scales>
<clustering>
<clus scale="   45.460">  1  6  2 -1</clus>
<clus scale="   55.452">  1  3  2 -1</clus>
<clus scale="   65.888">  1  5  2 -1</clus>
<clus scale="   65.888">  2  3  1 -1</clus>
</clustering>
</event>
<event>
 6    0  0.6525019E+002  0.7857404E+02  0.7546771E-02  0.1333148E+00
         21   -1    0    0  503  502  0.00000000000E+00  0.00000000000E+00  0.23371303011E+03  0.23371303011E+03  0.00000000000E+00 0.  1.
          2   -1    0    0  505    0 -0.00000000000E+00 -0.00000000000E+00 -0.25218088374E+04  0.25218088374E+04  0.00000000000E+00 0. -1.
         21    1    1    2  503  501 -0.43037784890E+02 -0.32698138411E+02 -0.59076919161E+02  0.80071852491E+02  0.00000000000E+00 0.  1.
         21    1    1    2  504  502 -0.53637087789E+02 -0.13064910395E+02  0.13787824282E+03  0.14851949001E+03  0.00000000000E+00 0.  1.
         21    1    1    2  505  504  0.91738855636E+02 -0.95874408104E+01  0.53009569178E+02  0.10638585939E+03  0.00000000000E+00 0.  1.
          2    1    1    2  501    0  0.49360170425E+01  0.55350489617E+02 -0.24199067001E+04  0.24205446656E+04  0.00000000000E+00 0. -1.
<scales pt_clust_3="54.05015" pt_clust_4="14000.00000" pt_clust_5="78.57404" pt_clust_6="55.51817"></scales>
<clustering>
<clus scale="   54.050">  1  3  2 -1</clus>
<clus scale="   55.518">  2  6  1 -1</clus>
<clus scale="   78.574">  2  5  1 -1</clus>
<clus scale="   54.050">  1  3  2 -1</clus>
</clustering>
</event>
<event>
 6    0  0.6525019E+002  0.9741426E+02  0.7546771E-02  0.1285829E+00
         21   -1    0    0  504  502  0.00000000000E+00  0.00000000000E+00  0.43482825632E+03  0.43482825632E+03  0.00000000000E+00 0.  1.
          2   -1    0    0  505    0 -0.00000000000E+00 -0.00000000000E+00 -0.20892200009E+04  0.20892200009E+04  0.00000000000E+00 0.  1.
         21    1    1    2  503  502 -0.39473640873E+02  0.89736947161E+02 -0.35767604305E+03  0.37086795465E+03  0.00000000000E+00 0.  1.
         21    1    1    2  504  501  0.31453404417E+02  0.92209298135E+02  0.40740750267E+03  0.41889466999E+03  0.00000000000E+00 0.  1.
         21    1    1    2  505  503 -0.32261059060E+01 -0.78753811192E+02 -0.10249585359E+03  0.12929799125E+03  0.00000000000E+00 0.  1.
          2    1    1    2  501    0  0.11246342362E+02 -0.10319243410E+03 -0.16016273506E+04  0.16049876414E+04  0.00000000000E+00 0.  1.
<scales pt_clust_3="85.20826" pt_clust_4="14000.00000" pt_clust_5="78.81986" pt_clust_6="97.41426"></scales>
<clustering>
<clus scale="   78.820">  2  5  1 -1</clus>
<clus scale="   85.208">  2  3  1 -1</clus>
<clus scale="   97.414">  2  6  1 -1</clus>
<clus scale="   97.414">  1  3  2 -1</clus>
</clustering>
</event>
<event>
 6    0  0.6525019E+002  0.1028170E+03  0.7546771E-02  0.1274481E+00
         -3   -1    0    0    0  501 -0.00000000000E+00  0.00000000000E+00  0.11794440563E+03  0.11794440563E+03  0.00000000000E+00 0. -1.
         21   -1    0    0  503  502  0.00000000000E+00 -0.00000000000E+00 -0.56485289265E+03  0.56485289265E+03  0.00000000000E+00 0. -1.
         21    1    1    2  503  504  0.21956917068E+02  0.87277024872E+02 -0.17931647156E+03  0.20063345247E+03  0.00000000000E+00 0. -1.
         21    1    1    2  504  501  0.43109156425E+02 -0.66551549928E+02  0.77693409882E+01  0.79673526500E+02  0.00000000000E+00 0. -1.
         21    1    1    2  505  502 -0.18405700942E-01  0.33510460136E+02 -0.30940334639E+03  0.31121276008E+03  0.00000000000E+00 0. -1.
         -3    1    1    2    0  505 -0.65047667793E+02 -0.54235935080E+02  0.34041989942E+02  0.91277559227E+02  0.00000000000E+00 0. -1.
<scales pt_clust_3="102.81700" pt_clust_4="75.36381" pt_clust_5="33.51047" pt_clust_6="14000.00000"></scales>
<clustering>
<clus scale="   33.510">  2  5  1 -1</clus>
<clus scale="   75.364">  1  4  2 -1</clus>
<clus scale="  102.817">  2  3  1 -1</clus>
<clus scale="   33.510">  2  3  1 -1</clus>
</clustering>
</event>
<event>
 6    0  0.6525019E+002  0.1111192E+03  0.7546771E-02  0.1258511E+00
         -2   -1    0    0    0  501 -0.00000000000E+00  0.00000000000E+00  0.10317138343E+04  0.10317138343E+04  0.00000000000E+00 0. -1.
         21   -1    0    0  504  502  0.00000000000E+00 -0.00000000000E+00 -0.10303058495E+03  0.10303058495E+03  0.00000000000E+00 0. -1.
         21    1    1    2  503  502 -0.36637724460E+02 -0.84798669799E+02  0.84275749703E+02  0.12504214986E+03  0.00000000000E+00 0. -1.
         21    1    1    2  504  505  0.37925387672E+02 -0.55125825488E+02 -0.45354782717E+02  0.80834695404E+02  0.00000000000E+00 0. -1.
         21    1    1    2  505  501  0.50683019637E+02  0.11761779529E+03  0.20462687365E+03  0.24140188829E+03  0.00000000000E+00 0. -1.
         -2    1    1    2    0  503 -0.51970682850E+02  0.22306699993E+02  0.68513540868E+03  0.68746568566E+03  0.00000000000E+00 0. -1.
<scales pt_clust_3="14000.00000" pt_clust_4="64.47374" pt_clust_5="111.11916" pt_clust_6="56.55564"></scales>
<clustering>
<clus scale="   56.556">  1  6  2 -1</clus>
<clus scale="   64.474">  2  4  1 -1</clus>
<clus scale="  111.119">  1  5  2 -1</clus>
<clus scale="   64.474">  2  3  1 -1</clus>
</clustering>
</event>
<event>
 6    0  0.6525019E+002  0.1126567E+03  0.7546771E-02  0.1255728E+00
          2   -1    0    0  503    0 -0.00000000000E+00  0.00000000000E+00  0.22786439984E+04  0.22786439984E+04  0.00000000000E+00 0. -1.
         21   -1    0    0  504  502  0.00000000000E+00 -0.00000000000E+00 -0.25948800559E+03  0.25948800559E+03  0.00000000000E+00 0.  1.
         21    1    1    2  503  502  0.59608366494E+02  0.11718772689E+03  0.58976794400E+03  0.60424527177E+03  0.00000000000E+00 0. -1.
         21    1    1    2  504  505 -0.27729227884E+02 -0.26603414002E+02 -0.15210028551E+03  0.15687940772E+03  0.00000000000E+00 0.  1.
         21    1    1    2  505  501 -0.59735527354E+02 -0.48060582462E+02 -0.82279160868E+02  0.11246338572E+03  0.00000000000E+00 0.  1.
          2    1    1    2  501    0  0.27856388744E+02 -0.42523730422E+02  0.16637674952E+04  0.16645439388E+04  0.00000000000E+00 0. -1.
<scales pt_clust_3="14000.00000" pt_clust_4="38.42723" pt_clust_5="112.65667" pt_clust_6="50.86177"></scales>
<clustering>
<clus scale="   38.427">  2  4  1 -1</clus>
<clus scale="   50.862">  1  6  2 -1</clus>
<clus scale="  112.657">  2  5  1 -1</clus>
<clus scale="   38.427">  2  3  1 -1</clus>
</clustering>
</event>
<event>
 6    0  0.6525019E+002  0.1111324E+03  0.7546771E-02  0.1258487E+00
         21   -1    0    0  505  502  0.00000000000E+00  0.00000000000E+00  0.12138273825E+03  0.12138273825E+03  0.00000000000E+00 0. -1.
          2   -1    0    0  504    0 -0.00000000000E+00 -0.00000000000E+00 -0.93424204867E+03  0.93424204867E+03  0.00000000000E+00 0. -1.
         21    1    1    2  503  502  0.43964042444E+02 -0.96526595126E+02 -0.57274808742E+02  0.12054303925E+03  0.00000000000E+00 0. -1.
         21    1    1    2  504  503 -0.13805300534E+03 -0.12121197906E+03 -0.57842018740E+03  0.60689446310E+03  0.00000000000E+00 0. -1.
         21    1    1    2  505  501  0.45782524372E+02  0.12390061182E+03 -0.12602057109E+02  0.13268840564E+03  0.00000000000E+00 0. -1.
          2    1    1    2  501    0  0.48306438524E+02  0.93837962363E+02 -0.16456225716E+03  0.19549887894E+03  0.00000000000E+00 0. -1.
<scales pt_clust_3="98.84423" pt_clust_4="111.13244" pt_clust_5="14000.00000" pt_clust_6="105.54182"></scales>
<clustering>
<clus scale="  105.542">  2  6  1 -1</clus>
<clus scale="   98.844">  1  3  2 -1</clus>
<clus scale="  111.132">  2  4  1 -1</clus>
<clus scale="   98.844">  1  3  2 -1</clus>
</clustering>
</event>
<event>
 6    0  0.6525019E+002  0.7209668E+02  0.7546771E-02  0.1353105E+00
         21   -1    0    0  504  502  0.00000000000E+00  0.00000000000E+00  0.37130908824E+03  0.37130908824E+03  0.00000000000E+00 0. -1.
          1   -1    0    0  505    0 -0.00000000000E+00 -0.00000000000E+00 -0.29297255562E+03  0.29297255562E+03  0.00000000000E+00 0.  1.
         21    1    1    2  503  501  0.54092713050E+02 -0.40048771721E+02  0.58032938099E+02  0.88869272676E+02  0.00000000000E+00 0. -1.
         21    1    1    2  504  503  0.37434222985E+02  0.83939990227E+02  0.19406505834E+03  0.21472887528E+03  0.00000000000E+00 0. -1.
         21    1    1    2  505  502 -0.62739682052E+02  0.34464088378E+01  0.79556599706E+02  0.10137750241E+03  0.00000000000E+00 0. -1.
          1    1    1    2  501    0 -0.28787253984E+02 -0.47337627344E+02 -0.25331806353E+03  0.25930599350E+03  0.00000000000E+00 0.  1.
<scales pt_clust_3="14000.00000" pt_clust_4="65.63773" pt_clust_5="72.09668" pt_clust_6="55.40358"></scales>
<clustering>
<clus scale="   55.404">  2  6  1 -1</clus>
<clus scale="   72.097">  1  5  2 -1</clus>
<clus scale="   65.638">  1  4  2 -1</clus>
<clus scale="   72.097">  1  3  2 -1</clus>
</clustering>
</event>
<event>
 6    0  0.6525019E+002  0.1383709E+03  0.7546771E-02  0.1215538E+00
         21   -1    0    0  505  502  0.00000000000E+00  0.00000000000E+00  0.33952424824E+03  0.33952424824E+03  0.00000000000E+00 0. -1.
          4   -1    0    0  504    0 -0.00000000000E+00 -0.00000000000E+00 -0.47657077418E+03  0.47657077418E+03  0.00000000000E+00 0. -1.
         21    1    1    2  503  501  0.11776286284E+03 -0.13834917266E+01 -0.35607762002E+02  0.12303624924E+03  0.00000000000E+00 0. -1.
         21    1    1    2  504  502 -0.42836337501E+02 -0.18647940095E+02  0.12117746367E+02  0.48265280040E+02  0.00000000000E+00 0.  1.
         21    1    1    2  505  503 -0.91488854989E+02 -0.85957796028E+02  0.24242482866E+03  0.27299954365E+03  0.00000000000E+00 0. -1.
          4    1    1    2  501    0  0.16562329655E+02  0.10598922785E+03 -0.35598133897E+03  0.37179394949E+03  0.00000000000E+00 0. -1.
<scales pt_clust_3="138.37087" pt_clust_4="46.71935" pt_clust_5="14000.00000" pt_clust_6="106.64029"></scales>
<clustering>
<clus scale="   46.719">  1  4  2 -1</clus>
<clus scale="  106.640">  2  6  1 -1</clus>
<clus scale="  138.371">  2  3  1 -1</clus>
<clus scale="   46.719">  1  3  2 -1</clus>
</clustering>
</event>
<event>
 6    0  0.6525019E+002  0.8382295E+02  0.7546771E-02  0.1318540E+00
         -1   -1    0    0    0  501 -0.00000000000E+00  0.00000000000E+00  0.67211202688E+03  0.67211202688E+03  0.00000000000E+00 0. -1.
         21   -1    0    0  503  502  0.00000000000E+00 -0.00000000000E+00 -0.26885069007E+03  0.26885069007E+03  0.00000000000E+00 0.  1.
         21    1    1    2  503  505 -0.10655385452E+02  0.37230749650E+02 -0.18557982842E+03  0.18957726308E+03  0.00000000000E+00 0.  1.
         21    1    1    2  504  502  0.12570836119E+03  0.16507117361E+01  0.27973969161E+02  0.12879386582E+03  0.00000000000E+00 0.  1.
         21    1    1    2  505  501 -0.35090219778E+02 -0.22940913579E+02 -0.12270902665E+02  0.43682766534E+02  0.00000000000E+00 0.  1.
         -1    1    1    2    0  504 -0.79962755958E+02 -0.15940547807E+02  0.57313809873E+03  0.57890882151E+03  0.00000000000E+00 0. -1.
<scales pt_clust_3="38.72552" pt_clust_4="83.82295" pt_clust_5="40.05880" pt_clust_6="14000.00000"></scales>
<clustering>
<clus scale="   38.726">  2  3  1 -1</clus>
<clus scale="   40.059">  2  5  1 -1</clus>
<clus scale="   83.823">  2  4  1 -1</clus>
<clus scale="   38.726">  2  3  1 -1</clus>
</clustering>
</event>
<event>
 6    0  0.6525019E+002  0.1947738E+03  0.7546771E-02  0.1154225E+00
          2   -1    0    0  505    0 -0.00000000000E+00  0.00000000000E+00  0.11096882343E+04  0.11096882343E+04  0.00000000000E+00 0. -1.
         21   -1    0    0  503  502  0.00000000000E+00 -0.00000000000E+00 -0.14412769786E+04  0.14412769786E+04  0.00000000000E+00 0.  1.
         21    1    1    2  503  501 -0.11010013735E+01 -0.44493037384E+02 -0.12225337999E+04  0.12233436698E+04  0.00000000000E+00 0.  1.
         21    1    1    2  504  502 -0.11159443070E+03  0.19233561430E+03 -0.12207098735E+03  0.25366834931E+03  0.00000000000E+00 0.  1.
         21    1    1    2  505  504 -0.34003816669E+02  0.23432618902E+02  0.61582106078E+03  0.61720412026E+03  0.00000000000E+00 0. -1.
          2    1    1    2  501    0  0.14669924874E+03 -0.17127519581E+03  0.39719498213E+03  0.45674907347E+03  0.00000000000E+00 0. -1.
<scales pt_clust_3="44.48812" pt_clust_4="194.77382" pt_clust_5="41.29585" pt_clust_6="14000.00000"></scales>
<clustering>
<clus scale="   41.296">  1  5  2 -1</clus>
<clus scale="   44.488">  2  3  1 -1</clus>
<clus scale="  194.774">  2  4  1 -1</clus>
<clus scale="   44.488">  2  3  1 -1</clus>
</clustering>
</event>
<event>
 6    0  0.6525019E+002  0.1433600E+03  0.7546771E-02  0.1208878E+00
         21   -1    0    0  504  502  0.00000000000E+00  0.00000000000E+00  0.61236302221E+03  0.61236302221E+03  0.00000000000E+00 0.  1.
          2   -1    0    0  503    0 -0.00000000000E+00 -0.00000000000E+00 -0.34099979473E+04  0.34099979473E+04  0.00000000000E+00 0. -1.
         21    1    1    2  503  505  0.10036219130E+03 -0.81886094991E+02 -0.30386429476E+02  0.13304599615E+03  0.00000000000E+00 0.  1.
         21    1    1    2  504  501 -0.17178802443E+02  0.78749030239E+02  0.96677196494E+02  0.12586898482E+03  0.00000000000E+00 0.  1.
         21    1    1    2  505  502 -0.19765777833E+02  0.85218517296E+02  0.44468581221E+03  0.45320895098E+03  0.00000000000E+00 0.  1.
          2    1    1    2  501    0 -0.63417611026E+02 -0.82081452544E+02 -0.33086115043E+04  0.33102370375E+04  0.00000000000E+00 0. -1.
<scales pt_clust_3="14000.00000" pt_clust_4="80.60100" pt_clust_5="143.36002" pt_clust_6="103.64237"></scales>
<clustering>
<clus scale="   80.601">  1  4  2 -1</clus>
<clus scale="  103.642">  2  6  1 -1</clus>
<clus scale="  143.360">  1  5  2 -1</clus>
<clus scale="   80.601">  1  3  2 -1</clus>
</clustering>
</event>
<event>
 6    0  0.6525019E+002  0.9733910E+02  0.7546771E-02  0.1285993E+00
         21   -1    0    0  504  502  0.00000000000E+00  0.00000000000E+00  0.14871218161E+04  0.14871218161E+04  0.00000000000E+00 0. -1.
         -2   -1    0    0    0  501 -0.00000000000E+00 -0.00000000000E+00 -0.64314793568E+02  0.64314793568E+02  0.00000000000E+00 0.  1.
         21    1    1    2  503  501 -0.29901814789E+02  0.11170960180E+03  0.45881191407E+02  0.12441156453E+03  0.00000000000E+00 0.  1.
         21    1    1    2  504  503 -0.18066813078E+02  0.52848264040E+02  0.28595505517E+03  0.29135827142E+03  0.00000000000E+00 0. -1.
         21    1    1    2  505  502  0.21519186038E+02 -0.14312053116E+03  0.10920547991E+04  0.11016034885E+04  0.00000000000E+00 0. -1.
         -2    1    1    2    0  505  0.26449441828E+02 -0.21437334684E+02 -0.10840231084E+01  0.34063285183E+02  0.00000000000E+00 0.  1.
<scales pt_clust_3="97.33910" pt_clust_4="54.19425" pt_clust_5="14000.00000" pt_clust_6="34.04603"></scales>
<clustering>
<clus scale="   34.046">  2  6  1 -1</clus>
<clus scale="   54.194">  1  4  2 -1</clus>
<clus scale="   97.339">  2  3  1 -1</clus>
<clus scale="   54.194">  1  3  2 -1</clus>
</clustering>
</event>
<event>
 6    0  0.6525019E+002  0.9199979E+02  0.7546771E-02  0.1298080E+00
          2   -1    0    0  505    0 -0.00000000000E+00  0.00000000000E+00  0.24318142655E+04  0.24318142655E+04  0.00000000000E+00 0. -1.
         21   -1    0    0  501  502  0.00000000000E+00 -0.00000000000E+00 -0.35018411438E+02  0.35018411438E+02  0.00000000000E+00 0. -1.
         21    1    1    2  503  502  0.21056318216E+02 -0.37516810802E+02  0.60137270644E+02  0.73941672621E+02  0.00000000000E+00 0. -1.
         21    1    1    2  504  503  0.64409438076E+02  0.27922978321E+02  0.65109400452E+02  0.95747075458E+02  0.00000000000E+00 0. -1.
         21    1    1    2  505  504 -0.13594964479E+03 -0.16518985413E+01  0.35880333414E+03  0.38369892790E+03  0.00000000000E+00 0. -1.
          2    1    1    2  501    0  0.50483888494E+02  0.11245731023E+02  0.19127458488E+04  0.19134450009E+04  0.00000000000E+00 0. -1.
<scales pt_clust_3="43.02185" pt_clust_4="14000.00000" pt_clust_5="91.99979" pt_clust_6="51.87791"></scales>
<clustering>
<clus scale="   43.022">  2  3  1 -1</clus>
<clus scale="   51.878">  1  6  2 -1</clus>
<clus scale="   92.000">  1  5  2 -1</clus>
<clus scale="   43.022">  2  3  1 -1</clus>
</clustering>
</event>
<event>
 6    0  0.6525019E+002  0.1531151E+03  0.7546771E-02  0.1196697E+00
         -1   -1    0    0    0  501 -0.00000000000E+00  0.00000000000E+00  0.83885825062E+03  0.83885825062E+03  0.00000000000E+00 0.  1.
         21   -1    0    0  501  502  0.00000000000E+00 -0.00000000000E+00 -0.19992572543E+04  0.19992572543E+04  0.00000000000E+00 0. -1.
         21    1    1    2  503  504 -0.71530610976E+01  0.95199951800E+02 -0.36128820077E+02  0.10207589699E+03  0.00000000000E+00 0. -1.
         21    1    1    2  504  502 -0.53703263707E+02 -0.15037402393E+03 -0.19242518346E+04  0.19308654823E+04  0.00000000000E+00 0. -1.
         21    1    1    2  505  503  0.38891900592E+02  0.11179751186E+02  0.43850959042E+03  0.44037282802E+03  0.00000000000E+00 0. -1.
         -1    1    1    2    0  505  0.21964424213E+02  0.43994320940E+02  0.36147206057E+03  0.36480129766E+03  0.00000000000E+00 0.  1.
<scales pt_clust_3="153.11513" pt_clust_4="14000.00000" pt_clust_5="36.13976" pt_clust_6="91.29475"></scales>
<clustering>
<clus scale="   36.140">  5  6 -1 -1</clus>
<clus scale="   91.295">  1  5  2 -1</clus>
<clus scale="  153.115">  1  3  2 -1</clus>
<clus scale="  153.115">  2  3  1 -1</clus>
</clustering>
</event>
<event>
 6    0  0.6525019E+002  0.1441246E+03  0.7546771E-02  0.1207884E+00
         21   -1    0    0  504  502  0.00000000000E+00  0.00000000000E+00  0.46908276639E+03  0.46908276639E+03  0.00000000000E+00 0.  1.
         -2   -1    0    0    0  501 -0.00000000000E+00 -0.00000000000E+00 -0.57334700184E+03  0.57334700184E+03  0.00000000000E+00 0. -1.
         21    1    1    2  503  502 -0.77590318860E+02 -0.11915942867E+03  0.29061257756E+03  0.32353500160E+03  0.00000000000E+00 0.  1.
         21    1    1    2  504  501  0.12665128534E+03  0.10372351096E+03 -0.50509332800E+02  0.17131931445E+03  0.00000000000E+00 0.  1.
         21    1    1    2  505  503 -0.92945083394E+02  0.53419246698E+02  0.70734331529E+02  0.12843578202E+03  0.00000000000E+00 0.  1.
         -2    1    1    2    0  505  0.43884116918E+02 -0.37983328994E+02 -0.41510181174E+03  0.41913967017E+03  0.00000000000E+00 0. -1.
<scales pt_clust_3="144.12458" pt_clust_4="14000.00000" pt_clust_5="96.70252" pt_clust_6="58.03920"></scales>
<clustering>
<clus scale="   58.039">  2  6  1 -1</clus>
<clus scale="   96.703">  2  5  1 -1</clus>
<clus scale="  144.125">  1  3  2 -1</clus>
<clus scale="  144.125">  1  3  2 -1</clus>
</clustering>
</event>
<event>
 6    0  0.6525019E+002  0.9765547E+02  0.7546771E-02  0.1285305E+00
          2   -1    0    0  505    0 -0.00000000000E+00  0.00000000000E+00  0.66832819016E+03  0.66832819016E+03  0.00000000000E+00 0.  1.
         21   -1    0    0  503  502  0.00000000000E+00 -0.00000000000E+00 -0.15424993576E+03  0.15424993576E+03  0.00000000000E+00 0. -1.
         21    1    1    2  503  504  0.35089947833E+02 -0.47359574331E+02 -0.99037810525E+02  0.11525069038E+03  0.00000000000E+00 0. -1.
         21    1    1    2  504  501 -0.84730080662E+02 -0.52925672721E+02  0.23148584210E+03  0.25212300271E+03  0.00000000000E+00 0. -1.
         21    1    1    2  505  502  0.63779959923E+02  0.73636302901E+02  0.29502753028E+02  0.10178703665E+03  0.00000000000E+00 0. -1.
          2    1    1    2  501    0 -0.14139827094E+02  0.26648944151E+02  0.35212746980E+03  0.35341739618E+03  0.00000000000E+00 0.  1.
<scales pt_clust_3="58.17644" pt_clust_4="97.65547" pt_clust_5="14000.00000" pt_clust_6="30.16788"></scales>
<clustering>
<clus scale="   30.168">  1  6  2 -1</clus>
<clus scale="   58.176">  2  3  1 -1</clus>
<clus scale="   97.655">  1  4  2 -1</clus>
<clus scale="   58.176">  2  3  1 -1</clus>
</clustering>
</event>
<event>
 6    0  0.6525019E+002  0.8925826E+02  0.7546771E-02  0.1304658E+00
          1   -1    0    0  502    0 -0.00000000000E+00  0.00000000000E+00  0.13274764095E+04  0.13274764095E+04  0.00000000000E+00 0.  1.
         21   -1    0    0  504  502  0.00000000000E+00 -0.00000000000E+00 -0.12855625472E+03  0.12855625472E+03  0.00000000000E+00 0.  1.
         21    1    1    2  503  501  0.32580172848E+02  0.49512116402E+02  0.24846250498E+03  0.25543401049E+03  0.00000000000E+00 0. -1.
         21    1    1    2  504  505  0.49795249304E+02 -0.39024684183E+02  0.17106454703E+01  0.63288380740E+02  0.00000000000E+00 0.  1.
         21    1    1    2  505  503 -0.12400250700E+03 -0.23041737074E+02 -0.51416040446E+02  0.13620261600E+03  0.00000000000E+00 0.  1.
          1    1    1    2  501    0  0.41627084850E+02  0.12554304855E+02  0.10001630447E+04  0.10011076570E+04  0.00000000000E+00 0.  1.
<scales pt_clust_3="89.25826" pt_clust_4="65.84813" pt_clust_5="14000.00000" pt_clust_6="43.47902"></scales>
<clustering>
<clus scale="   43.479">  1  6  2 -1</clus>
<clus scale="   65.848">  2  4  1 -1</clus>
<clus scale="   89.258">  1  3  2 -1</clus>
<clus scale="   65.848">  2  3  1 -1</clus>
</clustering>
</event>
<event>
 6    0  0.6525019E+002  0.1512754E+03  0.7546771E-02  0.1198914E+00
         21   -1    0    0  504  502  0.00000000000E+00  0.00000000000E+00  0.16485449930E+03  0.16485449930E+03  0.00000000000E+00 0. -1.
          2   -1    0    0  502    0 -0.00000000000E+00 -0.00000000000E+00 -0.65874949625E+03  0.65874949625E+03  0.00000000000E+00 0. -1.
         21    1    1    2  503  505 -0.69152261564E+02 -0.25437768502E+02  0.23120713584E+02  0.77224884217E+02  0.00000000000E+00 0. -1.
         21    1    1    2  504  503 -0.70466566082E+02  0.17487454596E+02  0.87317097599E+02  0.11355889898E+03  0.00000000000E+00 0. -1.
         21    1    1    2  505  501  0.10847349928E+03  0.11845047265E+02 -0.20479417714E+03  0.23205055523E+03  0.00000000000E+00 0. -1.
          2    1    1    2  501    0  0.31145328364E+02 -0.38947333590E+01 -0.39953863099E+03  0.40076965714E+03  0.00000000000E+00 0. -1.
<scales pt_clust_3="68.04057" pt_clust_4="68.04057" pt_clust_5="135.05164" pt_clust_6="31.38790"></scales>
<clustering>
<clus scale="   31.388">  2  6  1 -1</clus>
<clus scale="   68.041">  3  4 -1 -1</clus>
<clus scale="  135.052">  2  5  1 -1</clus>
<clus scale="  151.275">  1  3  2 -1</clus>
</clustering>
</event>
<event>
 6    0  0.6525019E+002  0.1259221E+03  0.7546771E-02  0.1233635E+00
         21   -1    0    0  503  502  0.00000000000E+00  0.00000000000E+00  0.33860676235E+03  0.33860676235E+03  0.00000000000E+00 0.  1.
          3   -1    0    0  505    0 -0.00000000000E+00 -0.00000000000E+00 -0.12023394110E+03  0.12023394110E+03  0.00000000000E+00 0. -1.
         21    1    1    2  503  501 -0.21744358436E+01 -0.45610608747E+02  0.26777509625E+02  0.52934778958E+02  0.00000000000E+00 0. -1.
         21    1    1    2  504  502 -0.11083344667E+03  0.20947115477E+02  0.15183842256E+03  0.18915004920E+03  0.00000000000E+00 0.  1.
         21    1    1    2  505  504 -0.41848977915E+02  0.24354884202E+02 -0.17742498960E+02  0.51568339185E+02  0.00000000000E+00 0.  1.
          3    1    1    2  501    0  0.15485686043E+03  0.30860906773E+00  0.57499388023E+02  0.16518753610E+03  0.00000000000E+00 0. -1.
<scales pt_clust_3="45.66241" pt_clust_4="14000.00000" pt_clust_5="47.28328" pt_clust_6="125.92213"></scales>
<clustering>
<clus scale="   45.662">  1  3  2 -1</clus>
<clus scale="   47.283">  2  5  1 -1</clus>
<clus scale="  125.922">  2  6  1 -1</clus>
<clus scale="   45.662">  1  3  2 -1</clus>
</clustering>
</event>
<event>
 6    0  0.6525019E+002  0.8230871E+02  0.7546771E-02  0.1322624E+00
         21   -1    0    0  505  502  0.00000000000E+00  0.00000000000E+00  0.34054637884E+03  0.34054637884E+03  0.00000000000E+00 0. -1.
          2   -1    0    0  504    0 -0.00000000000E+00 -0.00000000000E+00 -0.73257361216E+03  0.73257361216E+03  0.00000000000E+00 0.  1.
         21    1    1    2  503  501 -0.74564316536E+02 -0.18700534500E+02 -0.17102436439E+03  0.18750701456E+03  0.00000000000E+00 0. -1.
         21    1    1    2  504  502  0.49758308259E+02  0.93157154936E+02  0.30889141416E+03  0.32644762290E+03  0.00000000000E+00 0. -1.
         21    1    1    2  505  503  0.51898188969E+01 -0.29636306175E+02 -0.32600331198E+01  0.30263388439E+02  0.00000000000E+00 0. -1.
          2    1    1    2  501    0  0.19616189380E+02 -0.44820314261E+02 -0.52663424996E+03  0.52890196510E+03  0.00000000000E+00 0.  1.
<scales pt_clust_3="82.30871" pt_clust_4="14000.00000" pt_clust_5="30.08729" pt_clust_6="49.02635"></scales>
<clustering>
<clus scale="   30.087">  1  5  2 -1</clus>
<clus scale="   49.026">  2  6  1 -1</clus>
<clus scale="   82.309">  2  3  1 -1</clus>
<clus scale="   30.087">  1  3  2 -1</clus>
</clustering>
</event>
<event>
 6    0  0.6525019E+002  0.1440938E+03  0.7546771E-02  0.1207924E+00
         -3   -1    0    0    0  501 -0.00000000000E+00  0.00000000000E+00  0.27301020824E+03  0.27301020824E+03  0.00000000000E+00 0.  1.
         21   -1    0    0  505  502  0.00000000000E+00 -0.00000000000E+00 -0.28621044119E+03  0.28621044119E+03  0.00000000000E+00 0.  1.
         21    1    1    2  503  502  0.16360757680E+02  0.12249105297E+03  0.10171195992E+03  0.16005328875E+03  0.00000000000E+00 0.  1.
         21    1    1    2  504  501 -0.16471112457E+02 -0.43434548062E+02 -0.42279225664E+02  0.62812343004E+02  0.00000000000E+00 0.  1.
         21    1    1    2  505  504  0.35026429446E+02 -0.85141243274E+02 -0.19141164655E+03  0.21240127236E+03  0.00000000000E+00 0.  1.
         -3    1    1    2    0  503 -0.34916074669E+02  0.60847383713E+01  0.11877867934E+03  0.12395374532E+03  0.00000000000E+00 0.  1.
<scales pt_clust_3="128.48330" pt_clust_4="46.91876" pt_clust_5="46.91876" pt_clust_6="35.44230"></scales>
<clustering>
<clus scale="   35.442">  1  6  2 -1</clus>
<clus scale="   46.919">  4  5 -1 -1</clus>
<clus scale="  128.483">  1  3  2 -1</clus>
<clus scale="  144.094">  2  3  1 -1</clus>
</clustering>
</event>
<event>
 6    0  0.6525019E+002  0.1087471E+03  0.7546771E-02  0.1262908E+00
         21   -1    0    0  503  502  0.00000000000E+00  0.00000000000E+00  0.25649249607E+03  0.25649249607E+03  0.00000000000E+00 0.  1.
          2   -1    0    0  505    0 -0.00000000000E+00 -0.00000000000E+00 -0.16559320704E+04  0.16559320704E+04  0.00000000000E+00 0.  1.
         21    1    1    2  503  501  0.90156650378E+02  0.32329108976E+02 -0.53319567044E+02  0.10961920053E+03  0.00000000000E+00 0.  1.
         21    1    1    2  504  502 -0.90356527853E+02  0.24834035025E+02  0.10826923027E+03  0.14318958637E+03  0.00000000000E+00 0.  1.
         21    1    1    2  505  504 -0.31719580404E+02 -0.11119246095E+03  0.69187526079E+02  0.13474720375E+03  0.00000000000E+00 0.  1.
          2    1    1    2  501    0  0.31919457878E+02  0.54029316947E+02 -0.15235767636E+04  0.15248685758E+04  0.00000000000E+00 0.  1.
<scales pt_clust_3="14000.00000" pt_clust_4="91.87659" pt_clust_5="108.74706" pt_clust_6="62.75364"></scales>
<clustering>
<clus scale="   62.754">  2  6  1 -1</clus>
<clus scale="   91.877">  1  4  2 -1</clus>
<clus scale="  108.747">  1  5  2 -1</clus>
<clus scale="   91.877">  1  3  2 -1</clus>
</clustering>
</event>
<event>
 6    0  0.6525019E+002  0.5877072E+02  0.7546771E-02  0.1403064E+00
          4   -1    0    0  504    0 -0.00000000000E+00  0.00000000000E+00  0.24911949377E+03  0.24911949377E+03  0.00000000000E+00 0.  1.
         21   -1    0    0  505  502  0.00000000000E+00 -0.00000000000E+00 -0.49215572591E+03  0.49215572591E+03  0.00000000000E+00 0.  1.
         21    1    1    2  503  501 -0.64984949393E+02 -0.48838578046E+02 -0.11684068832E+03  0.14233761555E+03  0.00000000000E+00 0. -1.
         21    1    1    2  504  502  0.43015843335E+02 -0.24793987637E+01 -0.20705834916E+02  0.47804202699E+02  0.00000000000E+00 0. -1.
         21    1    1    2  505  503 -0.34946147106E+02  0.59479317507E+02 -0.32087434820E+03  0.32820629144E+03  0.00000000000E+00 0.  1.
          4    1    1    2  501    0  0.56915253164E+02 -0.81613406975E+01  0.21538463929E+03  0.22292710999E+03  0.00000000000E+00 0.  1.
<scales pt_clust_3="58.77072" pt_clust_4="43.08724" pt_clust_5="14000.00000" pt_clust_6="57.85102"></scales>
<clustering>
<clus scale="   43.087">  2  4  1 -1</clus>
<clus scale="   57.851">  1  6  2 -1</clus>
<clus scale="   58.771">  1  3  2 -1</clus>
<clus scale="   43.087">  2  3  1 -1</clus>
</clustering>
</event>
<event>
 6    0  0.6525019E+002  0.1348198E+03  0.7546771E-02  0.1220474E+00
         21   -1    0    0  505  502  0.00000000000E+00  0.00000000000E+00  0.17770235828E+03  0.17770235828E+03  0.00000000000E+00 0. -1.
          1   -1    0    0  504    0 -0.00000000000E+00 -0.00000000000E+00 -0.74962522003E+03  0.74962522003E+03  0.00000000000E+00 0. -1.
         21    1    1    2  503  502  0.30419460490E+02  0.13679509077E+02  0.11891802370E+03  0.12350695894E+03  0.00000000000E+00 0. -1.
         21    1    1    2  504  503 -0.12066080164E+03  0.93129626659E+02 -0.16644254757E+03  0.22568845353E+03  0.00000000000E+00 0. -1.
         21    1    1    2  505  501  0.95652099249E+02 -0.71311263456E+02 -0.11030963198E+03  0.16248949287E+03  0.00000000000E+00 0. -1.
          1    1    1    2  501    0 -0.54107581027E+01 -0.35497872281E+02 -0.41408870590E+03  0.41564267297E+03  0.00000000000E+00 0. -1.
<scales pt_clust_3="33.35375" pt_clust_4="14000.00000" pt_clust_5="134.81980" pt_clust_6="35.66090"></scales>
<clustering>
<clus scale="   33.354">  1  3  2 -1</clus>
<clus scale="   35.661">  2  6  1 -1</clus>
<clus scale="  134.820">  1  5  2 -1</clus>
<clus scale="   33.354">  1  3  2 -1</clus>
</clustering>
</event>
<event>
 6    0  0.6525019E+002  0.1106476E+03  0.7546771E-02  0.1259375E+00
         -2   -1    0    0    0  501 -0.00000000000E+00  0.00000000000E+00  0.13768237905E+04  0.13768237905E+04  0.00000000000E+00 0. -1.
         21   -1    0    0  504  502  0.00000000000E+00 -0.00000000000E+00 -0.21426788737E+03  0.21426788737E+03  0.00000000000E+00 0.  1.
         21    1    1    2  503  502  0.28799644602E+02  0.14194563897E+02 -0.13965561578E+02  0.35013455751E+02  0.00000000000E+00 0.  1.
         21    1    1    2  504  505 -0.33726279971E+02  0.10459623787E+03 -0.10696579315E+03  0.15336073762E+03  0.00000000000E+00 0.  1.
         21    1    1    2  505  501 -0.33666642858E+02 -0.10921062167E+03 -0.42551143013E+01  0.11436130781E+03  0.00000000000E+00 0.  1.
         -2    1    1    2    0  503  0.38593278226E+02 -0.95801800980E+01  0.12877423722E+04  0.12883561767E+04  0.00000000000E+00 0. -1.
<scales pt_clust_3="32.10771" pt_clust_4="110.64762" pt_clust_5="14000.00000" pt_clust_6="39.80425"></scales>
<clustering>
<clus scale="   32.108">  2  3  1 -1</clus>
<clus scale="   39.804">  1  6  2 -1</clus>
<clus scale="  110.648">  2  4  1 -1</clus>
<clus scale="   32.108">  2  3  1 -1</clus>
</clustering>
</event>
<event>
 6    0  0.6525019E+002  0.1318072E+03  0.7546771E-02  0.1224799E+00
          2   -1    0    0  504    0 -0.00000000000E+00  0.00000000000E+00  0.16863889108E+04  0.16863889108E+04  0.00000000000E+00 0. -1.
         21   -1    0    0  503  502  0.00000000000E+00 -0.00000000000E+00 -0.18384232945E+03  0.18384232945E+03  0.00000000000E+00 0.  1.
         21    1    1    2  503  505  0.72355208981E+00  0.39310392288E+02 -0.11097451895E+03  0.11773348854E+03  0.00000000000E+00 0.  1.
         21    1    1    2  504  502  0.36309993365E+02 -0.24998348287E+03  0.37899030202E+03  0.45545999424E+03  0.00000000000E+00 0. -1.
         21    1    1    2  505  501 -0.29398994502E+02  0.88939410060E+02  0.49881519307E+02  0.10612580039E+03  0.00000000000E+00 0.  1.
          2    1    1    2  501    0 -0.76345509537E+01  0.12173368052E+03  0.11846492790E+04  0.11909119571E+04  0.00000000000E+00 0. -1.
<scales pt_clust_3="39.31705" pt_clust_4="14000.00000" pt_clust_5="108.81345" pt_clust_6="131.80715"></scales>
<clustering>
<clus scale="   39.317">  2  3  1 -1</clus>
<clus scale="  108.813">  2  5  1 -1</clus>
<clus scale="  131.807">  1  6  2 -1</clus>
<clus scale="   39.317">  2  3  1 -1</clus>
</clustering>
</event>
<event>
 6    0  0.6525019E+002  0.4065559E+03  0.7546771E-02  0.1041533E+00
          2   -1    0    0  505    0 -0.00000000000E+00  0.00000000000E+00  0.88769992788E+03  0.88769992788E+03  0.00000000000E+00 0.  1.
         21   -1    0    0  503  502  0.00000000000E+00 -0.00000000000E+00 -0.34963530741E+03  0.34963530741E+03  0.00000000000E+00 0. -1.
         21    1    1    2  503  504  0.12213710600E+02 -0.29901578327E+02 -0.84018551752E+01  0.33374695256E+02  0.00000000000E+00 0.  1.
         21    1    1    2  504  501  0.34168925940E+03 -0.15691551783E+03  0.24312511603E+03  0.44775423144E+03  0.00000000000E+00 0.  1.
         21    1    1    2  505  502 -0.39803417775E+03  0.17685199403E+03 -0.13879231109E+02  0.43577570780E+03  0.00000000000E+00 0. -1.
          2    1    1    2  501    0  0.44131207746E+02  0.99651021168E+01  0.31722059072E+03  0.32043060081E+03  0.00000000000E+00 0.  1.
<scales pt_clust_3="32.29983" pt_clust_4="406.55590" pt_clust_5="14000.00000" pt_clust_6="45.26859"></scales>
<clustering>
<clus scale="   32.300">  2  3  1 -1</clus>
<clus scale="   45.269">  1  6  2 -1</clus>
<clus scale="  406.556">  1  4  2 -1</clus>
<clus scale="   32.300">  2  3  1 -1</clus>
</clustering>
</event>
<event>
 6    0  0.6525019E+002  0.1264907E+03  0.7546771E-02  0.1232758E+00
         21   -1    0    0  505  502  0.00000000000E+00  0.00000000000E+00  0.10557983667E+03  0.10557983667E+03  0.00000000000E+00 0. -1.
          2   -1    0    0  504    0 -0.00000000000E+00 -0.00000000000E+00 -0.17786389081E+04  0.17786389081E+04  0.00000000000E+00 0.  1.
         21    1    1    2  503  502 -0.12301818875E+03 -0.43800473952E+02  0.44557513439E+02  0.13797582501E+03  0.00000000000E+00 0. -1.
         21    1    1    2  504  503  0.10485696633E+02 -0.41710203066E+02 -0.25480211802E+03  0.25840628905E+03  0.00000000000E+00 0.  1.
         21    1    1    2  505  501  0.75519629229E+02  0.87755443334E+02 -0.26189220104E+03  0.28634202835E+03  0.00000000000E+00 0. -1.
          2    1    1    2  501    0  0.37012862891E+02 -0.22447663174E+01 -0.12009222658E+04  0.12014946024E+04  0.00000000000E+00 0.  1.
<scales pt_clust_3="14000.00000" pt_clust_4="50.49142" pt_clust_5="126.49073" pt_clust_6="37.08087"></scales>
<clustering>
<clus scale="   37.081">  2  6  1 -1</clus>
<clus scale="   50.491">  2  4  1 -1</clus>
<clus scale="  126.491">  2  5  1 -1</clus>
<clus scale="  126.491">  1  3  2 -1</clus>
</clustering>
</event>
<event>
 6    0  0.6525019E+002  0.7716379E+02  0.7546771E-02  0.1337298E+00
         21   -1    0    0  504  502  0.00000000000E+00  0.00000000000E+00  0.91691195329E+02  0.91691195329E+02  0.00000000000E+00 0. -1.
          2   -1    0    0  503    0 -0.00000000000E+00 -0.00000000000E+00 -0.15128011888E+04  0.15128011888E+04  0.00000000000E+00 0. -1.
         21    1    1    2  503  505 -0.20782669572E+02  0.43502206609E+02 -0.33554791261E+03  0.33899375067E+03  0.00000000000E+00 0. -1.
         21    1    1    2  504  501 -0.22364549466E+02  0.56767543872E+02 -0.77201494904E+02  0.98401208964E+02  0.00000000000E+00 0. -1.
         21    1    1    2  505  502 -0.13894370342E+02 -0.81911192228E+02  0.56550944196E+02  0.10050127476E+03  0.00000000000E+00 0. -1.
          2    1    1    2  501    0  0.57041589380E+02 -0.18358558254E+02 -0.10649115301E+04  0.10665961497E+04  0.00000000000E+00 0. -1.
<scales pt_clust_3="48.21163" pt_clust_4="77.16379" pt_clust_5="14000.00000" pt_clust_6="43.63066"></scales>
<clustering>
<clus scale="   48.212">  2  3  1 -1</clus>
<clus scale="   43.631">  2  6  1 -1</clus>
<clus scale="   77.164">  2  4  1 -1</clus>
<clus scale="   77.164">  1  3  2 -1</clus>
</clustering>
</event>
<event>
 6    0  0.6525019E+002  0.1025973E+03  0.7546771E-02  0.1274927E+00
         21   -1    0    0  504  502  0.00000000000E+00  0.00000000000E+00  0.65467873619E+02  0.65467873619E+02  0.00000000000E+00 0. -1.
          2   -1    0    0  505    0 -0.00000000000E+00 -0.00000000000E+00 -0.10985668437E+04  0.10985668437E+04  0.00000000000E+00 0. -1.
         21    1    1    2  503  502  0.47546339784E+02 -0.59279436052E+01 -0.28498164447E+01  0.47999129117E+02  0.00000000000E+00 0.  1.
         21    1    1    2  504  501 -0.76883708398E+02  0.10582615773E+03 -0.69833375018E+02  0.14828007467E+03  0.00000000000E+00 0. -1.
         21    1    1    2  505  503 -0.41776664027E+01 -0.31550133084E+02 -0.12922836451E+03  0.13308957130E+03  0.00000000000E+00 0. -1.
          2    1    1    2  501    0  0.33515035017E+02 -0.68348081045E+02 -0.83118741416E+03  0.83466594228E+03  0.00000000000E+00 0. -1.
<scales pt_clust_3="47.91539" pt_clust_4="102.59726" pt_clust_5="31.82552" pt_clust_6="14000.00000"></scales>
<clustering>
<clus scale="   31.826">  2  5  1 -1</clus>
<clus scale="   47.915">  1  3  2 -1</clus>
<clus scale="  102.597">  1  4  2 -1</clus>
<clus scale="   47.915">  1  3  2 -1</clus>
</clustering>
</event>
<event>
 6    0  0.6525019E+002  0.1022799E+03  0.7546771E-02  0.1275573E+00
          2   -1    0    0  502    0 -0.00000000000E+00  0.00000000000E+00  0.16623288016E+04  0.16623288016E+04  0.00000000000E+00 0.  1.
         21   -1    0    0  505  502  0.00000000000E+00 -0.00000000000E+00 -0.53855648580E+02  0.53855648580E+02  0.00000000000E+00 0. -1.
         21    1    1    2  503  501 -0.91894265229E+02  0.95282837912E+02  0.56571855686E+03  0.58099988018E+03  0.00000000000E+00 0. -1.
         21    1    1    2  504  503 -0.19338985324E+02 -0.71698249745E+02  0.24411304917E+03  0.25515841383E+03  0.00000000000E+00 0.  1.
         21    1    1    2  505  504  0.40563756349E+02  0.35686006571E+02 -0.18945883227E+02  0.57252562260E+02  0.00000000000E+00 0. -1.
          2    1    1    2  501    0  0.70669494203E+02 -0.59270594737E+02  0.81758743022E+03  0.82277359393E+03  0.00000000000E+00 0.  1.
<scales pt_clust_3="102.27993" pt_clust_4="59.41132" pt_clust_5="54.02693" pt_clust_6="14000.00000"></scales>
<clustering>
<clus scale="   54.027">  2  5  1 -1</clus>
<clus scale="   59.411">  2  4  1 -1</clus>
<clus scale="  102.280">  2  3  1 -1</clus>
<clus scale="   54.027">  2  3  1 -1</clus>
</clustering>
</event>
<event>
 6    0  0.6525019E+002  0.1475149E+03  0.7546771E-02  0.1203560E+00
         -2   -1    0    0    0  501 -0.00000000000E+00  0.00000000000E+00  0.26270955138E+03  0.26270955138E+03  0.00000000000E+00 0. -1.
         21   -1    0    0  504  502  0.00000000000E+00 -0.00000000000E+00 -0.30646457211E+03  0.30646457211E+03  0.00000000000E+00 0. -1.
         21    1    1    2  503  501  0.13115143320E+03 -0.15358837163E+03 -0.33759409336E+02  0.20476763428E+03  0.00000000000E+00 0. -1.
         21    1    1    2  504  503 -0.14434961131E+03 -0.16182477722E+02 -0.62108104091E+02  0.15797499633E+03  0.00000000000E+00 0. -1.
         21    1    1    2  505  502  0.16205371201E+02  0.44817448472E+02 -0.30523854510E+02  0.56594376376E+02  0.00000000000E+00 0. -1.
         -2    1    1    2    0  505 -0.30071930852E+01  0.12495340088E+03  0.82636347204E+02  0.14983711650E+03  0.00000000000E+00 0. -1.
<scales pt_clust_3="14000.00000" pt_clust_4="147.51491" pt_clust_5="47.65729" pt_clust_6="130.68461"></scales>
<clustering>
<clus scale="   47.657">  2  5  1 -1</clus>
<clus scale="  130.685">  1  6  2 -1</clus>
<clus scale="  147.515">  2  4  1 -1</clus>
<clus scale="   47.657">  2  3  1 -1</clus>
</clustering>
</event>
<event>
 6    0  0.6525019E+002  0.1296342E+03  0.7546771E-02  0.1227999E+00
          2   -1    0    0  503    0 -0.00000000000E+00  0.00000000000E+00  0.27206391702E+04  0.27206391702E+04  0.00000000000E+00 0. -1.
         21   -1    0    0  504  502  0.00000000000E+00 -0.00000000000E+00 -0.33654829728E+03  0.33654829728E+03  0.00000000000E+00 0.  1.
         21    1    1    2  503  502  0.78334740353E+02  0.28797348166E+02 -0.19488493666E+03  0.21200414464E+03  0.00000000000E+00 0.  1.
         21    1    1    2  504  505 -0.16164077574E+03  0.63170032145E+02 -0.61203859112E+02  0.18402202508E+03  0.00000000000E+00 0.  1.
         21    1    1    2  505  501  0.11693279604E+03 -0.11582149562E+03  0.64863753688E+03  0.66919246252E+03  0.00000000000E+00 0. -1.
          2    1    1    2  501    0 -0.33626760652E+02  0.23854115306E+02  0.19915421318E+04  0.19919688352E+04  0.00000000000E+00 0. -1.
<scales pt_clust_3="83.18725" pt_clust_4="129.63423" pt_clust_5="14000.00000" pt_clust_6="41.22836"></scales>
<clustering>
<clus scale="   41.228">  1  6  2 -1</clus>
<clus scale="   83.187">  2  3  1 -1</clus>
<clus scale="  129.634">  2  4  1 -1</clus>
<clus scale="   83.187">  2  3  1 -1</clus>
</clustering>
</event>
<event>
 6    0  0.6525019E+002  0.1806853E+03  0.7546771E-02  0.1167141E+00
         -1   -1    0    0    0  501 -0.00000000000E+00  0.00000000000E+00  0.16313627770E+03  0.16313627770E+03  0.00000000000E+00 0.  1.
         21   -1    0    0  504  502  0.00000000000E+00 -0.00000000000E+00 -0.10384406495E+04  0.10384406495E+04  0.00000000000E+00 0. -1.
         21    1    1    2  503  502  0.15350539135E+03 -0.98746995988E+02 -0.87511179086E+03  0.89394380187E+03  0.00000000000E+00 0. -1.
         21    1    1    2  504  501  0.29086322577E+02 -0.17503388909E+02 -0.28347041953E+02  0.44225982995E+02  0.00000000000E+00 0.  1.
         21    1    1    2  505  503 -0.13708111202E+03  0.97652289916E+02 -0.45959434094E+02  0.17446911068E+03  0.00000000000E+00 0.  1.
         -1    1    1    2    0  505 -0.45510601909E+02  0.18598094981E+02  0.74113895120E+02  0.88938031645E+02  0.00000000000E+00 0.  1.
<scales pt_clust_3="14000.00000" pt_clust_4="33.94676" pt_clust_5="180.68532" pt_clust_6="31.66006"></scales>
<clustering>
<clus scale="   33.947">  1  4  2 -1</clus>
<clus scale="   31.660">  1  6  2 -1</clus>
<clus scale="  180.685">  1  5  2 -1</clus>
<clus scale="  180.685">  2  3  1 -1</clus>
</clustering>
</event>
<event>
 6    0  0.6525019E+002  0.1110801E+03  0.7546771E-02  0.1258583E+00
         21   -1    0    0  503  502  0.00000000000E+00  0.00000000000E+00  0.50653196555E+03  0.50653196555E+03  0.00000000000E+00 0.  1.
          1   -1    0    0  504    0 -0.00000000000E+00 -0.00000000000E+00 -0.15016640471E+04  0.15016640471E+04  0.00000000000E+00 0. -1.
         21    1    1    2  503  505 -0.18728368736E+02 -0.39410720817E+02  0.48763563183E+03  0.48958397252E+03  0.00000000000E+00 0.  1.
         21    1    1    2  504  502 -0.65458921602E+02 -0.65009990356E+02 -0.27511069327E+03  0.29016730142E+03  0.00000000000E+00 0. -1.
         21    1    1    2  505  501  0.11100488772E+03  0.77646103884E+02 -0.45261844057E+03  0.47245577072E+03  0.00000000000E+00 0. -1.
          1    1    1    2  501    0 -0.26817597377E+02  0.26774607289E+02 -0.75503857957E+03  0.75598896802E+03  0.00000000000E+00 0. -1.
<scales pt_clust_3="43.61783" pt_clust_4="111.08009" pt_clust_5="14000.00000" pt_clust_6="37.89542"></scales>
<clustering>
<clus scale="   37.895">  2  6  1 -1</clus>
<clus scale="   43.618">  1  3  2 -1</clus>
<clus scale="  111.080">  2  4  1 -1</clus>
<clus scale="   43.618">  1  3  2 -1</clus>
</clustering>
</event>
<event>
 6    0  0.6525019E+002  0.3360532E+03  0.7546771E-02  0.1068489E+00
         -4   -1    0    0    0  501 -0.00000000000E+00  0.00000000000E+00  0.27022681037E+03  0.27022681037E+03  0.00000000000E+00 0.  1.
         21   -1    0    0  503  502  0.00000000000E+00 -0.00000000000E+00 -0.63422499849E+03  0.63422499849E+03  0.00000000000E+00 0.  1.
         21    1    1    2  503  504  0.43666169387E+02  0.89020987882E+01 -0.38551528436E+02  0.58925393987E+02  0.00000000000E+00 0.  1.
         21    1    1    2  504  501  0.11289846173E+03  0.31731826839E+03 -0.84903043727E+02  0.34734057199E+03  0.00000000000E+00 0.  1.
         21    1    1    2  505  502 -0.79312916141E+02  0.10734607271E+01 -0.11399474461E+03  0.13887581785E+03  0.00000000000E+00 0.  1.
         -4    1    1    2    0  505 -0.77251714974E+02 -0.32729382791E+03 -0.12654887135E+03  0.35931002504E+03  0.00000000000E+00 0.  1.
<scales pt_clust_3="44.56435" pt_clust_4="336.05325" pt_clust_5="69.94743" pt_clust_6="14000.00000"></scales>
<clustering>
<clus scale="   44.564">  2  3  1 -1</clus>
<clus scale="   69.947">  2  5  1 -1</clus>
<clus scale="  336.053">  1  4  2 -1</clus>
<clus scale="   44.564">  2  3  1 -1</clus>
</clustering>
</event>
<event>
 6    0  0.6525019E+002  0.1033943E+03  0.7546771E-02  0.1273316E+00
          1   -1    0    0  505    0 -0.00000000000E+00  0.00000000000E+00  0.27265583147E+04  0.27265583147E+04  0.00000000000E+00 0.  1.
         21   -1    0    0  503  502  0.00000000000E+00 -0.00000000000E+00 -0.31191017561E+03  0.31191017561E+03  0.00000000000E+00 0. -1.
         21    1    1    2  503  504 -0.43589993936E+02 -0.33320881325E+01 -0.30047692441E+03  0.30364053170E+03  0.00000000000E+00 0. -1.
         21    1    1    2  504  501 -0.33388147036E+02 -0.99862446593E+02  0.50155062481E+03  0.51248444449E+03  0.00000000000E+00 0.  1.
         21    1    1    2  505  502 -0.14181678087E+02  0.10001328743E+03  0.91209694087E+03  0.91767347526E+03  0.00000000000E+00 0.  1.
          1    1    1    2  501    0  0.91159819059E+02  0.31812472969E+01  0.13014774978E+04  0.13046700389E+04  0.00000000000E+00 0.  1.
<scales pt_clust_3="43.71716" pt_clust_4="103.39432" pt_clust_5="14000.00000" pt_clust_6="84.13822"></scales>
<clustering>
<clus scale="   43.717">  2  3  1 -1</clus>
<clus scale="   84.138">  1  6  2 -1</clus>
<clus scale="  103.394">  2  4  1 -1</clus>
<clus scale="   43.717">  2  3  1 -1</clus>
</clustering>
</event>
<event>
 6    0  0.6525019E+002  0.7391085E+02  0.7546771E-02  0.1347277E+00
         21   -1    0    0  505  502  0.00000000000E+00  0.00000000000E+00  0.11502081944E+03  0.11502081944E+03  0.00000000000E+00 0.  1.
          2   -1    0    0  504    0 -0.00000000000E+00 -0.00000000000E+00 -0.14596814975E+04  0.14596814975E+04  0.00000000000E+00 0.  1.
         21    1    1    2  503  502 -0.79052262662E+02  0.32808974671E+01  0.62788497365E+02  0.10100702907E+03  0.00000000000E+00 0.  1.
         21    1    1    2  504  503  0.39710325161E+02 -0.78339731913E+02 -0.10611819307E+04  0.10648103651E+04  0.00000000000E+00 0.  1.
         21    1    1    2  505  501  0.20142246645E+02  0.41554372888E+02  0.12662939123E+02  0.47883463045E+02  0.00000000000E+00 0.  1.
          2    1    1    2  501    0  0.19199690856E+02  0.33504461558E+02 -0.35893018378E+03  0.36100145969E+03  0.00000000000E+00 0.  1.
<scales pt_clust_3="14000.00000" pt_clust_4="73.91085" pt_clust_5="46.79566" pt_clust_6="38.61576"></scales>
<clustering>
<clus scale="   38.616">  2  6  1 -1</clus>
<clus scale="   46.796">  1  5  2 -1</clus>
<clus scale="   73.911">  2  4  1 -1</clus>
<clus scale="   46.796">  1  3  2 -1</clus>
</clustering>
</event>
<event>
 6    0  0.6525019E+002  0.1108138E+03  0.7546771E-02  0.1259070E+00
         21   -1    0    0  504  502  0.00000000000E+00  0.00000000000E+00  0.12684375321E+04  0.12684375321E+04  0.00000000000E+00 0.  1.
          3   -1    0    0  503    0 -0.00000000000E+00 -0.00000000000E+00 -0.11130435825E+03  0.11130435825E+03  0.00000000000E+00 0. -1.
         21    1    1    2  503  505 -0.63978774968E+02  0.31305538086E+02  0.45876535789E+03  0.46426175156E+03  0.00000000000E+00 0.  1.
         21    1    1    2  504  501  0.79393420556E+02  0.32230612865E+02  0.34191347280E+03  0.35248680899E+03  0.00000000000E+00 0. -1.
         21    1    1    2  505  502 -0.45561598309E+02 -0.20127884865E+02  0.45150164878E+03  0.45424082802E+03  0.00000000000E+00 0.  1.
          3    1    1    2  501    0  0.30146952720E+02 -0.43408266086E+02 -0.95047305658E+02  0.10875250174E+03  0.00000000000E+00 0. -1.
<scales pt_clust_3="45.31898" pt_clust_4="96.65796" pt_clust_5="45.31898" pt_clust_6="52.84994"></scales>
<clustering>
<clus scale="   45.319">  3  5 -1 -1</clus>
<clus scale="   52.850">  2  6  1 -1</clus>
<clus scale="   96.658">  2  4  1 -1</clus>
<clus scale="  110.814">  1  3  2 -1</clus>
</clustering>
</event>
<event>
 6    0  0.1367353E+003  0.1112610E+03  0.7546771E-02  0.1258252E+00
         21   -1    0    0  504  502  0.00000000000E+00  0.00000000000E+00  0.76894908415E+03  0.76894908415E+03  0.00000000000E+00 0.  1.
          2   -1    0    0  503    0 -0.00000000000E+00 -0.00000000000E+00 -0.25091072400E+04  0.25091072400E+04  0.00000000000E+00 0. -1.
         21    1    1    2  503  502  0.25079645505E+02 -0.67445272683E+02 -0.30812809866E+03  0.31641867614E+03  0.00000000000E+00 0. -1.
         21    1    1    2  504  505  0.16056112561E+02  0.11073508822E+03  0.75776703924E+03  0.76598364491E+03  0.00000000000E+00 0.  1.
         21    1    1    2  505  501 -0.64147555022E+02 -0.12307792566E+02 -0.38916712302E+03  0.39461049177E+03  0.00000000000E+00 0. -1.
          2    1    1    2  501    0  0.23011796956E+02 -0.30982022968E+02 -0.18006299734E+04  0.18010435114E+04  0.00000000000E+00 0. -1.
<scales pt_clust_3="14000.00000" pt_clust_4="111.26101" pt_clust_5="59.25221" pt_clust_6="38.59312"></scales>
<clustering>
<clus scale="   38.593">  2  6  1 -1</clus>
<clus scale="   59.252">  2  5  1 -1</clus>
<clus scale="  111.261">  1  4  2 -1</clus>
<clus scale="  111.261">  1  3  2 -1</clus>
</clustering>
</event>
<event>
 6    0  0.6525019E+002  0.9546980E+02  0.7546771E-02  0.1290121E+00
         21   -1    0    0  503  502  0.00000000000E+00  0.00000000000E+00  0.34816502776E+02  0.34816502776E+02  0.00000000000E+00 0. -1.
          2   -1    0    0  505    0 -0.00000000000E+00 -0.00000000000E+00 -0.15063003406E+04  0.15063003406E+04  0.00000000000E+00 0.  1.
         21    1    1    2  503  504 -0.47559809590E+01 -0.36317224947E+02  0.41996369917E+01  0.36867290836E+02  0.00000000000E+00 0. -1.
         21    1    1    2  504  501 -0.85325230610E+02 -0.16506565610E+02 -0.32952614612E+03  0.34079369517E+03  0.00000000000E+00 0. -1.
         21    1    1    2  505  502  0.10434145383E+03  0.12301191660E+02 -0.33336839418E+03  0.34953246565E+03  0.00000000000E+00 0. -1.
          2    1    1    2  501    0 -0.14260242265E+02  0.40522598897E+02 -0.81278893451E+03  0.81392339172E+03  0.00000000000E+00 0.  1.
<scales pt_clust_3="36.62731" pt_clust_4="95.46980" pt_clust_5="14000.00000" pt_clust_6="41.66591"></scales>
<clustering>
<clus scale="   36.627">  1  3  2 -1</clus>
<clus scale="   41.666">  2  6  1 -1</clus>
<clus scale="   95.470">  2  4  1 -1</clus>
<clus scale="   36.627">  1  3  2 -1</clus>
</clustering>
</event>
<event>
 6    0  0.6525019E+002  0.1191129E+03  0.7546771E-02  0.1244568E+00
          1   -1    0    0  504    0 -0.00000000000E+00  0.00000000000E+00  0.28868529139E+03  0.28868529139E+03  0.00000000000E+00 0.  1.
         21   -1    0    0  503  502  0.00000000000E+00 -0.00000000000E+00 -0.56535192086E+03  0.56535192086E+03  0.00000000000E+00 0.  1.
         21    1    1    2  503  505  0.19495382983E+02  0.10072021387E+03 -0.23999492141E+03  0.26100228685E+03  0.00000000000E+00 0.  1.
         21    1    1    2  504  502 -0.10649505085E+03 -0.13162933677E+03 -0.26899128780E+03  0.31784239973E+03  0.00000000000E+00 0.  1.
         21    1    1    2  505  501  0.46538421329E+02  0.26579839115E+02  0.17241760718E+02  0.56299119175E+02  0.00000000000E+00 0.  1.
          1    1    1    2  501    0  0.40461246540E+02  0.43292837900E+01  0.21507781902E+03  0.21889340649E+03  0.00000000000E+00 0.  1.
<scales pt_clust_3="119.11293" pt_clust_4="14000.00000" pt_clust_5="73.19285" pt_clust_6="40.69220"></scales>
<clustering>
<clus scale="   40.692">  1  6  2 -1</clus>
<clus scale="   73.193">  1  5  2 -1</clus>
<clus scale="  119.113">  2  3  1 -1</clus>
<clus scale="  119.113">  2  3  1 -1</clus>
</clustering>
</event>
<event>
 6    0  0.6525019E+002  0.1007453E+03  0.7546771E-02  0.1278736E+00
         21   -1    0    0  503  502  0.00000000000E+00  0.00000000000E+00  0.22664525197E+03  0.22664525197E+03  0.00000000000E+00 0.  1.
          2   -1    0    0  505    0 -0.00000000000E+00 -0.00000000000E+00 -0.44550789534E+03  0.44550789534E+03  0.00000000000E+00 0.  1.
         21    1    1    2  503  501 -0.16928048886E+02  0.28114883022E+02 -0.79365018341E+01  0.33763790483E+02  0.00000000000E+00 0. -1.
         21    1    1    2  504  502  0.85860934186E+02 -0.22511727362E+02  0.17554948516E+03  0.19671425883E+03  0.00000000000E+00 0.  1.
         21    1    1    2  505  504 -0.75055738846E+02  0.90457849379E+02 -0.21457313776E+03  0.24465816540E+03  0.00000000000E+00 0.  1.
          2    1    1    2  501    0  0.61228535465E+01 -0.96061005040E+02 -0.17190248894E+03  0.19701693260E+03  0.00000000000E+00 0.  1.
<scales pt_clust_3="32.81776" pt_clust_4="71.14620" pt_clust_5="100.74529" pt_clust_6="14000.00000"></scales>
<clustering>
<clus scale="   32.818">  1  3  2 -1</clus>
<clus scale="   71.146">  1  4  2 -1</clus>
<clus scale="  100.745">  1  5  2 -1</clus>
<clus scale="   32.818">  1  3  2 -1</clus>
</clustering>
</event>
<event>
 6    0  0.6525019E+002  0.1051886E+03  0.7546771E-02  0.1269748E+00
          2   -1    0    0  505    0 -0.00000000000E+00  0.00000000000E+00  0.15700112402E+04  0.15700112402E+04  0.00000000000E+00 0. -1.
         21   -1    0    0  504  502  0.00000000000E+00 -0.00000000000E+00 -0.21097282665E+03  0.21097282665E+03  0.00000000000E+00 0.  1.
         21    1    1    2  503  502 -0.14609865717E+01 -0.49966860790E+02 -0.17994413077E+03  0.18675843183E+03  0.00000000000E+00 0.  1.
         21    1    1    2  504  501 -0.10624251240E+03  0.85327183884E+02  0.26446224412E+03  0.29750374505E+03  0.00000000000E+00 0. -1.
         21    1    1    2  505  503  0.73989346507E+02 -0.35918056660E+02  0.14502705448E+03  0.16672545313E+03  0.00000000000E+00 0. -1.
          2    1    1    2  501    0  0.33714152460E+02  0.55773356560E+00  0.11294932457E+04  0.11299964369E+04  0.00000000000E+00 0. -1.
<scales pt_clust_3="49.97696" pt_clust_4="14000.00000" pt_clust_5="105.18859" pt_clust_6="33.71877"></scales>
<clustering>
<clus scale="   33.719">  1  6  2 -1</clus>
<clus scale="   49.977">  2  3  1 -1</clus>
<clus scale="  105.189">  2  5  1 -1</clus>
<clus scale="   49.977">  2  3  1 -1</clus>
</clustering>
</event>
<event>
 6    0  0.6525019E+002  0.2326709E+03  0.7546771E-02  0.1124774E+00
         21   -1    0    0  504  502  0.00000000000E+00  0.00000000000E+00  0.71364376033E+03  0.71364376033E+03  0.00000000000E+00 0. -1.
          2   -1    0    0  505    0 -0.00000000000E+00 -0.00000000000E+00 -0.18913772765E+04  0.18913772765E+04  0.00000000000E+00 0.  1.
         21    1    1    2  503  502 -0.22264237762E+03 -0.73900192163E+00  0.40660969545E+03  0.46357482553E+03  0.00000000000E+00 0. -1.
         21    1    1    2  504  501 -0.21102992366E+02  0.32630384487E+02  0.12557369860E+02  0.40838288607E+02  0.00000000000E+00 0. -1.
         21    1    1    2  505  503  0.25427957302E+03 -0.63444475722E+02  0.18347842914E+03  0.31991817190E+03  0.00000000000E+00 0. -1.
          2    1    1    2  501    0 -0.10534203038E+02  0.31553093156E+02 -0.17803790106E+04  0.17806897507E+04  0.00000000000E+00 0.  1.
<scales pt_clust_3="14000.00000" pt_clust_4="42.98256" pt_clust_5="232.67095" pt_clust_6="33.26510"></scales>
<clustering>
<clus scale="   33.265">  2  6  1 -1</clus>
<clus scale="   42.983">  2  4  1 -1</clus>
<clus scale="  232.671">  2  5  1 -1</clus>
<clus scale="  232.671">  1  3  2 -1</clus>
</clustering>
</event>
<event>
 6    0  0.6525019E+002  0.9085223E+02  0.7546771E-02  0.1300801E+00
         21   -1    0    0  505  502  0.00000000000E+00  0.00000000000E+00  0.59854232429E+03  0.59854232429E+03  0.00000000000E+00 0. -1.
         -3   -1    0    0    0  501 -0.00000000000E+00 -0.00000000000E+00 -0.50224814288E+03  0.50224814288E+03  0.00000000000E+00 0.  1.
         21    1    1    2  503  502 -0.21889794434E+02 -0.59351347166E+02  0.25553457938E+03  0.26324829870E+03  0.00000000000E+00 0. -1.
         21    1    1    2  504  503 -0.48947975735E+02 -0.79296592477E+02  0.12868026900E+03  0.15887877624E+03  0.00000000000E+00 0. -1.
         21    1    1    2  505  501  0.64418509367E+01  0.11589837456E+03  0.17540286847E+03  0.21033329964E+03  0.00000000000E+00 0. -1.
         -3    1    1    2    0  504  0.64395919232E+02  0.22749565084E+02 -0.46332353545E+03  0.46833009259E+03  0.00000000000E+00 0.  1.
<scales pt_clust_3="63.25935" pt_clust_4="90.85223" pt_clust_5="14000.00000" pt_clust_6="67.99893"></scales>
<clustering>
<clus scale="   63.259">  1  3  2 -1</clus>
<clus scale="   67.999">  2  6  1 -1</clus>
<clus scale="   90.852">  2  4  1 -1</clus>
<clus scale="   63.259">  1  3  2 -1</clus>
</clustering>
</event>
<event>
 6    0  0.6525019E+002  0.7453596E+02  0.7546771E-02  0.1345314E+00
         -4   -1    0    0    0  501 -0.00000000000E+00  0.00000000000E+00  0.46621955924E+02  0.46621955924E+02  0.00000000000E+00 0. -1.
         21   -1    0    0  503  502  0.00000000000E+00 -0.00000000000E+00 -0.51849785177E+03  0.51849785177E+03  0.00000000000E+00 0.  1.
         21    1    1    2  503  501 -0.83062099966E+02 -0.18757647230E+02 -0.17020861673E+03  0.19032113648E+03  0.00000000000E+00 0.  1.
         21    1    1    2  504  505  0.40900468058E+02  0.68897849098E+02 -0.18239044994E+03  0.19921354905E+03  0.00000000000E+00 0.  1.
         21    1    1    2  505  502  0.48592628874E+02 -0.14642166957E+02 -0.12866103011E+03  0.13830870291E+03  0.00000000000E+00 0.  1.
         -4    1    1    2    0  504 -0.64309969654E+01 -0.35498034911E+02  0.93842009340E+01  0.37276419244E+02  0.00000000000E+00 0. -1.
<scales pt_clust_3="14000.00000" pt_clust_4="74.53596" pt_clust_5="52.12786" pt_clust_6="36.07587"></scales>
<clustering>
<clus scale="   36.076">  1  6  2 -1</clus>
<clus scale="   52.128">  2  5  1 -1</clus>
<clus scale="   74.536">  1  4  2 -1</clus>
<clus scale="   52.128">  2  3  1 -1</clus>
</clustering>
</event>
<event>
 6    0  0.6525019E+002  0.9596674E+02  0.7546771E-02  0.1289013E+00
          2   -1    0    0  504    0 -0.00000000000E+00  0.00000000000E+00  0.33372406905E+04  0.33372406905E+04  0.00000000000E+00 0.  1.
         21   -1    0    0  505  502  0.00000000000E+00 -0.00000000000E+00 -0.14960685392E+03  0.14960685392E+03  0.00000000000E+00 0.  1.
         21    1    1    2  503  502 -0.33114188055E+02  0.14941361618E+02 -0.13526201068E+03  0.14005572202E+03  0.00000000000E+00 0.  1.
         21    1    1    2  504  503 -0.38131447918E+02  0.94319828611E+02  0.17665854352E+04  0.17695124575E+04  0.00000000000E+00 0.  1.
         21    1    1    2  505  501  0.24699602883E+00 -0.45800616177E+02  0.49409153129E+02  0.67372263300E+02  0.00000000000E+00 0.  1.
          2    1    1    2  501    0  0.70998639943E+02 -0.63460574052E+02  0.15069012589E+04  0.15099071016E+04  0.00000000000E+00 0.  1.
<scales pt_clust_3="36.32897" pt_clust_4="95.96674" pt_clust_5="42.45486" pt_clust_6="14000.00000"></scales>
<clustering>
<clus scale="   36.329">  2  3  1 -1</clus>
<clus scale="   42.455">  2  5  1 -1</clus>
<clus scale="   95.967">  1  4  2 -1</clus>
<clus scale="   36.329">  2  3  1 -1</clus>
</clustering>
</event>
<event>
 6    0  0.6525019E+002  0.1267110E+03  0.7546771E-02  0.1232419E+00
         21   -1    0    0  504  502  0.00000000000E+00  0.00000000000E+00  0.95143724831E+02  0.95143724831E+02  0.00000000000E+00 0. -1.
          2   -1    0    0  505    0 -0.00000000000E+00 -0.00000000000E+00 -0.29877407696E+04  0.29877407696E+04  0.00000000000E+00 0.  1.
         21    1    1    2  503  502  0.35355246231E+02 -0.12610088105E+03  0.40781760583E+02  0.13716624087E+03  0.00000000000E+00 0. -1.
         21    1    1    2  504  501  0.18234767100E+02  0.39035167997E+02 -0.12637817251E+03  0.13352038630E+03  0.00000000000E+00 0.  1.
         21    1    1    2  505  503 -0.65516127812E+02  0.48971965180E+02 -0.69154089682E+03  0.69636156438E+03  0.00000000000E+00 0.  1.
          2    1    1    2  501    0  0.11926114482E+02  0.38093747875E+02 -0.21154597361E+04  0.21158363029E+04  0.00000000000E+00 0.  1.
<scales pt_clust_3="126.71104" pt_clust_4="48.98560" pt_clust_5="14000.00000" pt_clust_6="39.91699"></scales>
<clustering>
<clus scale="   39.917">  2  6  1 -1</clus>
<clus scale="   48.986">  2  4  1 -1</clus>
<clus scale="  126.711">  1  3  2 -1</clus>
<clus scale="  126.711">  1  3  2 -1</clus>
</clustering>
</event>
<event>
 6    0  0.6525019E+002  0.1825280E+03  0.7546771E-02  0.1165379E+00
         21   -1    0    0  503  502  0.00000000000E+00  0.00000000000E+00  0.17238249292E+04  0.17238249292E+04  0.00000000000E+00 0. -1.
          4   -1    0    0  505    0 -0.00000000000E+00 -0.00000000000E+00 -0.26277009947E+03  0.26277009947E+03  0.00000000000E+00 0.  1.
         21    1    1    2  503  501  0.12863854504E+03  0.13443748674E+03  0.67729800059E+03  0.70239155370E+03  0.00000000000E+00 0. -1.
         21    1    1    2  504  502  0.19603935044E+02 -0.55521561268E+02  0.46524261285E+03  0.46895377901E+03  0.00000000000E+00 0. -1.
         21    1    1    2  505  504 -0.14262723987E+03 -0.11952041592E+03  0.54975965938E+03  0.58039929571E+03  0.00000000000E+00 0. -1.
          4    1    1    2  501    0 -0.56152402181E+01  0.40604490448E+02 -0.23124544307E+03  0.23485040027E+03  0.00000000000E+00 0.  1.
<scales pt_clust_3="182.52799" pt_clust_4="56.37615" pt_clust_5="14000.00000" pt_clust_6="40.99092"></scales>
<clustering>
<clus scale="   40.991">  2  6  1 -1</clus>
<clus scale="   56.376">  1  4  2 -1</clus>
<clus scale="  182.528">  1  3  2 -1</clus>
<clus scale="   56.376">  1  3  2 -1</clus>
</clustering>
</event>
<event>
 6    0  0.6746615E+002  0.1142255E+03  0.7546771E-02  0.1252939E+00
          1   -1    0    0  502    0 -0.00000000000E+00  0.00000000000E+00  0.82261943620E+03  0.82261943620E+03  0.00000000000E+00 0.  1.
         21   -1    0    0  503  502  0.00000000000E+00 -0.00000000000E+00 -0.24464014491E+03  0.24464014491E+03  0.00000000000E+00 0.  1.
         21    1    1    2  503  505 -0.13143637169E+02 -0.36420797112E+02 -0.11854696893E+03  0.12471011789E+03  0.00000000000E+00 0.  1.
         21    1    1    2  504  501 -0.31234994819E+02  0.68084197873E+02  0.29973448476E+03  0.30895281881E+03  0.00000000000E+00 0. -1.
         21    1    1    2  505  504  0.60307106263E+02 -0.74333108712E+02 -0.97837906204E+02  0.13687444614E+03  0.00000000000E+00 0. -1.
          1    1    1    2  501    0 -0.15928474275E+02  0.42669707950E+02  0.49462968166E+03  0.49672219827E+03  0.00000000000E+00 0.  1.
<scales pt_clust_3="38.71989" pt_clust_4="14000.00000" pt_clust_5="114.22549" pt_clust_6="45.29519"></scales>
<clustering>
<clus scale="   38.720">  2  3  1 -1</clus>
<clus scale="   45.295">  1  6  2 -1</clus>
<clus scale="  114.225">  2  5  1 -1</clus>
<clus scale="   38.720">  2  3  1 -1</clus>
</clustering>
</event>
<event>
 6    0  0.6525019E+002  0.1152417E+03  0.7546771E-02  0.1251160E+00
         21   -1    0    0  504  502  0.00000000000E+00  0.00000000000E+00  0.74946408950E+03  0.74946408950E+03  0.00000000000E+00 0. -1.
         -2   -1    0    0    0  501 -0.00000000000E+00 -0.00000000000E+00 -0.37187740404E+02  0.37187740404E+02  0.00000000000E+00 0.  1.
         21    1    1    2  503  502 -0.13224478381E+02  0.46751471276E+02  0.34183749560E+02  0.59406360172E+02  0.00000000000E+00 0.  1.
         21    1    1    2  504  505  0.20881373669E+02 -0.49389186888E+02  0.38512355501E+03  0.38883862484E+03  0.00000000000E+00 0. -1.
         21    1    1    2  505  501 -0.28010088810E+02 -0.79173287836E+02  0.16536830566E+03  0.18547142933E+03  0.00000000000E+00 0. -1.
         -2    1    1    2    0  503  0.20353193522E+02  0.81811003448E+02  0.12760073888E+03  0.15293541556E+03  0.00000000000E+00 0.  1.
<scales pt_clust_3="36.68898" pt_clust_4="53.62204" pt_clust_5="104.61820" pt_clust_6="36.68898"></scales>
<clustering>
<clus scale="   36.689">  3  6 -1 -1</clus>
<clus scale="   53.622">  1  4  2 -1</clus>
<clus scale="  104.618">  1  5  2 -1</clus>
<clus scale="   53.622">  1  3  2 -1</clus>
</clustering>
</event>
<event>
 6    0  0.6525019E+002  0.8453580E+02  0.7546771E-02  0.1316651E+00
          2   -1    0    0  504    0 -0.00000000000E+00  0.00000000000E+00  0.17458576857E+04  0.17458576857E+04  0.00000000000E+00 0.  1.
         21   -1    0    0  505  502  0.00000000000E+00 -0.00000000000E+00 -0.12895747505E+04  0.12895747505E+04  0.00000000000E+00 0. -1.
         21    1    1    2  503  502 -0.37731065346E+02  0.41833025384E+02 -0.44690852660E+02  0.71909023192E+02  0.00000000000E+00 0. -1.
         21    1    1    2  504  503  0.33779132900E+02 -0.12363146341E+03  0.15973181434E+03  0.20479262945E+03  0.00000000000E+00 0. -1.
         21    1    1    2  505  501  0.10128352158E+02  0.41594694732E+02 -0.12080983497E+04  0.12088566188E+04  0.00000000000E+00 0. -1.
          2    1    1    2  501    0 -0.61764197119E+01  0.40203743295E+02  0.15493403233E+04  0.15498741647E+04  0.00000000000E+00 0.  1.
<scales pt_clust_3="14000.00000" pt_clust_4="84.53580" pt_clust_5="42.88272" pt_clust_6="40.67541"></scales>
<clustering>
<clus scale="   40.675">  1  6  2 -1</clus>
<clus scale="   42.883">  2  5  1 -1</clus>
<clus scale="   84.536">  1  4  2 -1</clus>
<clus scale="   42.883">  2  3  1 -1</clus>
</clustering>
</event>
<event>
 6    0  0.6525019E+002  0.1142054E+03  0.7546771E-02  0.1252975E+00
         21   -1    0    0  503  502  0.00000000000E+00  0.00000000000E+00  0.63162397853E+02  0.63162397853E+02  0.00000000000E+00 0.  1.
          1   -1    0    0  504    0 -0.00000000000E+00 -0.00000000000E+00 -0.41497929465E+04  0.41497929465E+04  0.00000000000E+00 0. -1.
         21    1    1    2  503  501  0.13766822884E+03 -0.12827296014E+02 -0.17089078556E+03  0.21981979288E+03  0.00000000000E+00 0.  1.
         21    1    1    2  504  505  0.51753185536E+01 -0.34246863194E+02 -0.12577061322E+04  0.12581829544E+04  0.00000000000E+00 0.  1.
         21    1    1    2  505  502 -0.10468810186E+03  0.11100127889E+02 -0.34338802156E+02  0.11073375657E+03  0.00000000000E+00 0.  1.
          1    1    1    2  501    0 -0.38155445530E+02  0.35974031319E+02 -0.26236948287E+04  0.26242188406E+04  0.00000000000E+00 0. -1.
<scales pt_clust_3="114.20540" pt_clust_4="34.63570" pt_clust_5="14000.00000" pt_clust_6="33.81639"></scales>
<clustering>
<clus scale="   34.636">  2  4  1 -1</clus>
<clus scale="   33.816">  2  6  1 -1</clus>
<clus scale="  114.205">  2  3  1 -1</clus>
<clus scale="  114.205">  1  3  2 -1</clus>
</clustering>
</event>
<event>
 6    0  0.6525019E+002  0.1873757E+03  0.7546771E-02  0.1160850E+00
         21   -1    0    0  505  502  0.00000000000E+00  0.00000000000E+00  0.41189509784E+03  0.41189509784E+03  0.00000000000E+00 0. -1.
          1   -1    0    0  502    0 -0.00000000000E+00 -0.00000000000E+00 -0.16648438095E+04  0.16648438095E+04  0.00000000000E+00 0. -1.
         21    1    1    2  503  504  0.44885727342E+02  0.60069050819E+00  0.36428296658E+02  0.57810986374E+02  0.00000000000E+00 0. -1.
         21    1    1    2  504  501  0.10880716971E+03 -0.94832709739E+02 -0.20163271710E+03  0.24796773101E+03  0.00000000000E+00 0.  1.
         21    1    1    2  505  503  0.34342478363E+02  0.18332559082E+02  0.33327756468E+03  0.33554347507E+03  0.00000000000E+00 0. -1.
          1    1    1    2  501    0 -0.18803537542E+03  0.75899460148E+02 -0.14210218559E+04  0.14354167149E+04  0.00000000000E+00 0. -1.
<scales pt_clust_3="66.81112" pt_clust_4="14000.00000" pt_clust_5="38.92928" pt_clust_6="187.37568"></scales>
<clustering>
<clus scale="   38.929">  1  5  2 -1</clus>
<clus scale="   66.811">  1  3  2 -1</clus>
<clus scale="  187.376">  2  6  1 -1</clus>
<clus scale="   38.929">  1  3  2 -1</clus>
</clustering>
</event>
<event>
 6    0  0.6525019E+002  0.1176951E+03  0.7546771E-02  0.1246949E+00
         21   -1    0    0  505  502  0.00000000000E+00  0.00000000000E+00  0.28822784288E+03  0.28822784288E+03  0.00000000000E+00 0. -1.
          2   -1    0    0  504    0 -0.00000000000E+00 -0.00000000000E+00 -0.18325037464E+04  0.18325037464E+04  0.00000000000E+00 0.  1.
         21    1    1    2  503  502 -0.10414831619E+03  0.68728129094E+02  0.25046917788E+03  0.27983072841E+03  0.00000000000E+00 0. -1.
         21    1    1    2  504  503  0.33281296973E+02 -0.11662655815E+02 -0.13193496049E+03  0.13656681906E+03  0.00000000000E+00 0. -1.
         21    1    1    2  505  501  0.83735486257E+02 -0.88716659460E+01 -0.66637054876E+02  0.10738172656E+03  0.00000000000E+00 0. -1.
          2    1    1    2  501    0 -0.12868467036E+02 -0.48193807332E+02 -0.15961730660E+04  0.15969523152E+04  0.00000000000E+00 0.  1.
<scales pt_clust_3="14000.00000" pt_clust_4="35.26560" pt_clust_5="117.69511" pt_clust_6="61.95948"></scales>
<clustering>
<clus scale="   35.266">  2  4  1 -1</clus>
<clus scale="   61.959">  2  6  1 -1</clus>
<clus scale="  117.695">  2  5  1 -1</clus>
<clus scale="  117.695">  1  3  2 -1</clus>
</clustering>
</event>
<event>
 6    0  0.6525019E+002  0.1199176E+03  0.7546771E-02  0.1243233E+00
         21   -1    0    0  501  502  0.00000000000E+00  0.00000000000E+00  0.19072946320E+04  0.19072946320E+04  0.00000000000E+00 0. -1.
         -3   -1    0    0    0  501 -0.00000000000E+00 -0.00000000000E+00 -0.16815104922E+03  0.16815104922E+03  0.00000000000E+00 0. -1.
         21    1    1    2  503  505 -0.52335666736E+02 -0.10786837907E+03  0.13003639900E+04  0.13058794415E+04  0.00000000000E+00 0. -1.
         21    1    1    2  504  503  0.12418295549E+02  0.86071663710E+02  0.18135062440E+03  0.20112333114E+03  0.00000000000E+00 0.  1.
         21    1    1    2  505  502  0.18663928530E+02 -0.26308058697E+02  0.40783446756E+03  0.40910806532E+03  0.00000000000E+00 0.  1.
         -3    1    1    2    0  504  0.21253442657E+02  0.48104774059E+02 -0.15040549916E+03  0.15933484330E+03  0.00000000000E+00 0. -1.
<scales pt_clust_3="119.91755" pt_clust_4="14000.00000" pt_clust_5="32.25610" pt_clust_6="52.54152"></scales>
<clustering>
<clus scale="   32.256">  1  5  2 -1</clus>
<clus scale="   52.542">  2  6  1 -1</clus>
<clus scale="  119.918">  1  3  2 -1</clus>
<clus scale="   32.256">  1  3  2 -1</clus>
</clustering>
</event>
<event>
 6    0  0.6525019E+002  0.9424400E+02  0.7546771E-02  0.1292888E+00
          2   -1    0    0  504    0 -0.00000000000E+00  0.00000000000E+00  0.13257893497E+04  0.13257893497E+04  0.00000000000E+00 0.  1.
         21   -1    0    0  503  502  0.00000000000E+00 -0.00000000000E+00 -0.73067821482E+02  0.73067821482E+02  0.00000000000E+00 0. -1.
         21    1    1    2  503  505  0.92689368920E+02  0.27453046815E+02  0.33870458437E+02  0.10243142509E+03  0.00000000000E+00 0. -1.
         21    1    1    2  504  502  0.37929184347E+01  0.37983677781E+02 -0.10669707306E+02  0.39635699339E+02  0.00000000000E+00 0. -1.
         21    1    1    2  505  501 -0.33053540569E+02 -0.86721579925E+02  0.15842933920E+03  0.18361106853E+03  0.00000000000E+00 0. -1.
          2    1    1    2  501    0 -0.63428746785E+02  0.21284855329E+02  0.10710914379E+04  0.10731789782E+04  0.00000000000E+00 0.  1.
<scales pt_clust_3="14000.00000" pt_clust_4="38.17258" pt_clust_5="94.24400" pt_clust_6="67.09459"></scales>
<clustering>
<clus scale="   38.173">  2  4  1 -1</clus>
<clus scale="   67.095">  1  6  2 -1</clus>
<clus scale="   94.244">  1  5  2 -1</clus>
<clus scale="   38.173">  2  3  1 -1</clus>
</clustering>
</event>
<event>
 6    0  0.6525019E+002  0.1433006E+03  0.7546771E-02  0.1208955E+00
          2   -1    0    0  502    0 -0.00000000000E+00  0.00000000000E+00  0.41398286460E+04  0.41398286460E+04  0.00000000000E+00 0. -1.
         21   -1    0    0  503  502  0.00000000000E+00 -0.00000000000E+00 -0.65479424438E+02  0.65479424438E+02  0.00000000000E+00 0.  1.
         21    1    1    2  503  505 -0.11292943977E+02 -0.11920287991E+03  0.86785301723E+00  0.11973976086E+03  0.00000000000E+00 0.  1.
         21    1    1    2  504  501  0.52017385361E+02  0.80769648288E+01  0.64618799312E+03  0.64832859585E+03  0.00000000000E+00 0.  1.
         21    1    1    2  505  504 -0.12909879396E+03  0.65717121221E+02  0.13907868489E+04  0.13983108730E+04  0.00000000000E+00 0. -1.
          2    1    1    2  501    0  0.88374352578E+02  0.45408793861E+02  0.20365065265E+04  0.20389288407E+04  0.00000000000E+00 0. -1.
<scales pt_clust_3="119.73662" pt_clust_4="31.99426" pt_clust_5="136.39279" pt_clust_6="31.99426"></scales>
<clustering>
<clus scale="   31.994">  4  6 -1 -1</clus>
<clus scale="  119.737">  2  3  1 -1</clus>
<clus scale="  136.393">  2  5  1 -1</clus>
<clus scale="  119.737">  2  3  1 -1</clus>
</clustering>
</event>
<event>
 6    0  0.6525019E+002  0.1271821E+03  0.7546771E-02  0.1231698E+00
         21   -1    0    0  503  502  0.00000000000E+00  0.00000000000E+00  0.24490826071E+03  0.24490826071E+03  0.00000000000E+00 0. -1.
          1   -1    0    0  504    0 -0.00000000000E+00 -0.00000000000E+00 -0.17052471132E+04  0.17052471132E+04  0.00000000000E+00 0.  1.
         21    1    1    2  503  501  0.31972610462E+02 -0.20599698956E+02  0.19171538998E+03  0.19545174896E+03  0.00000000000E+00 0. -1.
         21    1    1    2  504  505 -0.22301686061E+02  0.83090136569E+02 -0.36390165999E+03  0.37393282036E+03  0.00000000000E+00 0. -1.
         21    1    1    2  505  502  0.37943919630E+02 -0.10834627039E+03 -0.27056958487E+02  0.11794377621E+03  0.00000000000E+00 0. -1.
          1    1    1    2  501    0 -0.47614844031E+02  0.45855832776E+02 -0.12610956240E+04  0.12628270284E+04  0.00000000000E+00 0.  1.
<scales pt_clust_3="38.03413" pt_clust_4="127.18210" pt_clust_5="14000.00000" pt_clust_6="65.47610"></scales>
<clustering>
<clus scale="   38.034">  1  3  2 -1</clus>
<clus scale="   65.476">  2  6  1 -1</clus>
<clus scale="  127.182">  2  4  1 -1</clus>
<clus scale="   38.034">  1  3  2 -1</clus>
</clustering>
</event>
<event>
 6    0  0.6525019E+002  0.3451919E+03  0.7546771E-02  0.1064606E+00
         21   -1    0    0  503  502  0.00000000000E+00  0.00000000000E+00  0.12527559261E+04  0.12527559261E+04  0.00000000000E+00 0. -1.
          2   -1    0    0  505    0 -0.00000000000E+00 -0.00000000000E+00 -0.35388819323E+04  0.35388819323E+04  0.00000000000E+00 0.  1.
         21    1    1    2  503  504 -0.33373966480E+03 -0.87373894257E+02  0.11964664262E+04  0.12452101310E+04  0.00000000000E+00 0. -1.
         21    1    1    2  504  501  0.32268517396E+03  0.16813741912E+03 -0.11338337664E+04  0.11907875222E+04  0.00000000000E+00 0.  1.
         21    1    1    2  505  502 -0.29313208016E+02 -0.27091633879E+02 -0.13291438906E+03  0.13877844072E+03  0.00000000000E+00 0.  1.
          2    1    1    2  501    0  0.40367698860E+02 -0.53671890987E+02 -0.22158442769E+04  0.22168617644E+04  0.00000000000E+00 0.  1.
<scales pt_clust_3="345.19194" pt_clust_4="14000.00000" pt_clust_5="39.91517" pt_clust_6="74.42246"></scales>
<clustering>
<clus scale="   39.915">  2  5  1 -1</clus>
<clus scale="   74.422">  2  6  1 -1</clus>
<clus scale="  345.192">  1  3  2 -1</clus>
<clus scale="  345.192">  1  3  2 -1</clus>
</clustering>
</event>
<event>
 6    0  0.6525019E+002  0.1065501E+03  0.7546771E-02  0.1267095E+00
          1   -1    0    0  503    0 -0.00000000000E+00  0.00000000000E+00  0.13072870827E+04  0.13072870827E+04  0.00000000000E+00 0. -1.
         21   -1    0    0  504  502  0.00000000000E+00 -0.00000000000E+00 -0.93747903815E+03  0.93747903815E+03  0.00000000000E+00 0. -1.
         21    1    1    2  503  505  0.44998401295E+02  0.30273292735E+02 -0.24842258680E+02  0.59652880806E+02  0.00000000000E+00 0. -1.
         21    1    1    2  504  501  0.35180592748E+01  0.94585551018E+02 -0.14935621711E+03  0.17682217845E+03  0.00000000000E+00 0.  1.
         21    1    1    2  505  502  0.10290946890E+02 -0.35588045741E+02 -0.72943269262E+03  0.73037282647E+03  0.00000000000E+00 0. -1.
          1    1    1    2  501    0 -0.58807407460E+02 -0.89270798012E+02  0.12734392130E+04  0.12779182351E+04  0.00000000000E+00 0. -1.
<scales pt_clust_3="52.42259" pt_clust_4="106.55008" pt_clust_5="37.04609" pt_clust_6="14000.00000"></scales>
<clustering>
<clus scale="   37.046">  2  5  1 -1</clus>
<clus scale="   52.423">  2  3  1 -1</clus>
<clus scale="  106.550">  2  4  1 -1</clus>
<clus scale="   37.046">  2  3  1 -1</clus>
</clustering>
</event>
<event>
 6    0  0.6525019E+002  0.3574197E+03  0.7546771E-02  0.1059610E+00
          4   -1    0    0  504    0 -0.00000000000E+00  0.00000000000E+00  0.60386600975E+03  0.60386600975E+03  0.00000000000E+00 0. -1.
         21   -1    0    0  505  502  0.00000000000E+00 -0.00000000000E+00 -0.92666590409E+03  0.92666590409E+03  0.00000000000E+00 0.  1.
         21    1    1    2  503  501  0.17838400276E+02 -0.22263196085E+03  0.24275567224E+03  0.32986893597E+03  0.00000000000E+00 0. -1.
         21    1    1    2  504  502  0.16105695128E+02 -0.43337521399E+02 -0.16676145376E+02  0.49149038659E+02  0.00000000000E+00 0.  1.
         21    1    1    2  505  503  0.35495684023E+01  0.38139103119E+03 -0.79240822877E+03  0.87942169585E+03  0.00000000000E+00 0.  1.
          4    1    1    2  501    0 -0.37493663806E+02 -0.11542154894E+03  0.24352880757E+03  0.27209224337E+03  0.00000000000E+00 0. -1.
<scales pt_clust_3="77.88331" pt_clust_4="46.23347" pt_clust_5="341.36587" pt_clust_6="77.88331"></scales>
<clustering>
<clus scale="   46.233">  2  4  1 -1</clus>
<clus scale="   77.883">  3  6 -1 -1</clus>
<clus scale="  341.366">  2  5  1 -1</clus>
<clus scale="   46.233">  2  3  1 -1</clus>
</clustering>
</event>
<event>
 6    0  0.6525019E+002  0.9466447E+02  0.7546771E-02  0.1291934E+00
         -2   -1    0    0    0  501 -0.00000000000E+00  0.00000000000E+00  0.12464774454E+04  0.12464774454E+04  0.00000000000E+00 0.  1.
         21   -1    0    0  504  502  0.00000000000E+00 -0.00000000000E+00 -0.57049356505E+02  0.57049356505E+02  0.00000000000E+00 0.  1.
         21    1    1    2  503  502 -0.88299680835E+02 -0.22431429447E+02  0.19416268365E+02  0.93150384539E+02  0.00000000000E+00 0.  1.
         21    1    1    2  504  501  0.14435613134E+02  0.32490516655E+02  0.36762738648E+03  0.36934254546E+03  0.00000000000E+00 0. -1.
         21    1    1    2  505  503  0.12340344855E+03 -0.59274522100E+02  0.25692362901E+03  0.29112133420E+03  0.00000000000E+00 0.  1.
         -2    1    1    2    0  505 -0.49539380844E+02  0.49215434893E+02  0.54546080506E+03  0.54991253772E+03  0.00000000000E+00 0.  1.
<scales pt_clust_3="94.66447" pt_clust_4="35.55307" pt_clust_5="14000.00000" pt_clust_6="80.44198"></scales>
<clustering>
<clus scale="   35.553">  1  4  2 -1</clus>
<clus scale="   80.442">  1  6  2 -1</clus>
<clus scale="   94.664">  2  3  1 -1</clus>
<clus scale="   94.664">  2  3  1 -1</clus>
</clustering>
</event>
<event>
 6    0  0.6525019E+002  0.1120477E+03  0.7546771E-02  0.1256824E+00
          1   -1    0    0  502    0 -0.00000000000E+00  0.00000000000E+00  0.75939321398E+02  0.75939321398E+02  0.00000000000E+00 0. -1.
         21   -1    0    0  505  502  0.00000000000E+00 -0.00000000000E+00 -0.43873969775E+03  0.43873969775E+03  0.00000000000E+00 0. -1.
         21    1    1    2  503  504 -0.86600671086E+02  0.30032214512E+02 -0.21124221043E+03  0.23027132173E+03  0.00000000000E+00 0. -1.
         21    1    1    2  504  501  0.11723316938E+02 -0.38103380970E+02 -0.14337127160E+02  0.42365752874E+02  0.00000000000E+00 0. -1.
         21    1    1    2  505  503  0.19031131212E+02  0.54018439880E+02 -0.15695619685E+03  0.16707909364E+03  0.00000000000E+00 0. -1.
          1    1    1    2  501    0  0.55846222937E+02 -0.45947273422E+02  0.19735158090E+02  0.74962850907E+02  0.00000000000E+00 0. -1.
<scales pt_clust_3="102.21534" pt_clust_4="34.07842" pt_clust_5="57.27282" pt_clust_6="34.07842"></scales>
<clustering>
<clus scale="   34.078">  4  6 -1 -1</clus>
<clus scale="   57.273">  2  5  1 -1</clus>
<clus scale="  102.215">  2  3  1 -1</clus>
<clus scale="   57.273">  2  3  1 -1</clus>
</clustering>
</event>
<event>
 6    0  0.6525019E+002  0.8688796E+02  0.7546771E-02  0.1310568E+00
         21   -1    0    0  504  502  0.00000000000E+00  0.00000000000E+00  0.53754054899E+02  0.53754054899E+02  0.00000000000E+00 0. -1.
         -1   -1    0    0    0  501 -0.00000000000E+00 -0.00000000000E+00 -0.51262677226E+03  0.51262677226E+03  0.00000000000E+00 0.  1.
         21    1    1    2  503  501 -0.20735436497E+02  0.59751195052E+02 -0.10720009347E+03  0.12446695817E+03  0.00000000000E+00 0. -1.
         21    1    1    2  504  505  0.32419127240E+02  0.16270588841E+02 -0.87024891442E+00  0.36283456360E+02  0.00000000000E+00 0. -1.
         21    1    1    2  505  503  0.73450590273E+02 -0.31723146665E+02 -0.61760831291E+02  0.10107298119E+03  0.00000000000E+00 0. -1.
         -1    1    1    2    0  502 -0.85134281016E+02 -0.44298637227E+02 -0.28904154369E+03  0.30455743143E+03  0.00000000000E+00 0.  1.
<scales pt_clust_3="64.95628" pt_clust_4="36.27302" pt_clust_5="14000.00000" pt_clust_6="86.88796"></scales>
<clustering>
<clus scale="   36.273">  1  4  2 -1</clus>
<clus scale="   64.956">  2  3  1 -1</clus>
<clus scale="   86.888">  2  6  1 -1</clus>
<clus scale="   36.273">  1  3  2 -1</clus>
</clustering>
</event>
<event>
 6    0  0.6525019E+002  0.1832661E+03  0.7546771E-02  0.1164679E+00
          2   -1    0    0  503    0 -0.00000000000E+00  0.00000000000E+00  0.10998604419E+04  0.10998604419E+04  0.00000000000E+00 0.  1.
         21   -1    0    0  505  502  0.00000000000E+00 -0.00000000000E+00 -0.13054480349E+04  0.13054480349E+04  0.00000000000E+00 0. -1.
         21    1    1    2  503  502  0.13218199660E+03 -0.14117724707E+03 -0.98811445575E+03  0.10068630855E+04  0.00000000000E+00 0. -1.
         21    1    1    2  504  501  0.10123152253E+03  0.20862412931E+03 -0.53496878552E+02  0.23797849587E+03  0.00000000000E+00 0.  1.
         21    1    1    2  505  504 -0.63492415081E+02  0.22631483323E+01 -0.14715301591E+03  0.16028230940E+03  0.00000000000E+00 0. -1.
          2    1    1    2  501    0 -0.16992110405E+03 -0.69710030567E+02  0.98317675727E+03  0.10001845860E+04  0.00000000000E+00 0.  1.
<scales pt_clust_3="159.18580" pt_clust_4="14000.00000" pt_clust_5="63.53274" pt_clust_6="183.26606"></scales>
<clustering>
<clus scale="   63.533">  2  5  1 -1</clus>
<clus scale="  159.186">  2  3  1 -1</clus>
<clus scale="  183.266">  1  6  2 -1</clus>
<clus scale="   63.533">  2  3  1 -1</clus>
</clustering>
</event>
<event>
 6    0  0.6525019E+002  0.7883078E+02  0.7546771E-02  0.1332403E+00
         -1   -1    0    0    0  501 -0.00000000000E+00  0.00000000000E+00  0.95408145200E+03  0.95408145200E+03  0.00000000000E+00 0. -1.
         21   -1    0    0  505  502  0.00000000000E+00 -0.00000000000E+00 -0.45810296757E+02  0.45810296757E+02  0.00000000000E+00 0. -1.
         21    1    1    2  503  501  0.46921606313E+02 -0.42842165664E+02  0.11043562267E+03  0.12740924241E+03  0.00000000000E+00 0. -1.
         21    1    1    2  504  502 -0.29349221637E+01  0.11572840179E+03  0.19052420119E+03  0.22293754280E+03  0.00000000000E+00 0. -1.
         21    1    1    2  505  503  0.10928280051E+02 -0.30094478560E+02 -0.57618492032E+01  0.32531582361E+02  0.00000000000E+00 0. -1.
         -1    1    1    2    0  504 -0.54914964201E+02 -0.42791757569E+02  0.61307318059E+03  0.61701338119E+03  0.00000000000E+00 0. -1.
<scales pt_clust_3="14000.00000" pt_clust_4="78.83078" pt_clust_5="32.01726" pt_clust_6="70.38469"></scales>
<clustering>
<clus scale="   32.017">  2  5  1 -1</clus>
<clus scale="   70.385">  1  6  2 -1</clus>
<clus scale="   78.831">  2  4  1 -1</clus>
<clus scale="   32.017">  2  3  1 -1</clus>
</clustering>
</event>
<event>
 6    0  0.6525019E+002  0.1307212E+03  0.7546771E-02  0.1226389E+00
         21   -1    0    0  504  502  0.00000000000E+00  0.00000000000E+00  0.30164653803E+03  0.30164653803E+03  0.00000000000E+00 0.  1.
          1   -1    0    0  505    0 -0.00000000000E+00 -0.00000000000E+00 -0.84058821393E+03  0.84058821393E+03  0.00000000000E+00 0.  1.
         21    1    1    2  503  502  0.20802577068E+02 -0.44238855795E+02  0.18073590083E+03  0.18723057823E+03  0.00000000000E+00 0.  1.
         21    1    1    2  504  501  0.96023677184E+01 -0.87319123463E+02  0.80649267027E+02  0.11925241742E+03  0.00000000000E+00 0.  1.
         21    1    1    2  505  503 -0.15579805324E+02  0.15789105665E+03 -0.34850473170E+03  0.38292017983E+03  0.00000000000E+00 0.  1.
          1    1    1    2  501    0 -0.14825139462E+02 -0.26333077393E+02 -0.45182211205E+03  0.45283157648E+03  0.00000000000E+00 0.  1.
<scales pt_clust_3="49.03280" pt_clust_4="14000.00000" pt_clust_5="130.72123" pt_clust_6="30.21946"></scales>
<clustering>
<clus scale="   30.219">  2  6  1 -1</clus>
<clus scale="   49.033">  1  3  2 -1</clus>
<clus scale="  130.721">  2  5  1 -1</clus>
<clus scale="   49.033">  1  3  2 -1</clus>
</clustering>
</event>
<event>
 6    0  0.6525019E+002  0.8480183E+02  0.7546771E-02  0.1315952E+00
         21   -1    0    0  505  502  0.00000000000E+00  0.00000000000E+00  0.22463659023E+03  0.22463659023E+03  0.00000000000E+00 0.  1.
          2   -1    0    0  503    0 -0.00000000000E+00 -0.00000000000E+00 -0.38210002642E+03  0.38210002642E+03  0.00000000000E+00 0.  1.
         21    1    1    2  503  502  0.44880687885E+02 -0.15308796774E+02  0.42857828868E+01  0.47613058489E+02  0.00000000000E+00 0. -1.
         21    1    1    2  504  501  0.40002637443E+02  0.10493068921E+03 -0.17152640969E+02  0.11359961986E+03  0.00000000000E+00 0.  1.
         21    1    1    2  505  504 -0.10588725350E+03 -0.20961713395E+02  0.12579676126E+03  0.16575985348E+03  0.00000000000E+00 0.  1.
          2    1    1    2  501    0  0.21003928173E+02 -0.68660179043E+02 -0.27039333936E+03  0.27976408482E+03  0.00000000000E+00 0.  1.
<scales pt_clust_3="47.41978" pt_clust_4="84.80183" pt_clust_5="14000.00000" pt_clust_6="72.46150"></scales>
<clustering>
<clus scale="   47.420">  1  3  2 -1</clus>
<clus scale="   72.461">  2  6  1 -1</clus>
<clus scale="   84.802">  2  4  1 -1</clus>
<clus scale="   47.420">  1  3  2 -1</clus>
</clustering>
</event>
<event>
 6    0  0.6525019E+002  0.8445618E+02  0.7546771E-02  0.1316861E+00
         -4   -1    0    0    0  501 -0.00000000000E+00  0.00000000000E+00  0.15077750308E+03  0.15077750308E+03  0.00000000000E+00 0. -1.
         21   -1    0    0  504  502  0.00000000000E+00 -0.00000000000E+00 -0.75127359062E+03  0.75127359062E+03  0.00000000000E+00 0.  1.
         21    1    1    2  503  502  0.36315060111E+02  0.92782849152E+02 -0.48746060558E+03  0.49753922728E+03  0.00000000000E+00 0.  1.
         21    1    1    2  504  501 -0.49187684476E+02 -0.16578105803E+02 -0.13379267002E+03  0.14350867725E+03  0.00000000000E+00 0.  1.
         21    1    1    2  505  503 -0.39773748140E+02 -0.96208700372E+02 -0.89438999594E+02  0.13724940698E+03  0.00000000000E+00 0. -1.
         -4    1    1    2    0  505  0.52646372505E+02  0.20003957023E+02  0.11019618764E+03  0.12375378219E+03  0.00000000000E+00 0. -1.
<scales pt_clust_3="84.45618" pt_clust_4="51.90628" pt_clust_5="14000.00000" pt_clust_6="55.74479"></scales>
<clustering>
<clus scale="   51.906">  2  4  1 -1</clus>
<clus scale="   55.745">  1  6  2 -1</clus>
<clus scale="   84.456">  2  3  1 -1</clus>
<clus scale="   51.906">  2  3  1 -1</clus>
</clustering>
</event>
<event>
 6    0  0.6525019E+002  0.7867719E+02  0.7546771E-02  0.1332848E+00
          1   -1    0    0  503    0 -0.00000000000E+00  0.00000000000E+00  0.99752577775E+03  0.99752577775E+03  0.00000000000E+00 0. -1.
         21   -1    0    0  505  502  0.00000000000E+00 -0.00000000000E+00 -0.21785685172E+03  0.21785685172E+03  0.00000000000E+00 0.  1.
         21    1    1    2  503  504  0.64449264419E+02 -0.88752675453E+02  0.17359515215E+03  0.20534366787E+03  0.00000000000E+00 0.  1.
         21    1    1    2  504  502  0.25966229643E+02  0.76798113010E+02 -0.16103412053E+03  0.18028916556E+03  0.00000000000E+00 0.  1.
         21    1    1    2  505  501 -0.45320377462E+02 -0.48055113919E+02  0.75422152024E+01  0.66483949922E+02  0.00000000000E+00 0. -1.
          1    1    1    2  501    0 -0.45095116600E+02  0.60009676361E+02  0.75956567921E+03  0.76326584611E+03  0.00000000000E+00 0. -1.
<scales pt_clust_3="78.67719" pt_clust_4="36.52705" pt_clust_5="66.05475" pt_clust_6="14000.00000"></scales>
<clustering>
<clus scale="   66.055">  2  5  1 -1</clus>
<clus scale="   36.527">  2  4  1 -1</clus>
<clus scale="   78.677">  2  3  1 -1</clus>
<clus scale="   66.055">  2  3  1 -1</clus>
</clustering>
</event>
<event>
 6    0  0.6525019E+002  0.1719404E+03  0.7546771E-02  0.1175839E+00
          2   -1    0    0  505    0 -0.00000000000E+00  0.00000000000E+00  0.19321150125E+04  0.19321150125E+04  0.00000000000E+00 0.  1.
         21   -1    0    0  501  502  0.00000000000E+00 -0.00000000000E+00 -0.14309540161E+03  0.14309540161E+03  0.00000000000E+00 0.  1.
         21    1    1    2  503  504 -0.13793969376E+03  0.65797084423E+02  0.20489119949E+03  0.25561106991E+03  0.00000000000E+00 0. -1.
         21    1    1    2  504  502 -0.90807518429E+01  0.54644096165E+02 -0.10373307303E+03  0.11759671654E+03  0.00000000000E+00 0.  1.
         21    1    1    2  505  503  0.42484749807E+02 -0.30784091337E+02  0.17013651520E+03  0.17804226478E+03  0.00000000000E+00 0. -1.
          2    1    1    2  501    0  0.10453569580E+03 -0.89657089251E+02  0.15177249693E+04  0.15239603629E+04  0.00000000000E+00 0.  1.
<scales pt_clust_3="14000.00000" pt_clust_4="55.24647" pt_clust_5="52.46536" pt_clust_6="171.94038"></scales>
<clustering>
<clus scale="   52.465">  1  5  2 -1</clus>
<clus scale="   55.246">  2  4  1 -1</clus>
<clus scale="  171.940">  1  6  2 -1</clus>
<clus scale="   55.246">  2  3  1 -1</clus>
</clustering>
</event>
<event>
 6    0  0.6525019E+002  0.1181871E+03  0.7546771E-02  0.1246118E+00
          3   -1    0    0  504    0 -0.00000000000E+00  0.00000000000E+00  0.11446771537E+03  0.11446771537E+03  0.00000000000E+00 0. -1.
         21   -1    0    0  505  502  0.00000000000E+00 -0.00000000000E+00 -0.11855264971E+04  0.11855264971E+04  0.00000000000E+00 0. -1.
         21    1    1    2  503  501  0.35692068420E+02  0.18194297802E+02 -0.48619535891E+02  0.62998535625E+02  0.00000000000E+00 0. -1.
         21    1    1    2  504  502 -0.15541918178E+03 -0.40504267915E+02 -0.68938889248E+03  0.70785080551E+03  0.00000000000E+00 0. -1.
         21    1    1    2  505  503  0.95525349445E+02 -0.28806570246E+01 -0.42246965970E+03  0.43314432230E+03  0.00000000000E+00 0. -1.
          3    1    1    2  501    0  0.24201763915E+02  0.25190627138E+02  0.89419306336E+02  0.96000549050E+02  0.00000000000E+00 0. -1.
<scales pt_clust_3="51.10726" pt_clust_4="118.18714" pt_clust_5="14000.00000" pt_clust_6="34.93269"></scales>
<clustering>
<clus scale="   34.933">  1  6  2 -1</clus>
<clus scale="   51.107">  1  3  2 -1</clus>
<clus scale="  118.187">  1  4  2 -1</clus>
<clus scale="  118.187">  2  3  1 -1</clus>
</clustering>
</event>
<event>
 6    0  0.6525019E+002  0.1009986E+03  0.7546771E-02  0.1278210E+00
          1   -1    0    0  505    0 -0.00000000000E+00  0.00000000000E+00  0.24132997734E+03  0.24132997734E+03  0.00000000000E+00 0. -1.
         21   -1    0    0  501  502  0.00000000000E+00 -0.00000000000E+00 -0.25622097159E+03  0.25622097159E+03  0.00000000000E+00 0. -1.
         21    1    1    2  503  504 -0.10096892165E+03  0.47690524243E+02 -0.15837946901E+02  0.11278275490E+03  0.00000000000E+00 0. -1.
         21    1    1    2  504  502  0.47679743279E+02 -0.91375789183E+02 -0.15949102221E+03  0.18989544211E+03  0.00000000000E+00 0. -1.
         21    1    1    2  505  503 -0.16098172001E+01  0.44013117902E+02  0.11652598790E+03  0.12457147312E+03  0.00000000000E+00 0. -1.
          1    1    1    2  501    0  0.54898995567E+02 -0.32785296248E+00  0.43911986962E+02  0.70301278799E+02  0.00000000000E+00 0. -1.
<scales pt_clust_3="100.99857" pt_clust_4="14000.00000" pt_clust_5="44.04255" pt_clust_6="57.88281"></scales>
<clustering>
<clus scale="   44.043">  1  5  2 -1</clus>
<clus scale="   57.883">  1  6  2 -1</clus>
<clus scale="  100.999">  1  3  2 -1</clus>
<clus scale="  100.999">  2  3  1 -1</clus>
</clustering>
</event>
<event>
 6    0  0.6525019E+002  0.1152609E+03  0.7546771E-02  0.1251126E+00
          2   -1    0    0  503    0 -0.00000000000E+00  0.00000000000E+00  0.12452909171E+04  0.12452909171E+04  0.00000000000E+00 0.  1.
         21   -1    0    0  504  502  0.00000000000E+00 -0.00000000000E+00 -0.15749448176E+03  0.15749448176E+03  0.00000000000E+00 0. -1.
         21    1    1    2  503  502  0.42166410907E+02 -0.73271179203E+02 -0.93401611755E+01  0.85052398681E+02  0.00000000000E+00 0.  1.
         21    1    1    2  504  505  0.60339842292E+02 -0.31601599736E+02 -0.77409865275E+02  0.10311083801E+03  0.00000000000E+00 0. -1.
         21    1    1    2  505  501 -0.64153875431E+02  0.98531682308E+02  0.15606090329E+03  0.19539502984E+03  0.00000000000E+00 0.  1.
          2    1    1    2  501    0 -0.38352377768E+02  0.63410966314E+01  0.10184855586E+04  0.10192271324E+04  0.00000000000E+00 0.  1.
<scales pt_clust_3="14000.00000" pt_clust_4="66.02283" pt_clust_5="115.26094" pt_clust_6="38.87305"></scales>
<clustering>
<clus scale="   38.873">  1  6  2 -1</clus>
<clus scale="   66.023">  2  4  1 -1</clus>
<clus scale="  115.261">  1  5  2 -1</clus>
<clus scale="   66.023">  2  3  1 -1</clus>
</clustering>
</event>
<event>
 6    0  0.6525019E+002  0.1944953E+03  0.7546771E-02  0.1154468E+00
          2   -1    0    0  504    0 -0.00000000000E+00  0.00000000000E+00  0.12828499365E+04  0.12828499365E+04  0.00000000000E+00 0. -1.
         21   -1    0    0  503  502  0.00000000000E+00 -0.00000000000E+00 -0.25715076883E+03  0.25715076883E+03  0.00000000000E+00 0.  1.
         21    1    1    2  503  501 -0.34747897936E+02 -0.10339520396E+03 -0.17587500830E+03  0.20695410882E+03  0.00000000000E+00 0.  1.
         21    1    1    2  504  505  0.16197915541E+03  0.15455560918E+03  0.40836351448E+03  0.46570961240E+03  0.00000000000E+00 0.  1.
         21    1    1    2  505  502  0.28459141233E+02  0.48139070673E+02  0.31806636233E+01  0.56012583105E+02  0.00000000000E+00 0. -1.
          2    1    1    2  501    0 -0.15569039871E+03 -0.99299475894E+02  0.79002999785E+03  0.81132440100E+03  0.00000000000E+00 0. -1.
<scales pt_clust_3="64.42978" pt_clust_4="194.49526" pt_clust_5="55.92220" pt_clust_6="14000.00000"></scales>
<clustering>
<clus scale="   55.922">  2  5  1 -1</clus>
<clus scale="   64.430">  2  3  1 -1</clus>
<clus scale="  194.495">  2  4  1 -1</clus>
<clus scale="   55.922">  2  3  1 -1</clus>
</clustering>
</event>
<event>
 6    0  0.6525019E+002  0.1113051E+03  0.7546771E-02  0.1258172E+00
          2   -1    0    0  504    0 -0.00000000000E+00  0.00000000000E+00  0.46565736217E+03  0.46565736217E+03  0.00000000000E+00 0. -1.
         21   -1    0    0  503  502  0.00000000000E+00 -0.00000000000E+00 -0.36780857180E+03  0.36780857180E+03  0.00000000000E+00 0. -1.
         21    1    1    2  503  505  0.19007403496E+02 -0.52644590709E+02 -0.27673749901E+03  0.28234088913E+03  0.00000000000E+00 0. -1.
         21    1    1    2  504  502 -0.49904732887E+02  0.15874621214E+02  0.60759987240E+02  0.80213851750E+02  0.00000000000E+00 0. -1.
         21    1    1    2  505  501  0.15799339905E+02 -0.67485840273E+02 -0.54275205352E+02  0.88032696737E+02  0.00000000000E+00 0. -1.
          2    1    1    2  501    0  0.15097989486E+02  0.10425580977E+03  0.36810150748E+03  0.38287849635E+03  0.00000000000E+00 0. -1.
<scales pt_clust_3="55.74560" pt_clust_4="52.36875" pt_clust_5="14000.00000" pt_clust_6="111.30508"></scales>
<clustering>
<clus scale="   52.369">  1  4  2 -1</clus>
<clus scale="   55.746">  2  3  1 -1</clus>
<clus scale="  111.305">  1  6  2 -1</clus>
<clus scale="   55.746">  2  3  1 -1</clus>
</clustering>
</event>
<event>
 6    0  0.6525019E+002  0.9196674E+02  0.7546771E-02  0.1298158E+00
         21   -1    0    0  503  502  0.00000000000E+00  0.00000000000E+00  0.20436344443E+03  0.20436344443E+03  0.00000000000E+00 0.  1.
          2   -1    0    0  504    0 -0.00000000000E+00 -0.00000000000E+00 -0.33894585935E+04  0.33894585935E+04  0.00000000000E+00 0.  1.
         21    1    1    2  503  505 -0.74197405736E+02  0.28798086985E+02 -0.13604340394E+03  0.15761469661E+03  0.00000000000E+00 0. -1.
         21    1    1    2  504  502 -0.39070877404E+02 -0.16566445672E+02  0.18790908385E+03  0.19264164757E+03  0.00000000000E+00 0.  1.
         21    1    1    2  505  501  0.78454717586E+02  0.33635665054E+02 -0.60680262632E+03  0.61277722541E+03  0.00000000000E+00 0. -1.
          2    1    1    2  501    0  0.34813565554E+02 -0.45867306367E+02 -0.26301582027E+04  0.26307884684E+04  0.00000000000E+00 0.  1.
<scales pt_clust_3="91.96674" pt_clust_4="42.43796" pt_clust_5="14000.00000" pt_clust_6="57.35711"></scales>
<clustering>
<clus scale="   42.438">  1  4  2 -1</clus>
<clus scale="   57.357">  2  6  1 -1</clus>
<clus scale="   91.967">  1  3  2 -1</clus>
<clus scale="   42.438">  1  3  2 -1</clus>
</clustering>
</event>
<event>
 6    0  0.6525019E+002  0.9080445E+02  0.7546771E-02  0.1300915E+00
         21   -1    0    0  501  502  0.00000000000E+00  0.00000000000E+00  0.30506429075E+02  0.30506429075E+02  0.00000000000E+00 0.  1.
          2   -1    0    0  503    0 -0.00000000000E+00 -0.00000000000E+00 -0.17352689590E+04  0.17352689590E+04  0.00000000000E+00 0. -1.
         21    1    1    2  503  504  0.67102493415E+02  0.78357300940E+02 -0.12073900725E+04  0.12117893375E+04  0.00000000000E+00 0. -1.
         21    1    1    2  504  505 -0.22490560579E+01 -0.67962556641E+02 -0.23974068088E+03  0.24919783592E+03  0.00000000000E+00 0. -1.
         21    1    1    2  505  502 -0.48569059071E+02 -0.37398070396E+02 -0.19135502730E+02  0.64216326843E+02  0.00000000000E+00 0.  1.
          2    1    1    2  501    0 -0.16284378286E+02  0.27003326097E+02 -0.23849627375E+03  0.24057188778E+03  0.00000000000E+00 0. -1.
<scales pt_clust_3="90.80445" pt_clust_4="14000.00000" pt_clust_5="61.20572" pt_clust_6="31.53348"></scales>
<clustering>
<clus scale="   31.533">  2  6  1 -1</clus>
<clus scale="   61.206">  1  5  2 -1</clus>
<clus scale="   90.804">  2  3  1 -1</clus>
<clus scale="   61.206">  1  3  2 -1</clus>
</clustering>
</event>
<event>
 6    0  0.6525019E+002  0.1645426E+03  0.7546771E-02  0.1183662E+00
          2   -1    0    0  504    0 -0.00000000000E+00  0.00000000000E+00  0.37000938059E+04  0.37000938059E+04  0.00000000000E+00 0.  1.
         21   -1    0    0  501  502  0.00000000000E+00 -0.00000000000E+00 -0.78769609768E+03  0.78769609768E+03  0.00000000000E+00 0. -1.
         21    1    1    2  503  502  0.59706963427E+02 -0.61085330559E+02 -0.73472611054E+03  0.73967479111E+03  0.00000000000E+00 0. -1.
         21    1    1    2  504  505  0.14135272391E+03  0.96564176391E+02  0.23350480016E+03  0.28953363262E+03  0.00000000000E+00 0. -1.
         21    1    1    2  505  503 -0.13620682387E+03 -0.79792396309E+02  0.26128261234E+03  0.30526665211E+03  0.00000000000E+00 0. -1.
          2    1    1    2  501    0 -0.64852863470E+02  0.44313550478E+02  0.31523364062E+04  0.31533148277E+04  0.00000000000E+00 0.  1.
<scales pt_clust_3="85.07041" pt_clust_4="14000.00000" pt_clust_5="164.54259" pt_clust_6="78.54670"></scales>
<clustering>
<clus scale="   78.547">  1  6  2 -1</clus>
<clus scale="   85.070">  2  3  1 -1</clus>
<clus scale="  164.543">  2  5  1 -1</clus>
<clus scale="   85.070">  2  3  1 -1</clus>
</clustering>
</event>
<event>
 6    0  0.6525019E+002  0.7892738E+02  0.7546771E-02  0.1332123E+00
         21   -1    0    0  504  502  0.00000000000E+00  0.00000000000E+00  0.22621084347E+03  0.22621084347E+03  0.00000000000E+00 0. -1.
          2   -1    0    0  503    0 -0.00000000000E+00 -0.00000000000E+00 -0.18228517213E+03  0.18228517213E+03  0.00000000000E+00 0.  1.
         21    1    1    2  503  505  0.69360022620E+02 -0.21413493989E+02 -0.43512374186E+02  0.84632601106E+02  0.00000000000E+00 0.  1.
         21    1    1    2  504  501 -0.18305279489E+02  0.88039216732E+02  0.11962488187E+03  0.14965326358E+03  0.00000000000E+00 0. -1.
         21    1    1    2  505  502  0.40459581135E+02 -0.28915855618E+02  0.29268597367E+02  0.57704031086E+02  0.00000000000E+00 0.  1.
          2    1    1    2  501    0 -0.91514324266E+02 -0.37709867124E+02 -0.61455433710E+02  0.11650611983E+03  0.00000000000E+00 0.  1.
<scales pt_clust_3="78.92738" pt_clust_4="67.71764" pt_clust_5="49.73032" pt_clust_6="14000.00000"></scales>
<clustering>
<clus scale="   49.730">  1  5  2 -1</clus>
<clus scale="   67.718">  1  4  2 -1</clus>
<clus scale="   78.927">  2  3  1 -1</clus>
<clus scale="   49.730">  1  3  2 -1</clus>
</clustering>
</event>
<event>
 6    0  0.6525019E+002  0.9980940E+02  0.7546771E-02  0.1280697E+00
          2   -1    0    0  503    0 -0.00000000000E+00  0.00000000000E+00  0.19899874560E+04  0.19899874560E+04  0.00000000000E+00 0.  1.
         21   -1    0    0  504  502  0.00000000000E+00 -0.00000000000E+00 -0.70793849308E+02  0.70793849308E+02  0.00000000000E+00 0.  1.
         21    1    1    2  503  502 -0.21801182304E+02  0.21413089216E+02 -0.59127973676E+01  0.31125120278E+02  0.00000000000E+00 0.  1.
         21    1    1    2  504  505  0.56997021164E+02  0.72123211351E+02 -0.53404644119E+01  0.92081152237E+02  0.00000000000E+00 0.  1.
         21    1    1    2  505  501 -0.75281925230E+02 -0.90467661399E+02  0.11284018730E+04  0.11345230509E+04  0.00000000000E+00 0.  1.
          2    1    1    2  501    0  0.40086086370E+02 -0.30686391687E+01  0.80204499552E+03  0.80305198194E+03  0.00000000000E+00 0.  1.
<scales pt_clust_3="30.55834" pt_clust_4="14000.00000" pt_clust_5="99.80940" pt_clust_6="39.97871"></scales>
<clustering>
<clus scale="   30.558">  2  3  1 -1</clus>
<clus scale="   39.979">  1  6  2 -1</clus>
<clus scale="   99.809">  1  5  2 -1</clus>
<clus scale="   30.558">  2  3  1 -1</clus>
</clustering>
</event>
<event>
 6    0  0.6525019E+002  0.1368749E+03  0.7546771E-02  0.1217597E+00
          4   -1    0    0  505    0 -0.00000000000E+00  0.00000000000E+00  0.25434897503E+03  0.25434897503E+03  0.00000000000E+00 0. -1.
         21   -1    0    0  501  502  0.00000000000E+00 -0.00000000000E+00 -0.11105032191E+03  0.11105032191E+03  0.00000000000E+00 0.  1.
         21    1    1    2  503  502  0.25734092167E+02 -0.60223267447E+02 -0.59397774942E+01  0.65759914829E+02  0.00000000000E+00 0.  1.
         21    1    1    2  504  503 -0.25546605032E+02 -0.76842942356E+02  0.24930307211E+02  0.84728903192E+02  0.00000000000E+00 0.  1.
         21    1    1    2  505  504  0.34553524978E+02  0.10789938204E+03  0.41813000816E+02  0.12076650931E+03  0.00000000000E+00 0. -1.
          4    1    1    2  501    0 -0.34741012113E+02  0.29166827758E+02  0.82495122588E+02  0.94143969615E+02  0.00000000000E+00 0. -1.
<scales pt_clust_3="51.56871" pt_clust_4="51.56871" pt_clust_5="123.43292" pt_clust_6="45.36124"></scales>
<clustering>
<clus scale="   45.361">  1  6  2 -1</clus>
<clus scale="   51.569">  3  4 -1 -1</clus>
<clus scale="  123.433">  1  5  2 -1</clus>
<clus scale="  136.875">  2  3  1 -1</clus>
</clustering>
</event>
<event>
 6    0  0.6525019E+002  0.1108991E+03  0.7546771E-02  0.1258914E+00
         21   -1    0    0  505  502  0.00000000000E+00  0.00000000000E+00  0.34321979584E+03  0.34321979584E+03  0.00000000000E+00 0.  1.
          2   -1    0    0  504    0 -0.00000000000E+00 -0.00000000000E+00 -0.70938303823E+03  0.70938303823E+03  0.00000000000E+00 0. -1.
         21    1    1    2  503  502  0.47824469718E+02  0.10675096693E+03  0.28718091956E+03  0.31009003435E+03  0.00000000000E+00 0.  1.
         21    1    1    2  504  503  0.46622095951E+02 -0.65738495891E+02 -0.10203195147E+03  0.13002187814E+03  0.00000000000E+00 0.  1.
         21    1    1    2  505  501 -0.11742449292E+03  0.51385959439E+01 -0.89303056434E+02  0.14761420187E+03  0.00000000000E+00 0. -1.
          2    1    1    2  501    0  0.22977927249E+02 -0.46151066980E+02 -0.46200915404E+03  0.46487671972E+03  0.00000000000E+00 0. -1.
<scales pt_clust_3="14000.00000" pt_clust_4="104.69061" pt_clust_5="110.89915" pt_clust_6="51.55488"></scales>
<clustering>
<clus scale="   51.555">  2  6  1 -1</clus>
<clus scale="  104.691">  2  4  1 -1</clus>
<clus scale="  110.899">  2  5  1 -1</clus>
<clus scale="  110.899">  1  3  2 -1</clus>
</clustering>
</event>
<event>
 6    0  0.6525019E+002  0.8712744E+02  0.7546771E-02  0.1309961E+00
         21   -1    0    0  501  502  0.00000000000E+00  0.00000000000E+00  0.14985549883E+03  0.14985549883E+03  0.00000000000E+00 0.  1.
          2   -1    0    0  504    0 -0.00000000000E+00 -0.00000000000E+00 -0.42582903357E+03  0.42582903357E+03  0.00000000000E+00 0. -1.
         21    1    1    2  503  505 -0.34540226056E+02 -0.15744056578E+02  0.44724565641E+02  0.58661651062E+02  0.00000000000E+00 0.  1.
         21    1    1    2  504  503  0.12580178828E+03 -0.13007941929E+02 -0.10152982367E+03  0.16218385118E+03  0.00000000000E+00 0.  1.
         21    1    1    2  505  502 -0.11347655005E+02  0.31318131589E+02  0.57717562514E+02  0.66640165537E+02  0.00000000000E+00 0.  1.
          2    1    1    2  501    0 -0.79913907215E+02 -0.25661330817E+01 -0.27688583922E+03  0.28819886462E+03  0.00000000000E+00 0. -1.
<scales pt_clust_3="41.32034" pt_clust_4="14000.00000" pt_clust_5="33.31058" pt_clust_6="87.12744"></scales>
<clustering>
<clus scale="   33.311">  1  5  2 -1</clus>
<clus scale="   41.320">  1  3  2 -1</clus>
<clus scale="   87.127">  2  6  1 -1</clus>
<clus scale="   33.311">  1  3  2 -1</clus>
</clustering>
</event>
<event>
 6    0  0.6525019E+002  0.1006339E+03  0.7546771E-02  0.1278968E+00
         21   -1    0    0  504  502  0.00000000000E+00  0.00000000000E+00  0.22316728758E+03  0.22316728758E+03  0.00000000000E+00 0.  1.
         -2   -1    0    0    0  501 -0.00000000000E+00 -0.00000000000E+00 -0.48809002621E+03  0.48809002621E+03  0.00000000000E+00 0.  1.
         21    1    1    2  503  502  0.13687249744E+02  0.45758491085E+02  0.14555485863E+03  0.15319072159E+03  0.00000000000E+00 0.  1.
         21    1    1    2  504  505  0.87214770501E+02 -0.56327787999E+02  0.85366540799E+01  0.10417346283E+03  0.00000000000E+00 0.  1.
         21    1    1    2  505  501 -0.10988550976E+03 -0.24370502088E+02 -0.18087257312E+03  0.21303435012E+03  0.00000000000E+00 0. -1.
         -2    1    1    2    0  503  0.89834895114E+01  0.34939799002E+02 -0.23814167822E+03  0.24085877925E+03  0.00000000000E+00 0.  1.
<scales pt_clust_3="48.31536" pt_clust_4="100.63394" pt_clust_5="14000.00000" pt_clust_6="36.07621"></scales>
<clustering>
<clus scale="   36.076">  2  6  1 -1</clus>
<clus scale="   48.315">  1  3  2 -1</clus>
<clus scale="  100.634">  1  4  2 -1</clus>
<clus scale="   48.315">  1  3  2 -1</clus>
</clustering>
</event>
<event>
 6    0  0.6525019E+002  0.7850915E+02  0.7546771E-02  0.1333336E+00
          1   -1    0    0  503    0 -0.00000000000E+00  0.00000000000E+00  0.18740143236E+04  0.18740143236E+04  0.00000000000E+00 0. -1.
         21   -1    0    0  505  502  0.00000000000E+00 -0.00000000000E+00 -0.27887278056E+03  0.27887278056E+03  0.00000000000E+00 0. -1.
         21    1    1    2  503  504  0.39918787545E+02 -0.40292451294E+02  0.43559560578E+03  0.43927272054E+03  0.00000000000E+00 0. -1.
         21    1    1    2  504  502  0.97509784101E+02  0.96704826926E+02 -0.12117111971E+03  0.18314590303E+03  0.00000000000E+00 0. -1.
         21    1    1    2  505  501 -0.70124554862E+02 -0.23536341010E+02 -0.11282723176E+03  0.13491255231E+03  0.00000000000E+00 0. -1.
          1    1    1    2  501    0 -0.67304016785E+02 -0.32876034623E+02  0.13935442888E+04  0.13955559283E+04  0.00000000000E+00 0. -1.
<scales pt_clust_3="56.71853" pt_clust_4="78.50915" pt_clust_5="73.77769" pt_clust_6="14000.00000"></scales>
<clustering>
<clus scale="   56.719">  1  3  2 -1</clus>
<clus scale="   73.778">  2  5  1 -1</clus>
<clus scale="   78.509">  2  4  1 -1</clus>
<clus scale="   73.778">  2  3  1 -1</clus>
</clustering>
</event>
<event>
 6    0  0.6525019E+002  0.6966986E+02  0.7546771E-02  0.1361219E+00
         21   -1    0    0  504  502  0.00000000000E+00  0.00000000000E+00  0.68091654857E+03  0.68091654857E+03  0.00000000000E+00 0. -1.
         -1   -1    0    0    0  501 -0.00000000000E+00 -0.00000000000E+00 -0.53523910564E+03  0.53523910564E+03  0.00000000000E+00 0. -1.
         21    1    1    2  503  505 -0.56869693181E+02 -0.96914091617E+02 -0.12151606984E+03  0.16550727593E+03  0.00000000000E+00 0. -1.
         21    1    1    2  504  501  0.44188854492E+02  0.54037529721E+01 -0.80018099187E+02  0.91568289298E+02  0.00000000000E+00 0. -1.
         21    1    1    2  505  502  0.53626232795E+02  0.43752483399E+02  0.64804980815E+03  0.65173507385E+03  0.00000000000E+00 0. -1.
         -1    1    1    2    0  503 -0.40945394106E+02  0.47757855245E+02 -0.30083819619E+03  0.30734501513E+03  0.00000000000E+00 0. -1.
<scales pt_clust_3="14000.00000" pt_clust_4="44.51803" pt_clust_5="69.66986" pt_clust_6="52.58752"></scales>
<clustering>
<clus scale="   44.518">  2  4  1 -1</clus>
<clus scale="   52.588">  2  6  1 -1</clus>
<clus scale="   69.670">  1  5  2 -1</clus>
<clus scale="   69.670">  1  3  2 -1</clus>
</clustering>
</event>
<event>
 6    0  0.6525019E+002  0.1419441E+03  0.7546771E-02  0.1210737E+00
          2   -1    0    0  505    0 -0.00000000000E+00  0.00000000000E+00  0.12391780533E+04  0.12391780533E+04  0.00000000000E+00 0. -1.
         21   -1    0    0  503  502  0.00000000000E+00 -0.00000000000E+00 -0.10391626042E+04  0.10391626042E+04  0.00000000000E+00 0.  1.
         21    1    1    2  503  504 -0.17258024204E+02  0.44811456687E+02 -0.20085879855E+03  0.20651915893E+03  0.00000000000E+00 0.  1.
         21    1    1    2  504  501  0.74873754866E+02  0.11171230323E+03 -0.35476860781E+02  0.13908387941E+03  0.00000000000E+00 0.  1.
         21    1    1    2  505  502 -0.10097467811E+03 -0.12536643134E+03 -0.73892174009E+03  0.75625258063E+03  0.00000000000E+00 0.  1.
          2    1    1    2  501    0  0.43358947443E+02 -0.31157328575E+02  0.11752728486E+04  0.11764850386E+04  0.00000000000E+00 0. -1.
<scales pt_clust_3="48.01985" pt_clust_4="141.94415" pt_clust_5="14000.00000" pt_clust_6="53.36354"></scales>
<clustering>
<clus scale="   48.020">  2  3  1 -1</clus>
<clus scale="   53.364">  1  6  2 -1</clus>
<clus scale="  141.944">  1  4  2 -1</clus>
<clus scale="   48.020">  2  3  1 -1</clus>
</clustering>
</event>
<event>
 6    0  0.6525019E+002  0.1840295E+03  0.7546771E-02  0.1163959E+00
         21   -1    0    0  505  502  0.00000000000E+00  0.00000000000E+00  0.67802609415E+03  0.67802609415E+03  0.00000000000E+00 0.  1.
          2   -1    0    0  504    0 -0.00000000000E+00 -0.00000000000E+00 -0.31969004824E+04  0.31969004824E+04  0.00000000000E+00 0.  1.
         21    1    1    2  503  501 -0.38530292210E+01  0.19087782468E+03  0.20096336322E+03  0.27719210513E+03  0.00000000000E+00 0.  1.
         21    1    1    2  504  502 -0.12226953908E+02 -0.41070593343E+02  0.12333357285E+03  0.13056593060E+03  0.00000000000E+00 0. -1.
         21    1    1    2  505  503 -0.44761491880E+02  0.23903806353E+02  0.30723136021E+03  0.31139378897E+03  0.00000000000E+00 0.  1.
          2    1    1    2  501    0  0.60841475009E+02 -0.17371103769E+03 -0.31504026845E+04  0.31557747518E+04  0.00000000000E+00 0.  1.
<scales pt_clust_3="14000.00000" pt_clust_4="42.85198" pt_clust_5="51.63136" pt_clust_6="184.02952"></scales>
<clustering>
<clus scale="   42.852">  1  4  2 -1</clus>
<clus scale="   51.631">  1  5  2 -1</clus>
<clus scale="  184.030">  2  6  1 -1</clus>
<clus scale="   42.852">  1  3  2 -1</clus>
</clustering>
</event>
<event>
 6    0  0.6525019E+002  0.1354031E+03  0.7546771E-02  0.1219652E+00
          2   -1    0    0  504    0 -0.00000000000E+00  0.00000000000E+00  0.33236801980E+03  0.33236801980E+03  0.00000000000E+00 0.  1.
         21   -1    0    0  503  502  0.00000000000E+00 -0.00000000000E+00 -0.12368245667E+03  0.12368245667E+03  0.00000000000E+00 0. -1.
         21    1    1    2  503  501  0.15466713601E+02  0.44170292830E+02  0.10986644720E+02  0.48072241060E+02  0.00000000000E+00 0. -1.
         21    1    1    2  504  505  0.92659013070E+02 -0.81434110157E+02  0.29270418579E+02  0.12678313927E+03  0.00000000000E+00 0. -1.
         21    1    1    2  505  502  0.23507153641E+02 -0.19388568048E+02 -0.25727156385E+02  0.39879686796E+02  0.00000000000E+00 0. -1.
          2    1    1    2  501    0 -0.13163288031E+03  0.56652385374E+02  0.19415565621E+03  0.24131540934E+03  0.00000000000E+00 0.  1.
<scales pt_clust_3="45.03089" pt_clust_4="135.40312" pt_clust_5="30.47134" pt_clust_6="14000.00000"></scales>
<clustering>
<clus scale="   30.471">  2  5  1 -1</clus>
<clus scale="   45.031">  2  3  1 -1</clus>
<clus scale="  135.403">  2  4  1 -1</clus>
<clus scale="   30.471">  2  3  1 -1</clus>
</clustering>
</event>
<event>
 6    0  0.6525019E+002  0.1267190E+03  0.7546771E-02  0.1232407E+00
         -2   -1    0    0    0  501 -0.00000000000E+00  0.00000000000E+00  0.13719620294E+03  0.13719620294E+03  0.00000000000E+00 0. -1.
         21   -1    0    0  503  502  0.00000000000E+00 -0.00000000000E+00 -0.14161772183E+04  0.14161772183E+04  0.00000000000E+00 0.  1.
         21    1    1    2  503  501  0.12674433845E+02 -0.27891262634E+02 -0.37518776921E+02  0.48437820205E+02  0.00000000000E+00 0.  1.
         21    1    1    2  504  502 -0.66773978384E+00  0.34523173192E+02 -0.47437441936E+03  0.47562946198E+03  0.00000000000E+00 0.  1.
         21    1    1    2  505  504  0.12679707616E+03 -0.31518542332E+02 -0.85381515175E+03  0.86375414928E+03  0.00000000000E+00 0.  1.
         -2    1    1    2    0  505 -0.13880377022E+03  0.24886631774E+02  0.86727332705E+02  0.16555198974E+03  0.00000000000E+00 0. -1.
<scales pt_clust_3="30.63599" pt_clust_4="34.39568" pt_clust_5="126.71904" pt_clust_6="14000.00000"></scales>
<clustering>
<clus scale="   30.636">  1  3  2 -1</clus>
<clus scale="   34.396">  2  4  1 -1</clus>
<clus scale="  126.719">  2  5  1 -1</clus>
<clus scale="   34.396">  2  3  1 -1</clus>
</clustering>
</event>
<event>
 6    0  0.6525019E+002  0.1460251E+03  0.7546771E-02  0.1205444E+00
          1   -1    0    0  505    0 -0.00000000000E+00  0.00000000000E+00  0.36946294191E+03  0.36946294191E+03  0.00000000000E+00 0.  1.
         21   -1    0    0  501  502  0.00000000000E+00 -0.00000000000E+00 -0.23732714198E+03  0.23732714198E+03  0.00000000000E+00 0. -1.
         21    1    1    2  503  504 -0.46249359517E+02  0.12056109106E+03 -0.13012505810E+03  0.18332078627E+03  0.00000000000E+00 0. -1.
         21    1    1    2  504  502  0.39622129543E+02  0.41793707429E+02 -0.37461102929E+02  0.68701974956E+02  0.00000000000E+00 0. -1.
         21    1    1    2  505  503 -0.36174634941E+02 -0.11923492571E+03  0.16313304161E+03  0.20527532971E+03  0.00000000000E+00 0. -1.
          1    1    1    2  501    0  0.42801864915E+02 -0.43119872779E+02  0.13658891935E+03  0.14949199295E+03  0.00000000000E+00 0.  1.
<scales pt_clust_3="14000.00000" pt_clust_4="57.59017" pt_clust_5="146.02507" pt_clust_6="60.72849"></scales>
<clustering>
<clus scale="   57.590">  2  4  1 -1</clus>
<clus scale="   60.728">  1  6  2 -1</clus>
<clus scale="  146.025">  1  5  2 -1</clus>
<clus scale="   57.590">  2  3  1 -1</clus>
</clustering>
</event>
<event>
 6    0  0.6525019E+002  0.1281174E+03  0.7546771E-02  0.1230276E+00
          2   -1    0    0  503    0 -0.00000000000E+00  0.00000000000E+00  0.17088108726E+04  0.17088108726E+04  0.00000000000E+00 0.  1.
         21   -1    0    0  504  502  0.00000000000E+00 -0.00000000000E+00 -0.83712231275E+02  0.83712231275E+02  0.00000000000E+00 0. -1.
         21    1    1    2  503  505 -0.59422661532E+02 -0.70767435605E+02  0.10670960703E+03  0.14115956531E+03  0.00000000000E+00 0. -1.
         21    1    1    2  504  501  0.24526125414E+02 -0.50824118008E+02  0.41334876902E+03  0.41718320514E+03  0.00000000000E+00 0. -1.
         21    1    1    2  505  502  0.31896777315E+02  0.16269349197E+03  0.42913853911E+02  0.17125470969E+03  0.00000000000E+00 0. -1.
          2    1    1    2  501    0  0.29997588037E+01 -0.41101938357E+02  0.10621264114E+04  0.10629256238E+04  0.00000000000E+00 0.  1.
<scales pt_clust_3="128.11739" pt_clust_4="81.63864" pt_clust_5="14000.00000" pt_clust_6="41.21126"></scales>
<clustering>
<clus scale="   41.211">  1  6  2 -1</clus>
<clus scale="   81.639">  1  4  2 -1</clus>
<clus scale="  128.117">  1  3  2 -1</clus>
<clus scale="  128.117">  2  3  1 -1</clus>
</clustering>
</event>
<event>
 6    0  0.6525019E+002  0.7669007E+02  0.7546771E-02  0.1338716E+00
          1   -1    0    0  505    0 -0.00000000000E+00  0.00000000000E+00  0.63328413464E+03  0.63328413464E+03  0.00000000000E+00 0.  1.
         21   -1    0    0  503  502  0.00000000000E+00 -0.00000000000E+00 -0.17057891958E+04  0.17057891958E+04  0.00000000000E+00 0. -1.
         21    1    1    2  503  504 -0.77733929809E+01  0.34446734733E+02 -0.13820346288E+04  0.13824857028E+04  0.00000000000E+00 0. -1.
         21    1    1    2  504  501 -0.33495623534E+02 -0.16458820631E+02 -0.17873999723E+03  0.18259473207E+03  0.00000000000E+00 0. -1.
         21    1    1    2  505  502  0.11287900661E+03  0.78919402862E+01 -0.11769284239E+03  0.16326529945E+03  0.00000000000E+00 0. -1.
          1    1    1    2  501    0 -0.71609990100E+02 -0.25879854388E+02  0.60596240731E+03  0.61072759608E+03  0.00000000000E+00 0.  1.
<scales pt_clust_3="35.31293" pt_clust_4="37.93828" pt_clust_5="76.69007" pt_clust_6="14000.00000"></scales>
<clustering>
<clus scale="   35.313">  2  3  1 -1</clus>
<clus scale="   37.938">  2  4  1 -1</clus>
<clus scale="   76.690">  2  5  1 -1</clus>
<clus scale="   35.313">  2  3  1 -1</clus>
</clustering>
</event>
<event>
 6    0  0.6525019E+002  0.1158779E+03  0.7546771E-02  0.1250056E+00
         21   -1    0    0  503  502  0.00000000000E+00  0.00000000000E+00  0.37677050354E+02  0.37677050354E+02  0.00000000000E+00 0.  1.
          1   -1    0    0  505    0 -0.00000000000E+00 -0.00000000000E+00 -0.22141306496E+04  0.22141306496E+04  0.00000000000E+00 0.  1.
         21    1    1    2  503  501  0.63823386014E+02 -0.10604059693E+03 -0.25950592401E+03  0.28750888229E+03  0.00000000000E+00 0.  1.
         21    1    1    2  504  502 -0.13212472730E+03  0.14889828248E+02 -0.19821238012E+03  0.23867718404E+03  0.00000000000E+00 0.  1.
         21    1    1    2  505  504 -0.40005611189E+01  0.52927086240E+02 -0.30974917301E+03  0.31426395137E+03  0.00000000000E+00 0. -1.
          1    1    1    2  501    0  0.72301902400E+02  0.38223682437E+02 -0.14089861221E+04  0.14113576823E+04  0.00000000000E+00 0.  1.
<scales pt_clust_3="14000.00000" pt_clust_4="115.87794" pt_clust_5="53.07806" pt_clust_6="103.96084"></scales>
<clustering>
<clus scale="   53.078">  2  5  1 -1</clus>
<clus scale="  103.961">  2  6  1 -1</clus>
<clus scale="  115.878">  1  4  2 -1</clus>
<clus scale="  115.878">  1  3  2 -1</clus>
</clustering>
</event>
<event>
 6    0  0.6525019E+002  0.2107692E+03  0.7546771E-02  0.1140958E+00
          2   -1    0    0  504    0 -0.00000000000E+00  0.00000000000E+00  0.10838295600E+04  0.10838295600E+04  0.00000000000E+00 0. -1.
         21   -1    0    0  505  502  0.00000000000E+00 -0.00000000000E+00 -0.11622589554E+04  0.11622589554E+04  0.00000000000E+00 0.  1.
         21    1    1    2  503  502  0.24554053632E+03 -0.13647843612E+03  0.12045337301E+03  0.30565590714E+03  0.00000000000E+00 0. -1.
         21    1    1    2  504  503 -0.10782306301E+03  0.14035092556E+03 -0.57979682679E+02  0.18624134564E+03  0.00000000000E+00 0.  1.
         21    1    1    2  505  501 -0.20142925883E+03  0.49857409432E+02 -0.93397655091E+03  0.95675059720E+03  0.00000000000E+00 0.  1.
          2    1    1    2  501    0  0.63711785519E+02 -0.53729898871E+02  0.79307346519E+03  0.79744066541E+03  0.00000000000E+00 0. -1.
<scales pt_clust_3="14000.00000" pt_clust_4="158.94075" pt_clust_5="210.76916" pt_clust_6="83.34323"></scales>
<clustering>
<clus scale="   83.343">  1  6  2 -1</clus>
<clus scale="  158.941">  1  4  2 -1</clus>
<clus scale="  210.769">  2  5  1 -1</clus>
<clus scale="  210.769">  2  3  1 -1</clus>
</clustering>
</event>
<event>
 6    0  0.6525019E+002  0.1740207E+03  0.7546771E-02  0.1173719E+00
          4   -1    0    0  504    0 -0.00000000000E+00  0.00000000000E+00  0.61894555986E+03  0.61894555986E+03  0.00000000000E+00 0.  1.
         21   -1    0    0  505  502  0.00000000000E+00 -0.00000000000E+00 -0.61675584445E+03  0.61675584445E+03  0.00000000000E+00 0. -1.
         21    1    1    2  503  501  0.14101658392E+02  0.17659311682E+03  0.25288834938E+03  0.30876609745E+03  0.00000000000E+00 0.  1.
         21    1    1    2  504  502 -0.39314854088E+02 -0.13915035544E+03 -0.12475978454E+03  0.19098032100E+03  0.00000000000E+00 0. -1.
         21    1    1    2  505  503 -0.73441691020E+01 -0.35177015021E+02 -0.42932107624E+03  0.43082240623E+03  0.00000000000E+00 0. -1.
          4    1    1    2  501    0  0.32557364798E+02 -0.22657463618E+01  0.30338222681E+03  0.30513257963E+03  0.00000000000E+00 0.  1.
<scales pt_clust_3="14000.00000" pt_clust_4="174.02068" pt_clust_5="35.92499" pt_clust_6="32.63611"></scales>
<clustering>
<clus scale="   32.636">  1  6  2 -1</clus>
<clus scale="   35.925">  2  5  1 -1</clus>
<clus scale="  174.021">  2  4  1 -1</clus>
<clus scale="   35.925">  2  3  1 -1</clus>
</clustering>
</event>
<event>
 6    0  0.6525019E+002  0.1439286E+03  0.7546771E-02  0.1208138E+00
         21   -1    0    0  503  502  0.00000000000E+00  0.00000000000E+00  0.11284723308E+03  0.11284723308E+03  0.00000000000E+00 0. -1.
          1   -1    0    0  505    0 -0.00000000000E+00 -0.00000000000E+00 -0.21486138918E+04  0.21486138918E+04  0.00000000000E+00 0. -1.
         21    1    1    2  503  501 -0.13495453546E+03  0.53387209452E+00 -0.86947817904E+03  0.87988937685E+03  0.00000000000E+00 0. -1.
         21    1    1    2  504  502  0.58220713656E+02  0.23281189504E+02  0.53392326505E+02  0.82355362988E+02  0.00000000000E+00 0. -1.
         21    1    1    2  505  504  0.68791653467E+02  0.25209087412E+02  0.50874665983E+01  0.73441623016E+02  0.00000000000E+00 0. -1.
          1    1    1    2  501    0  0.79421683406E+01 -0.49024149011E+02 -0.12247682728E+04  0.12257747620E+04  0.00000000000E+00 0. -1.
<scales pt_clust_3="135.44766" pt_clust_4="45.03098" pt_clust_5="45.03098" pt_clust_6="49.66332"></scales>
<clustering>
<clus scale="   45.031">  4  5 -1 -1</clus>
<clus scale="   49.663">  2  6  1 -1</clus>
<clus scale="  135.448">  2  3  1 -1</clus>
<clus scale="  143.929">  1  3  2 -1</clus>
</clustering>
</event>
<event>
 6    0  0.6525019E+002  0.1801995E+03  0.7546771E-02  0.1167610E+00
          2   -1    0    0  504    0 -0.00000000000E+00  0.00000000000E+00  0.24084860114E+04  0.24084860114E+04  0.00000000000E+00 0. -1.
         21   -1    0    0  505  502  0.00000000000E+00 -0.00000000000E+00 -0.89871006308E+02  0.89871006308E+02  0.00000000000E+00 0.  1.
         21    1    1    2  503  502  0.16293996345E+03 -0.12606454543E+03  0.64414796676E+02  0.21584940893E+03  0.00000000000E+00 0.  1.
         21    1    1    2  504  503 -0.27569612181E+02  0.85461033828E+02  0.23727641649E+03  0.25370015696E+03  0.00000000000E+00 0. -1.
         21    1    1    2  505  501 -0.35375727644E+02 -0.78459672690E+01  0.70982278216E+02  0.79696205239E+02  0.00000000000E+00 0. -1.
          2    1    1    2  501    0 -0.99994623627E+02  0.48449478876E+02  0.19459415137E+04  0.19491112466E+04  0.00000000000E+00 0. -1.
<scales pt_clust_3="14000.00000" pt_clust_4="90.19043" pt_clust_5="36.23536" pt_clust_6="180.19952"></scales>
<clustering>
<clus scale="   36.235">  2  5  1 -1</clus>
<clus scale="   90.190">  1  4  2 -1</clus>
<clus scale="  180.200">  1  6  2 -1</clus>
<clus scale="   36.235">  2  3  1 -1</clus>
</clustering>
</event>
<event>
 6    0  0.6525019E+002  0.7449530E+02  0.7546771E-02  0.1345441E+00
          2   -1    0    0  502    0 -0.00000000000E+00  0.00000000000E+00  0.11613849417E+04  0.11613849417E+04  0.00000000000E+00 0. -1.
         21   -1    0    0  504  502  0.00000000000E+00 -0.00000000000E+00 -0.13105766406E+03  0.13105766406E+03  0.00000000000E+00 0. -1.
         21    1    1    2  503  505 -0.87918418962E+02  0.35408765640E+02 -0.14524762772E+02  0.95887422588E+02  0.00000000000E+00 0. -1.
         21    1    1    2  504  503  0.65879547909E+02 -0.10541618406E+02 -0.49235074109E+02  0.82917628246E+02  0.00000000000E+00 0. -1.
         21    1    1    2  505  501  0.32814809908E+02 -0.54887139900E+02  0.97870092839E+02  0.11691007206E+03  0.00000000000E+00 0. -1.
          2    1    1    2  501    0 -0.10775938856E+02  0.30019992666E+02  0.99621702165E+03  0.99672748283E+03  0.00000000000E+00 0. -1.
<scales pt_clust_3="74.49530" pt_clust_4="14000.00000" pt_clust_5="43.75285" pt_clust_6="31.89547"></scales>
<clustering>
<clus scale="   31.895">  1  6  2 -1</clus>
<clus scale="   43.753">  1  5  2 -1</clus>
<clus scale="   74.495">  1  3  2 -1</clus>
<clus scale="   74.495">  2  3  1 -1</clus>
</clustering>
</event>
<event>
 6    0  0.6525019E+002  0.1430044E+03  0.7546771E-02  0.1209343E+00
         21   -1    0    0  504  502  0.00000000000E+00  0.00000000000E+00  0.19515270173E+03  0.19515270173E+03  0.00000000000E+00 0. -1.
          2   -1    0    0  505    0 -0.00000000000E+00 -0.00000000000E+00 -0.30968116361E+04  0.30968116361E+04  0.00000000000E+00 0. -1.
         21    1    1    2  503  501  0.20110002065E+03 -0.29987942450E+02 -0.99467524323E+03  0.10152434853E+04  0.00000000000E+00 0. -1.
         21    1    1    2  504  503 -0.80850675240E+02 -0.32597993392E+02  0.17016002842E+03  0.19119073233E+03  0.00000000000E+00 0. -1.
         21    1    1    2  505  502 -0.21932965991E+02  0.32638849277E+02 -0.13350308898E+03  0.13917407893E+03  0.00000000000E+00 0. -1.
          2    1    1    2  501    0 -0.98316379418E+02  0.29947086566E+02 -0.19436406306E+04  0.19463560413E+04  0.00000000000E+00 0. -1.
<scales pt_clust_3="143.00438" pt_clust_4="87.20390" pt_clust_5="39.32365" pt_clust_6="14000.00000"></scales>
<clustering>
<clus scale="   39.324">  2  5  1 -1</clus>
<clus scale="   87.204">  1  4  2 -1</clus>
<clus scale="  143.004">  1  3  2 -1</clus>
<clus scale="   87.204">  1  3  2 -1</clus>
</clustering>
</event>
<event>
 6    0  0.6525019E+002  0.7085337E+02  0.7546771E-02  0.1357215E+00
         -4   -1    0    0    0  501 -0.00000000000E+00  0.00000000000E+00  0.19968604822E+03  0.19968604822E+03  0.00000000000E+00 0. -1.
         21   -1    0    0  503  502  0.00000000000E+00 -0.00000000000E+00 -0.54829948363E+03  0.54829948363E+03  0.00000000000E+00 0.  1.
         21    1    1    2  503  505  0.43426596275E+02  0.25086505627E+02 -0.35237826953E+03  0.35592927228E+03  0.00000000000E+00 0.  1.
         21    1    1    2  504  502  0.81766333254E+02 -0.57878829918E+01 -0.85520741688E+02  0.11846109109E+03  0.00000000000E+00 0. -1.
         21    1    1    2  505  501 -0.55276948150E+02 -0.13788902888E+02 -0.75455315618E+02  0.94547234199E+02  0.00000000000E+00 0. -1.
         -4    1    1    2    0  504 -0.69915981380E+02 -0.55097197469E+01  0.16474089142E+03  0.17904793428E+03  0.00000000000E+00 0. -1.
<scales pt_clust_3="50.15179" pt_clust_4="70.85337" pt_clust_5="36.37218" pt_clust_6="14000.00000"></scales>
<clustering>
<clus scale="   50.152">  2  3  1 -1</clus>
<clus scale="   36.372">  2  5  1 -1</clus>
<clus scale="   70.853">  2  4  1 -1</clus>
<clus scale="   50.152">  2  3  1 -1</clus>
</clustering>
</event>
<event>
 6    0  0.6525019E+002  0.8542017E+02  0.7546771E-02  0.1314337E+00
         21   -1    0    0  505  502  0.00000000000E+00  0.00000000000E+00  0.37567652323E+03  0.37567652323E+03  0.00000000000E+00 0.  1.
          3   -1    0    0  504    0 -0.00000000000E+00 -0.00000000000E+00 -0.83118982393E+03  0.83118982393E+03  0.00000000000E+00 0.  1.
         21    1    1    2  503  501  0.25589057227E+02  0.75761376417E+02 -0.63986657182E+02  0.10241522496E+03  0.00000000000E+00 0.  1.
         21    1    1    2  504  502 -0.14123619724E+03 -0.13702263200E+03 -0.43851707775E+03  0.48064549574E+03  0.00000000000E+00 0.  1.
         21    1    1    2  505  503  0.67502618954E+02  0.50248393782E+02  0.32793145065E+03  0.33855655505E+03  0.00000000000E+00 0.  1.
          3    1    1    2  501    0  0.48144521062E+02  0.11012861799E+02 -0.28094101642E+03  0.28524907141E+03  0.00000000000E+00 0.  1.
<scales pt_clust_3="84.13162" pt_clust_4="85.42017" pt_clust_5="14000.00000" pt_clust_6="49.38804"></scales>
<clustering>
<clus scale="   49.388">  2  6  1 -1</clus>
<clus scale="   84.132">  2  3  1 -1</clus>
<clus scale="   85.420">  2  4  1 -1</clus>
<clus scale="   85.420">  1  3  2 -1</clus>
</clustering>
</event>
<event>
 6    0  0.6525019E+002  0.1593378E+03  0.7546771E-02  0.1189446E+00
         21   -1    0    0  504  502  0.00000000000E+00  0.00000000000E+00  0.23450922223E+04  0.23450922223E+04  0.00000000000E+00 0. -1.
          2   -1    0    0  505    0 -0.00000000000E+00 -0.00000000000E+00 -0.13769145287E+04  0.13769145287E+04  0.00000000000E+00 0. -1.
         21    1    1    2  503  502  0.87206146011E+02  0.11636484035E+03  0.21071421531E+04  0.21121538157E+04  0.00000000000E+00 0. -1.
         21    1    1    2  504  501  0.35206312815E+02 -0.14119968639E+02  0.22808954380E+03  0.23122218312E+03  0.00000000000E+00 0. -1.
         21    1    1    2  505  503 -0.33741860595E+01 -0.38299052306E+02 -0.19038704577E+03  0.19423035226E+03  0.00000000000E+00 0.  1.
          2    1    1    2  501    0 -0.11903827277E+03 -0.63945819408E+02 -0.11766669576E+04  0.11844003999E+04  0.00000000000E+00 0. -1.
<scales pt_clust_3="159.33775" pt_clust_4="37.93228" pt_clust_5="38.45738" pt_clust_6="14000.00000"></scales>
<clustering>
<clus scale="   37.932">  1  4  2 -1</clus>
<clus scale="   38.457">  2  5  1 -1</clus>
<clus scale="  159.338">  1  3  2 -1</clus>
<clus scale="   37.932">  1  3  2 -1</clus>
</clustering>
</event>
<event>
 6    0  0.6525019E+002  0.7529358E+02  0.7546771E-02  0.1342964E+00
          2   -1    0    0  503    0 -0.00000000000E+00  0.00000000000E+00  0.15956606784E+04  0.15956606784E+04  0.00000000000E+00 0.  1.
         21   -1    0    0  504  502  0.00000000000E+00 -0.00000000000E+00 -0.57563074032E+02  0.57563074032E+02  0.00000000000E+00 0.  1.
         21    1    1    2  503  502  0.44441181034E+02  0.45556568087E+02  0.63119212544E+02  0.89635118450E+02  0.00000000000E+00 0. -1.
         21    1    1    2  504  505 -0.66217360190E+02 -0.24874379793E+02  0.32798406166E+02  0.77969282462E+02  0.00000000000E+00 0.  1.
         21    1    1    2  505  501 -0.24751564728E+01 -0.91329739214E+02  0.80133282577E+02  0.12152609037E+03  0.00000000000E+00 0. -1.
          2    1    1    2  501    0  0.24251335629E+02  0.70647550921E+02  0.13620467031E+04  0.13640932612E+04  0.00000000000E+00 0.  1.
<scales pt_clust_3="63.64291" pt_clust_4="43.59384" pt_clust_5="14000.00000" pt_clust_6="75.29358"></scales>
<clustering>
<clus scale="   63.643">  2  3  1 -1</clus>
<clus scale="   43.594">  2  4  1 -1</clus>
<clus scale="   75.294">  1  6  2 -1</clus>
<clus scale="   63.643">  2  3  1 -1</clus>
</clustering>
</event>
<event>
 6    0  0.6525019E+002  0.1154569E+03  0.7546771E-02  0.1250786E+00
         21   -1    0    0  503  502  0.00000000000E+00  0.00000000000E+00  0.15958405844E+04  0.15958405844E+04  0.00000000000E+00 0. -1.
          2   -1    0    0  504    0 -0.00000000000E+00 -0.00000000000E+00 -0.35997505270E+04  0.35997505270E+04  0.00000000000E+00 0. -1.
         21    1    1    2  503  501  0.60358937319E+02 -0.91074143909E+02  0.10067596867E+03  0.14857103240E+03  0.00000000000E+00 0.  1.
         21    1    1    2  504  505  0.60033345334E+02 -0.65040646520E+02  0.28697491811E+03  0.30031465478E+03  0.00000000000E+00 0.  1.
         21    1    1    2  505  502 -0.77955159395E+02  0.10426190367E+03  0.11736585562E+04  0.11808564511E+04  0.00000000000E+00 0. -1.
          2    1    1    2  501    0 -0.42437123258E+02  0.51852886758E+02 -0.35652193856E+04  0.35658489731E+04  0.00000000000E+00 0. -1.
<scales pt_clust_3="62.77805" pt_clust_4="14000.00000" pt_clust_5="115.45690" pt_clust_6="67.00471"></scales>
<clustering>
<clus scale="   67.005">  2  6  1 -1</clus>
<clus scale="   62.778">  2  3  1 -1</clus>
<clus scale="  115.457">  1  5  2 -1</clus>
<clus scale="  115.457">  1  3  2 -1</clus>
</clustering>
</event>
<event>
 6    0  0.6525019E+002  0.9273229E+02  0.7546771E-02  0.1296367E+00
          1   -1    0    0  503    0 -0.00000000000E+00  0.00000000000E+00  0.19310172525E+04  0.19310172525E+04  0.00000000000E+00 0.  1.
         21   -1    0    0  505  502  0.00000000000E+00 -0.00000000000E+00 -0.34858635551E+02  0.34858635551E+02  0.00000000000E+00 0.  1.
         21    1    1    2  503  504  0.49064406961E+02  0.45217743480E+02  0.33731991871E+03  0.34385562074E+03  0.00000000000E+00 0.  1.
         21    1    1    2  504  502 -0.82568334013E+02  0.66628878960E+02  0.85983175689E+02  0.13656516318E+03  0.00000000000E+00 0.  1.
         21    1    1    2  505  501 -0.15406225416E+02 -0.53403248680E+02  0.14306177633E+03  0.15347941425E+03  0.00000000000E+00 0. -1.
          1    1    1    2  501    0  0.48910152468E+02 -0.58443373761E+02  0.13297937462E+04  0.13319756899E+04  0.00000000000E+00 0.  1.
<scales pt_clust_3="61.56766" pt_clust_4="92.73229" pt_clust_5="55.58110" pt_clust_6="14000.00000"></scales>
<clustering>
<clus scale="   55.581">  2  5  1 -1</clus>
<clus scale="   61.568">  1  3  2 -1</clus>
<clus scale="   92.732">  2  4  1 -1</clus>
<clus scale="   55.581">  2  3  1 -1</clus>
</clustering>
</event>
<event>
 6    0  0.6525019E+002  0.1003883E+03  0.7546771E-02  0.1279481E+00
          2   -1    0    0  504    0 -0.00000000000E+00  0.00000000000E+00  0.26933062805E+04  0.26933062805E+04  0.00000000000E+00 0. -1.
         21   -1    0    0  503  502  0.00000000000E+00 -0.00000000000E+00 -0.12499852185E+03  0.12499852185E+03  0.00000000000E+00 0.  1.
         21    1    1    2  503  505 -0.16889265931E+02 -0.55592858417E+02  0.36023995238E+02  0.68363304803E+02  0.00000000000E+00 0. -1.
         21    1    1    2  504  502  0.62239382874E+02 -0.94068413674E+01 -0.51653047914E+02  0.81426450272E+02  0.00000000000E+00 0.  1.
         21    1    1    2  505  501 -0.74656461759E+02 -0.32214730908E+02 -0.12648511499E+01  0.81320206703E+02  0.00000000000E+00 0. -1.
          2    1    1    2  501    0  0.29306344816E+02  0.97214430693E+02  0.25852016625E+04  0.25871948406E+04  0.00000000000E+00 0. -1.
<scales pt_clust_3="58.10175" pt_clust_4="67.66299" pt_clust_5="14000.00000" pt_clust_6="100.38831"></scales>
<clustering>
<clus scale="   58.102">  2  3  1 -1</clus>
<clus scale="   67.663">  2  4  1 -1</clus>
<clus scale="  100.388">  1  6  2 -1</clus>
<clus scale="   58.102">  2  3  1 -1</clus>
</clustering>
</event>
<event>
 6    0  0.6525019E+002  0.1236175E+03  0.7546771E-02  0.1237246E+00
          1   -1    0    0  505    0 -0.00000000000E+00  0.00000000000E+00  0.12549944001E+03  0.12549944001E+03  0.00000000000E+00 0.  1.
         21   -1    0    0  504  502  0.00000000000E+00 -0.00000000000E+00 -0.12079984026E+04  0.12079984026E+04  0.00000000000E+00 0.  1.
         21    1    1    2  503  501  0.43542837332E+02 -0.19969523981E+01 -0.53884870328E+03  0.54060881563E+03  0.00000000000E+00 0.  1.
         21    1    1    2  504  503  0.62460651325E+02  0.44872038647E+02 -0.59273248020E+03  0.59770111753E+03  0.00000000000E+00 0.  1.
         21    1    1    2  505  502 -0.21513567257E+02  0.54317468495E+02  0.33225313264E+01  0.58517178454E+02  0.00000000000E+00 0. -1.
          1    1    1    2  501    0 -0.84489921400E+02 -0.97192554744E+02  0.45759689588E+02  0.13667073098E+03  0.00000000000E+00 0.  1.
<scales pt_clust_3="35.29927" pt_clust_4="35.29927" pt_clust_5="58.42278" pt_clust_6="114.37994"></scales>
<clustering>
<clus scale="   35.299">  3  4 -1 -1</clus>
<clus scale="   58.423">  1  5  2 -1</clus>
<clus scale="  114.380">  1  6  2 -1</clus>
<clus scale="  123.618">  2  3  1 -1</clus>
</clustering>
</event>
<event>
 6    0  0.6525019E+002  0.1358821E+03  0.7546771E-02  0.1218980E+00
          2   -1    0    0  504    0 -0.00000000000E+00  0.00000000000E+00  0.19575147904E+04  0.19575147904E+04  0.00000000000E+00 0.  1.
         21   -1    0    0  503  502  0.00000000000E+00 -0.00000000000E+00 -0.65609067054E+02  0.65609067054E+02  0.00000000000E+00 0.  1.
         21    1    1    2  503  505 -0.27286278686E+01  0.40249850926E+02 -0.14005077849E+02  0.42704076095E+02  0.00000000000E+00 0. -1.
         21    1    1    2  504  502 -0.11301489148E+03 -0.17055203276E+02  0.55287915691E+03  0.56456940034E+03  0.00000000000E+00 0.  1.
         21    1    1    2  505  501 -0.23781396681E+02 -0.93103976669E+02  0.59680396741E+02  0.11311788123E+03  0.00000000000E+00 0.  1.
          2    1    1    2  501    0  0.13952491603E+03  0.69909329019E+02  0.12933512476E+04  0.13027324998E+04  0.00000000000E+00 0.  1.
<scales pt_clust_3="40.34223" pt_clust_4="14000.00000" pt_clust_5="69.20153" pt_clust_6="135.88206"></scales>
<clustering>
<clus scale="   40.342">  2  3  1 -1</clus>
<clus scale="   69.202">  2  5  1 -1</clus>
<clus scale="  135.882">  1  6  2 -1</clus>
<clus scale="   40.342">  2  3  1 -1</clus>
</clustering>
</event>
<event>
 6    0  0.6932094E+002  0.6848586E+02  0.7546771E-02  0.1365319E+00
         21   -1    0    0  503  502  0.00000000000E+00  0.00000000000E+00  0.75155959404E+03  0.75155959404E+03  0.00000000000E+00 0.  1.
          2   -1    0    0  504    0 -0.00000000000E+00 -0.00000000000E+00 -0.29039776719E+04  0.29039776719E+04  0.00000000000E+00 0.  1.
         21    1    1    2  503  501 -0.19411824344E+02  0.11543699885E+03  0.65694561894E+03  0.66729308843E+03  0.00000000000E+00 0.  1.
         21    1    1    2  504  505 -0.39027255125E+02 -0.54047760066E+02  0.37753300491E+02  0.76613306342E+02  0.00000000000E+00 0.  1.
         21    1    1    2  505  502  0.50720797112E+02  0.66301603015E+01  0.11307155018E+02  0.52387117117E+02  0.00000000000E+00 0. -1.
          2    1    1    2  501    0  0.77182823575E+01 -0.68019399085E+02 -0.28584241523E+04  0.28592437540E+04  0.00000000000E+00 0.  1.
<scales pt_clust_3="14000.00000" pt_clust_4="63.94770" pt_clust_5="51.15230" pt_clust_6="68.48586"></scales>
<clustering>
<clus scale="   51.152">  1  5  2 -1</clus>
<clus scale="   63.948">  1  4  2 -1</clus>
<clus scale="   68.486">  2  6  1 -1</clus>
<clus scale="   51.152">  1  3  2 -1</clus>
</clustering>
</event>
<event>
 6    0  0.6525019E+002  0.6904215E+02  0.7546771E-02  0.1363381E+00
          2   -1    0    0  504    0 -0.00000000000E+00  0.00000000000E+00  0.99956858887E+03  0.99956858887E+03  0.00000000000E+00 0.  1.
         21   -1    0    0  501  502  0.00000000000E+00 -0.00000000000E+00 -0.17618723735E+03  0.17618723735E+03  0.00000000000E+00 0.  1.
         21    1    1    2  503  505 -0.57291928981E+02  0.12331603901E+02 -0.11690420540E+03  0.13077089440E+03  0.00000000000E+00 0.  1.
         21    1    1    2  504  503  0.67294515575E+02  0.77555027743E+02  0.85855568085E+02  0.13384510722E+03  0.00000000000E+00 0.  1.
         21    1    1    2  505  502 -0.94027167106E+01 -0.30934540255E+02 -0.17807923959E+02  0.36911773434E+02  0.00000000000E+00 0.  1.
          2    1    1    2  501    0 -0.59986988293E+00 -0.58952091388E+02  0.87223791280E+03  0.87422805117E+03  0.00000000000E+00 0.  1.
<scales pt_clust_3="14000.00000" pt_clust_4="69.04215" pt_clust_5="32.33198" pt_clust_6="59.16263"></scales>
<clustering>
<clus scale="   32.332">  2  5  1 -1</clus>
<clus scale="   59.163">  1  6  2 -1</clus>
<clus scale="   69.042">  1  4  2 -1</clus>
<clus scale="   32.332">  2  3  1 -1</clus>
</clustering>
</event>
<event>
 6    0  0.6525019E+002  0.1350312E+03  0.7546771E-02  0.1220176E+00
         21   -1    0    0  504  502  0.00000000000E+00  0.00000000000E+00  0.80945984884E+02  0.80945984884E+02  0.00000000000E+00 0. -1.
          3   -1    0    0  505    0 -0.00000000000E+00 -0.00000000000E+00 -0.11201828128E+04  0.11201828128E+04  0.00000000000E+00 0. -1.
         21    1    1    2  503  502  0.33059636968E+02 -0.55418658310E+01  0.23781318405E+02  0.41099914579E+02  0.00000000000E+00 0. -1.
         21    1    1    2  504  501 -0.70446195881E+02 -0.10057874510E+03 -0.16601749866E+03  0.20649590878E+03  0.00000000000E+00 0. -1.
         21    1    1    2  505  503  0.83880732486E+02  0.12616352960E+03 -0.18228122134E+03  0.23702248235E+03  0.00000000000E+00 0. -1.
          3    1    1    2  501    0 -0.46494173573E+02 -0.20042918664E+02 -0.71471942632E+03  0.71651049198E+03  0.00000000000E+00 0. -1.
<scales pt_clust_3="33.52092" pt_clust_4="14000.00000" pt_clust_5="135.03123" pt_clust_6="50.11142"></scales>
<clustering>
<clus scale="   33.521">  1  3  2 -1</clus>
<clus scale="   50.111">  2  6  1 -1</clus>
<clus scale="  135.031">  2  5  1 -1</clus>
<clus scale="   33.521">  1  3  2 -1</clus>
</clustering>
</event>
<event>
 6    0  0.6525019E+002  0.1278126E+03  0.7546771E-02  0.1230738E+00
         21   -1    0    0  501  502  0.00000000000E+00  0.00000000000E+00  0.55859442892E+03  0.55859442892E+03  0.00000000000E+00 0.  1.
         -2   -1    0    0    0  501 -0.00000000000E+00 -0.00000000000E+00 -0.39962477991E+03  0.39962477991E+03  0.00000000000E+00 0.  1.
         21    1    1    2  503  504 -0.10205343052E+03  0.18926432254E+03  0.12628222469E+03  0.24936536797E+03  0.00000000000E+00 0. -1.
         21    1    1    2  504  502  0.66535913602E+02 -0.93436707771E+02  0.34100636459E+03  0.35978158214E+03  0.00000000000E+00 0.  1.
         21    1    1    2  505  503 -0.46842010458E+00 -0.67153031479E+02 -0.42885436460E+02  0.79680045900E+02  0.00000000000E+00 0. -1.
         -2    1    1    2    0  505  0.35985937026E+02 -0.28674583289E+02 -0.26543350380E+03  0.26939221282E+03  0.00000000000E+00 0.  1.
<scales pt_clust_3="127.81258" pt_clust_4="14000.00000" pt_clust_5="82.06155" pt_clust_6="46.01325"></scales>
<clustering>
<clus scale="   46.013">  2  6  1 -1</clus>
<clus scale="   82.062">  2  5  1 -1</clus>
<clus scale="  127.813">  2  3  1 -1</clus>
<clus scale="  127.813">  1  3  2 -1</clus>
</clustering>
</event>
<event>
 6    0  0.6525019E+002  0.8215065E+02  0.7546771E-02  0.1323057E+00
         21   -1    0    0  503  502  0.00000000000E+00  0.00000000000E+00  0.85189776445E+02  0.85189776445E+02  0.00000000000E+00 0.  1.
          1   -1    0    0  504    0 -0.00000000000E+00 -0.00000000000E+00 -0.13295015516E+04  0.13295015516E+04  0.00000000000E+00 0.  1.
         21    1    1    2  503  505  0.56344978677E+02 -0.58070163164E+02  0.52533998546E+02  0.96471350541E+02  0.00000000000E+00 0.  1.
         21    1    1    2  504  502  0.55486764548E+02 -0.27734750540E+02 -0.28815655973E+03  0.29475786731E+03  0.00000000000E+00 0. -1.
         21    1    1    2  505  501 -0.94961839649E+02  0.56866973821E+02 -0.43726048957E+03  0.45105247970E+03  0.00000000000E+00 0.  1.
          1    1    1    2  501    0 -0.16869903576E+02  0.28937939883E+02 -0.57142872444E+03  0.57240963053E+03  0.00000000000E+00 0.  1.
<scales pt_clust_3="82.15065" pt_clust_4="51.73279" pt_clust_5="14000.00000" pt_clust_6="33.49624"></scales>
<clustering>
<clus scale="   33.496">  2  6  1 -1</clus>
<clus scale="   51.733">  2  4  1 -1</clus>
<clus scale="   82.151">  1  3  2 -1</clus>
<clus scale="   82.151">  1  3  2 -1</clus>
</clustering>
</event>
<event>
 6    0  0.6525019E+002  0.1078305E+03  0.7546771E-02  0.1264641E+00
          4   -1    0    0  504    0 -0.00000000000E+00  0.00000000000E+00  0.62048969222E+02  0.62048969222E+02  0.00000000000E+00 0. -1.
         21   -1    0    0  505  502  0.00000000000E+00 -0.00000000000E+00 -0.18966969432E+04  0.18966969432E+04  0.00000000000E+00 0. -1.
         21    1    1    2  503  501 -0.10591265034E+03  0.22169505435E+02 -0.33321877175E+03  0.35034800745E+03  0.00000000000E+00 0. -1.
         21    1    1    2  504  502  0.92460362615E+02 -0.28576388476E+02 -0.59217700032E+03  0.60003260606E+03  0.00000000000E+00 0. -1.
         21    1    1    2  505  503  0.30593452714E+02 -0.30714766480E+02 -0.94979535823E+03  0.95078419147E+03  0.00000000000E+00 0. -1.
          4    1    1    2  501    0 -0.17141164987E+02  0.37121649520E+02  0.40543156372E+02  0.57581107395E+02  0.00000000000E+00 0. -1.
<scales pt_clust_3="107.83052" pt_clust_4="14000.00000" pt_clust_5="41.89314" pt_clust_6="40.88810"></scales>
<clustering>
<clus scale="   40.888">  1  6  2 -1</clus>
<clus scale="   41.893">  2  5  1 -1</clus>
<clus scale="  107.831">  1  3  2 -1</clus>
<clus scale="   41.893">  2  3  1 -1</clus>
</clustering>
</event>
<event>
 6    0  0.6525019E+002  0.8269333E+02  0.7546771E-02  0.1321577E+00
          2   -1    0    0  504    0 -0.00000000000E+00  0.00000000000E+00  0.50988870599E+03  0.50988870599E+03  0.00000000000E+00 0. -1.
         21   -1    0    0  503  502  0.00000000000E+00 -0.00000000000E+00 -0.13821335121E+03  0.13821335121E+03  0.00000000000E+00 0. -1.
         21    1    1    2  503  501 -0.46396093636E+02  0.14385056011E+02  0.12872143941E+02  0.50251561476E+02  0.00000000000E+00 0. -1.
         21    1    1    2  504  505 -0.92861575743E+01  0.86551474309E+02  0.17630062286E+03  0.19661968378E+03  0.00000000000E+00 0. -1.
         21    1    1    2  505  502  0.13651554547E+02 -0.29396610460E+02 -0.10087578300E+03  0.10595493969E+03  0.00000000000E+00 0. -1.
          2    1    1    2  501    0  0.42030696663E+02 -0.71539919859E+02  0.28337837098E+03  0.29527587225E+03  0.00000000000E+00 0. -1.
<scales pt_clust_3="39.08917" pt_clust_4="82.69333" pt_clust_5="32.41181" pt_clust_6="14000.00000"></scales>
<clustering>
<clus scale="   32.412">  2  5  1 -1</clus>
<clus scale="   39.089">  2  3  1 -1</clus>
<clus scale="   82.693">  2  4  1 -1</clus>
<clus scale="   32.412">  2  3  1 -1</clus>
</clustering>
</event>
<event>
 6    0  0.6525019E+002  0.1447613E+03  0.7546771E-02  0.1207062E+00
         21   -1    0    0  503  502  0.00000000000E+00  0.00000000000E+00  0.69202682153E+03  0.69202682153E+03  0.00000000000E+00 0.  1.
          1   -1    0    0  505    0 -0.00000000000E+00 -0.00000000000E+00 -0.10346131869E+04  0.10346131869E+04  0.00000000000E+00 0.  1.
         21    1    1    2  503  501  0.34919535902E+02 -0.18506106152E+03 -0.76824811373E+02  0.20339376126E+03  0.00000000000E+00 0.  1.
         21    1    1    2  504  502 -0.13473374175E+02  0.60808200227E+02  0.48286688276E+03  0.48686712304E+03  0.00000000000E+00 0.  1.
         21    1    1    2  505  504 -0.32270242540E+02  0.88403328458E+02  0.12804352457E+03  0.15890771290E+03  0.00000000000E+00 0.  1.
          1    1    1    2  501    0  0.10824080813E+02  0.35849532830E+02 -0.87667196137E+03  0.87747141126E+03  0.00000000000E+00 0.  1.
<scales pt_clust_3="144.76133" pt_clust_4="62.69804" pt_clust_5="14000.00000" pt_clust_6="37.44796"></scales>
<clustering>
<clus scale="   37.448">  2  6  1 -1</clus>
<clus scale="   62.698">  1  4  2 -1</clus>
<clus scale="  144.761">  2  3  1 -1</clus>
<clus scale="   62.698">  1  3  2 -1</clus>
</clustering>
</event>
<event>
 6    0  0.6525019E+002  0.9735663E+02  0.7546771E-02  0.1285955E+00
         -1   -1    0    0    0  501 -0.00000000000E+00  0.00000000000E+00  0.34607220529E+03  0.34607220529E+03  0.00000000000E+00 0.  1.
         21   -1    0    0  504  502  0.00000000000E+00 -0.00000000000E+00 -0.74854907063E+03  0.74854907063E+03  0.00000000000E+00 0.  1.
         21    1    1    2  503  502  0.10546132829E+03  0.18669145848E+02 -0.42889476658E+03  0.44206487032E+03  0.00000000000E+00 0.  1.
         21    1    1    2  504  505 -0.22737753320E+02  0.28883826296E+02 -0.27992295125E+03  0.28232629967E+03  0.00000000000E+00 0.  1.
         21    1    1    2  505  501 -0.10042212819E+03 -0.94905663490E+02  0.14133597657E+03  0.19765512153E+03  0.00000000000E+00 0. -1.
         -1    1    1    2    0  503  0.17698553220E+02  0.47352691346E+02  0.16500487592E+03  0.17257498440E+03  0.00000000000E+00 0.  1.
<scales pt_clust_3="97.35663" pt_clust_4="36.75977" pt_clust_5="14000.00000" pt_clust_6="50.70738"></scales>
<clustering>
<clus scale="   36.760">  2  4  1 -1</clus>
<clus scale="   50.707">  1  6  2 -1</clus>
<clus scale="   97.357">  2  3  1 -1</clus>
<clus scale="   36.760">  2  3  1 -1</clus>
</clustering>
</event>
<event>
 6    0  0.6525019E+002  0.1388717E+03  0.7546771E-02  0.1214855E+00
          2   -1    0    0  505    0 -0.00000000000E+00  0.00000000000E+00  0.33061880963E+03  0.33061880963E+03  0.00000000000E+00 0. -1.
         21   -1    0    0  504  502  0.00000000000E+00 -0.00000000000E+00 -0.50101555992E+03  0.50101555992E+03  0.00000000000E+00 0.  1.
         21    1    1    2  503  502 -0.85441874251E+02  0.62022350783E+02 -0.39571078720E+03  0.40955355325E+03  0.00000000000E+00 0.  1.
         21    1    1    2  504  501 -0.45737417499E+02  0.21904501750E+01 -0.60828034429E+02  0.76136451217E+02  0.00000000000E+00 0.  1.
         21    1    1    2  505  503  0.46572964570E+02 -0.44870549893E+02  0.22643962634E+02  0.68521210733E+02  0.00000000000E+00 0.  1.
          2    1    1    2  501    0  0.84606327180E+02 -0.19342251065E+02  0.26349810870E+03  0.27742315434E+03  0.00000000000E+00 0. -1.
<scales pt_clust_3="138.87171" pt_clust_4="45.78984" pt_clust_5="62.86449" pt_clust_6="14000.00000"></scales>
<clustering>
<clus scale="   45.790">  2  4  1 -1</clus>
<clus scale="   62.864">  1  5  2 -1</clus>
<clus scale="  138.872">  2  3  1 -1</clus>
<clus scale="   45.790">  2  3  1 -1</clus>
</clustering>
</event>
<event>
 6    0  0.6525019E+002  0.8580830E+02  0.7546771E-02  0.1313332E+00
          2   -1    0    0  505    0 -0.00000000000E+00  0.00000000000E+00  0.82124613235E+03  0.82124613235E+03  0.00000000000E+00 0. -1.
         21   -1    0    0  503  502  0.00000000000E+00 -0.00000000000E+00 -0.39028049932E+03  0.39028049932E+03  0.00000000000E+00 0. -1.
         21    1    1    2  503  501 -0.11912989059E+03  0.82199722315E+02 -0.29215865822E+03  0.32604509926E+03  0.00000000000E+00 0. -1.
         21    1    1    2  504  502  0.53251709003E+02 -0.29691241586E+02 -0.55123584659E+02  0.82194427575E+02  0.00000000000E+00 0. -1.
         21    1    1    2  505  504  0.15918013125E+01 -0.39993068797E+02  0.24986165917E+02  0.47183555085E+02  0.00000000000E+00 0.  1.
          2    1    1    2  501    0  0.64286380274E+02 -0.12515411932E+02  0.75326170999E+03  0.75610354976E+03  0.00000000000E+00 0. -1.
<scales pt_clust_3="14000.00000" pt_clust_4="61.33232" pt_clust_5="40.02473" pt_clust_6="85.80830"></scales>
<clustering>
<clus scale="   40.025">  1  5  2 -1</clus>
<clus scale="   61.332">  2  4  1 -1</clus>
<clus scale="   85.808">  1  6  2 -1</clus>
<clus scale="   61.332">  2  3  1 -1</clus>
</clustering>
</event>
<event>
 6    0  0.6525019E+002  0.2143959E+03  0.7546771E-02  0.1138131E+00
          2   -1    0    0  504    0 -0.00000000000E+00  0.00000000000E+00  0.26876514718E+04  0.26876514718E+04  0.00000000000E+00 0. -1.
         21   -1    0    0  503  502  0.00000000000E+00 -0.00000000000E+00 -0.64476416339E+02  0.64476416339E+02  0.00000000000E+00 0. -1.
         21    1    1    2  503  501  0.72303294569E+02 -0.17752641154E+03  0.53207130802E+03  0.56554687694E+03  0.00000000000E+00 0. -1.
         21    1    1    2  504  505 -0.76327650227E+02  0.22934628412E+03  0.60614724396E+03  0.65256425706E+03  0.00000000000E+00 0. -1.
         21    1    1    2  505  502 -0.46119856817E+02 -0.88904974175E+01 -0.62135700153E+00  0.46973058466E+02  0.00000000000E+00 0. -1.
          2    1    1    2  501    0  0.50144212474E+02 -0.42929375161E+02  0.14855778605E+04  0.14870436957E+04  0.00000000000E+00 0. -1.
<scales pt_clust_3="14000.00000" pt_clust_4="214.39594" pt_clust_5="46.96895" pt_clust_6="65.48670"></scales>
<clustering>
<clus scale="   46.969">  2  5  1 -1</clus>
<clus scale="   65.487">  1  6  2 -1</clus>
<clus scale="  214.396">  1  4  2 -1</clus>
<clus scale="   46.969">  2  3  1 -1</clus>
</clustering>
</event>
<event>
 6    0  0.6525019E+002  0.7316903E+02  0.7546771E-02  0.1349637E+00
          1   -1    0    0  504    0 -0.00000000000E+00  0.00000000000E+00  0.10415886016E+04  0.10415886016E+04  0.00000000000E+00 0.  1.
         21   -1    0    0  505  502  0.00000000000E+00 -0.00000000000E+00 -0.31130428685E+03  0.31130428685E+03  0.00000000000E+00 0. -1.
         21    1    1    2  503  501  0.45284560792E+02  0.42701449104E+02 -0.24731281157E+02  0.66975678193E+02  0.00000000000E+00 0. -1.
         21    1    1    2  504  502 -0.13935798049E+02 -0.49612459101E+02  0.17324163828E+01  0.51561650787E+02  0.00000000000E+00 0. -1.
         21    1    1    2  505  503 -0.84941568016E+02  0.15780293294E+02 -0.23200606612E+03  0.24756999485E+03  0.00000000000E+00 0. -1.
          1    1    1    2  501    0  0.53592805273E+02 -0.88692832967E+01  0.98528924569E+03  0.98678556467E+03  0.00000000000E+00 0.  1.
<scales pt_clust_3="14000.00000" pt_clust_4="51.53254" pt_clust_5="73.16903" pt_clust_6="54.30716"></scales>
<clustering>
<clus scale="   51.533">  2  4  1 -1</clus>
<clus scale="   54.307">  1  6  2 -1</clus>
<clus scale="   73.169">  2  5  1 -1</clus>
<clus scale="   51.533">  2  3  1 -1</clus>
</clustering>
</event>
<event>
 6    0  0.6525019E+002  0.1439390E+03  0.7546771E-02  0.1208125E+00
          2   -1    0    0  505    0 -0.00000000000E+00  0.00000000000E+00  0.11356763081E+04  0.11356763081E+04  0.00000000000E+00 0. -1.
         21   -1    0    0  504  502  0.00000000000E+00 -0.00000000000E+00 -0.23314517992E+03  0.23314517992E+03  0.00000000000E+00 0. -1.
         21    1    1    2  503  502 -0.16238745989E+02  0.27954473588E+02 -0.10189060554E+03  0.10689642165E+03  0.00000000000E+00 0. -1.
         21    1    1    2  504  501 -0.86455266930E+02  0.97234436078E+02  0.30684031629E+03  0.33328670607E+03  0.00000000000E+00 0. -1.
         21    1    1    2  505  503  0.86530901350E+02 -0.15188749115E+03 -0.48889952324E+02  0.18151483216E+03  0.00000000000E+00 0. -1.
          2    1    1    2  501    0  0.16163111569E+02  0.26698581484E+02  0.74647136971E+03  0.74712352809E+03  0.00000000000E+00 0. -1.
<scales pt_clust_3="32.42558" pt_clust_4="143.93901" pt_clust_5="14000.00000" pt_clust_6="31.20994"></scales>
<clustering>
<clus scale="   31.210">  1  6  2 -1</clus>
<clus scale="   32.426">  2  3  1 -1</clus>
<clus scale="  143.939">  1  4  2 -1</clus>
<clus scale="   32.426">  2  3  1 -1</clus>
</clustering>
</event>
<event>
 6    0  0.6525019E+002  0.2129748E+03  0.7546771E-02  0.1139232E+00
         21   -1    0    0  501  502  0.00000000000E+00  0.00000000000E+00  0.33467270526E+02  0.33467270526E+02  0.00000000000E+00 0.  1.
          2   -1    0    0  505    0 -0.00000000000E+00 -0.00000000000E+00 -0.37855703742E+04  0.37855703742E+04  0.00000000000E+00 0.  1.
         21    1    1    2  503  504  0.16664287848E+03  0.10359020751E+03 -0.65489888376E+03  0.68366170581E+03  0.00000000000E+00 0.  1.
         21    1    1    2  504  502 -0.37897310903E+02  0.46204089413E+02 -0.16970547436E+03  0.17991934882E+03  0.00000000000E+00 0.  1.
         21    1    1    2  505  503 -0.21538044564E+03 -0.11571701230E+03 -0.11589608409E+04  0.11844700900E+04  0.00000000000E+00 0.  1.
          2    1    1    2  501    0  0.86634878065E+02 -0.34077284624E+02 -0.17685379047E+04  0.17709865001E+04  0.00000000000E+00 0.  1.
<scales pt_clust_3="14000.00000" pt_clust_4="59.75805" pt_clust_5="212.97479" pt_clust_6="90.85212"></scales>
<clustering>
<clus scale="   59.758">  1  4  2 -1</clus>
<clus scale="   90.852">  2  6  1 -1</clus>
<clus scale="  212.975">  2  5  1 -1</clus>
<clus scale="   59.758">  1  3  2 -1</clus>
</clustering>
</event>
<event>
 6    0  0.6905018E+002  0.8025495E+02  0.7546771E-02  0.1328329E+00
         21   -1    0    0  504  502  0.00000000000E+00  0.00000000000E+00  0.29225306955E+03  0.29225306955E+03  0.00000000000E+00 0. -1.
          2   -1    0    0  505    0 -0.00000000000E+00 -0.00000000000E+00 -0.16253678534E+04  0.16253678534E+04  0.00000000000E+00 0.  1.
         21    1    1    2  503  502 -0.30878058357E+02 -0.47265591524E+02 -0.38520752140E+02  0.68347194350E+02  0.00000000000E+00 0.  1.
         21    1    1    2  504  501  0.11211629757E+03  0.51667735117E+02  0.26147882887E+03  0.28915531636E+03  0.00000000000E+00 0. -1.
         21    1    1    2  505  503 -0.31954119911E+02  0.60786323547E+01 -0.16734981602E+03  0.17048160157E+03  0.00000000000E+00 0.  1.
          2    1    1    2  501    0 -0.49284119304E+02 -0.10480775947E+02 -0.13887230445E+04  0.13896368106E+04  0.00000000000E+00 0.  1.
<scales pt_clust_3="56.92303" pt_clust_4="80.25495" pt_clust_5="32.52715" pt_clust_6="14000.00000"></scales>
<clustering>
<clus scale="   32.527">  2  5  1 -1</clus>
<clus scale="   56.923">  1  3  2 -1</clus>
<clus scale="   80.255">  1  4  2 -1</clus>
<clus scale="   56.923">  1  3  2 -1</clus>
</clustering>
</event>
<event>
 6    0  0.6525019E+002  0.7718838E+02  0.7546771E-02  0.1337225E+00
         21   -1    0    0  505  502  0.00000000000E+00  0.00000000000E+00  0.68312506649E+03  0.68312506649E+03  0.00000000000E+00 0. -1.
          2   -1    0    0  503    0 -0.00000000000E+00 -0.00000000000E+00 -0.15667106899E+04  0.15667106899E+04  0.00000000000E+00 0. -1.
         21    1    1    2  503  502  0.81324270875E+02 -0.41628609995E+02 -0.13501865667E+03  0.16302335984E+03  0.00000000000E+00 0.  1.
         21    1    1    2  504  501 -0.60879503977E+01  0.81028908880E+02 -0.19712064602E+03  0.21321185779E+03  0.00000000000E+00 0.  1.
         21    1    1    2  505  504 -0.41087160070E+02 -0.39424833899E+02  0.65960976899E+03  0.66206307826E+03  0.00000000000E+00 0. -1.
          2    1    1    2  501    0 -0.34149160407E+02  0.24535014054E-01 -0.12110560897E+04  0.12115374605E+04  0.00000000000E+00 0. -1.
<scales pt_clust_3="77.18838" pt_clust_4="14000.00000" pt_clust_5="57.02775" pt_clust_6="34.14917"></scales>
<clustering>
<clus scale="   34.149">  2  6  1 -1</clus>
<clus scale="   57.028">  1  5  2 -1</clus>
<clus scale="   77.188">  1  3  2 -1</clus>
<clus scale="   57.028">  1  3  2 -1</clus>
</clustering>
</event>
<event>
 6    0  0.6525019E+002  0.1733000E+03  0.7546771E-02  0.1174450E+00
          2   -1    0    0  505    0 -0.00000000000E+00  0.00000000000E+00  0.18763683323E+04  0.18763683323E+04  0.00000000000E+00 0. -1.
         21   -1    0    0  503  502  0.00000000000E+00 -0.00000000000E+00 -0.29042642807E+03  0.29042642807E+03  0.00000000000E+00 0.  1.
         21    1    1    2  503  501  0.20910527194E+02 -0.36244427221E+02 -0.19750440957E+03  0.20188833659E+03  0.00000000000E+00 0.  1.
         21    1    1    2  504  502 -0.40634634350E+02 -0.31562244677E+02 -0.64745372811E+02  0.82700133605E+02  0.00000000000E+00 0.  1.
         21    1    1    2  505  504  0.10863841989E+03 -0.10522295923E+03  0.59064027132E+03  0.60969673407E+03  0.00000000000E+00 0. -1.
          2    1    1    2  501    0 -0.88914312739E+02  0.17302963113E+03  0.12575514153E+04  0.12725095561E+04  0.00000000000E+00 0. -1.
<scales pt_clust_3="41.84386" pt_clust_4="65.43374" pt_clust_5="14000.00000" pt_clust_6="173.30000"></scales>
<clustering>
<clus scale="   41.844">  2  3  1 -1</clus>
<clus scale="   65.434">  2  4  1 -1</clus>
<clus scale="  173.300">  1  6  2 -1</clus>
<clus scale="   41.844">  2  3  1 -1</clus>
</clustering>
</event>
<event>
 6    0  0.6525019E+002  0.1708734E+03  0.7546771E-02  0.1176940E+00
          2   -1    0    0  504    0 -0.00000000000E+00  0.00000000000E+00  0.44662781461E+04  0.44662781461E+04  0.00000000000E+00 0. -1.
         21   -1    0    0  505  502  0.00000000000E+00 -0.00000000000E+00 -0.12289201179E+02  0.12289201179E+02  0.00000000000E+00 0.  1.
         21    1    1    2  503  501 -0.10271196090E+03 -0.12336283273E+03  0.15777138673E+04  0.15858591308E+04  0.00000000000E+00 0.  1.
         21    1    1    2  504  502  0.64799360723E+02  0.12787130350E+03  0.83624525938E+03  0.84844337539E+03  0.00000000000E+00 0. -1.
         21    1    1    2  505  503 -0.45083225214E+01 -0.42022142138E+02  0.26643283768E+03  0.26976404948E+03  0.00000000000E+00 0.  1.
          2    1    1    2  501    0  0.42420922702E+02  0.37513671359E+02  0.17735969805E+04  0.17745007916E+04  0.00000000000E+00 0. -1.
<scales pt_clust_3="30.83763" pt_clust_4="159.95560" pt_clust_5="30.83763" pt_clust_6="56.62870"></scales>
<clustering>
<clus scale="   30.838">  3  5 -1 -1</clus>
<clus scale="   56.629">  1  6  2 -1</clus>
<clus scale="  159.956">  2  4  1 -1</clus>
<clus scale="  159.956">  2  3  1 -1</clus>
</clustering>
</event>
<event>
 6    0  0.6525019E+002  0.8288649E+02  0.7546771E-02  0.1321054E+00
         21   -1    0    0  503  502  0.00000000000E+00  0.00000000000E+00  0.13416141447E+03  0.13416141447E+03  0.00000000000E+00 0.  1.
          2   -1    0    0  505    0 -0.00000000000E+00 -0.00000000000E+00 -0.13329257836E+04  0.13329257836E+04  0.00000000000E+00 0.  1.
         21    1    1    2  503  504  0.44110841429E+02  0.66054392031E+01  0.66003155145E+02  0.79660621688E+02  0.00000000000E+00 0.  1.
         21    1    1    2  504  501 -0.12054284393E+03 -0.18337982921E+02 -0.13714279426E+03  0.18350750627E+03  0.00000000000E+00 0.  1.
         21    1    1    2  505  502 -0.24615615643E+01  0.30038410009E+02  0.30550816455E+02  0.42915239103E+02  0.00000000000E+00 0.  1.
          2    1    1    2  501    0  0.78893564066E+02 -0.18305866291E+02 -0.11581755465E+04  0.11610038310E+04  0.00000000000E+00 0.  1.
<scales pt_clust_3="51.29642" pt_clust_4="14000.00000" pt_clust_5="30.13910" pt_clust_6="82.88649"></scales>
<clustering>
<clus scale="   30.139">  1  5  2 -1</clus>
<clus scale="   51.296">  1  3  2 -1</clus>
<clus scale="   82.886">  2  6  1 -1</clus>
<clus scale="   30.139">  1  3  2 -1</clus>
</clustering>
</event>
<event>
 6    0  0.6525019E+002  0.9861708E+02  0.7546771E-02  0.1283231E+00
          2   -1    0    0  505    0 -0.00000000000E+00  0.00000000000E+00  0.16691809352E+04  0.16691809352E+04  0.00000000000E+00 0. -1.
         21   -1    0    0  504  502  0.00000000000E+00 -0.00000000000E+00 -0.56988337576E+02  0.56988337576E+02  0.00000000000E+00 0. -1.
         21    1    1    2  503  501 -0.31646104625E+02 -0.32727129524E+02  0.68863050728E+03  0.69013369466E+03  0.00000000000E+00 0. -1.
         21    1    1    2  504  503  0.65754922218E+02  0.95955044153E+02  0.34847312912E+02  0.12143070251E+03  0.00000000000E+00 0. -1.
         21    1    1    2  505  502 -0.64496026382E+02 -0.41014613058E+02  0.10440395578E+03  0.12939135166E+03  0.00000000000E+00 0. -1.
          2    1    1    2  501    0  0.30387208789E+02 -0.22213301570E+02  0.78431082163E+03  0.78521352392E+03  0.00000000000E+00 0. -1.
<scales pt_clust_3="50.67098" pt_clust_4="98.61708" pt_clust_5="14000.00000" pt_clust_6="37.64058"></scales>
<clustering>
<clus scale="   37.641">  1  6  2 -1</clus>
<clus scale="   50.671">  1  3  2 -1</clus>
<clus scale="   98.617">  2  4  1 -1</clus>
<clus scale="   98.617">  2  3  1 -1</clus>
</clustering>
</event>
<event>
 6    0  0.6525019E+002  0.1830170E+03  0.7546771E-02  0.1164915E+00
          1   -1    0    0  505    0 -0.00000000000E+00  0.00000000000E+00  0.23173216091E+03  0.23173216091E+03  0.00000000000E+00 0. -1.
         21   -1    0    0  504  502  0.00000000000E+00 -0.00000000000E+00 -0.28537914796E+03  0.28537914796E+03  0.00000000000E+00 0. -1.
         21    1    1    2  503  502 -0.11163215497E+03  0.11781204787E+03 -0.27650304812E+02  0.16463886541E+03  0.00000000000E+00 0. -1.
         21    1    1    2  504  501  0.16533395548E+02 -0.11593260603E+03 -0.60943849681E+02  0.13201467768E+03  0.00000000000E+00 0. -1.
         21    1    1    2  505  503 -0.31111331175E+02  0.65773648019E+02  0.24914383171E+02  0.76907829185E+02  0.00000000000E+00 0. -1.
          1    1    1    2  501    0  0.12621009060E+03 -0.67653089853E+02  0.10032784280E+02  0.14354993659E+03  0.00000000000E+00 0. -1.
<scales pt_clust_3="43.69042" pt_clust_4="117.10560" pt_clust_5="43.69042" pt_clust_6="170.98920"></scales>
<clustering>
<clus scale="   43.690">  3  5 -1 -1</clus>
<clus scale="  117.106">  2  4  1 -1</clus>
<clus scale="  170.989">  1  6  2 -1</clus>
<clus scale="  117.106">  2  3  1 -1</clus>
</clustering>
</event>
<event>
 6    0  0.6525019E+002  0.1022416E+03  0.7546771E-02  0.1275652E+00
          2   -1    0    0  502    0 -0.00000000000E+00  0.00000000000E+00  0.14313475202E+04  0.14313475202E+04  0.00000000000E+00 0. -1.
         21   -1    0    0  503  502  0.00000000000E+00 -0.00000000000E+00 -0.34327052514E+03  0.34327052514E+03  0.00000000000E+00 0. -1.
         21    1    1    2  503  504 -0.77316416214E+02 -0.48237637090E+02 -0.24227132764E+03  0.25884376378E+03  0.00000000000E+00 0. -1.
         21    1    1    2  504  505  0.11662401968E+03  0.33128852915E+02  0.26416099158E+02  0.12408260618E+03  0.00000000000E+00 0. -1.
         21    1    1    2  505  501 -0.10588202233E+03  0.90385981046E+02  0.73998107858E+02  0.15765896165E+03  0.00000000000E+00 0. -1.
          2    1    1    2  501    0  0.66574418868E+02 -0.75277196872E+02  0.12299341157E+04  0.12340327138E+04  0.00000000000E+00 0. -1.
<scales pt_clust_3="91.13011" pt_clust_4="76.29210" pt_clust_5="102.24159" pt_clust_6="14000.00000"></scales>
<clustering>
<clus scale="   91.130">  2  3  1 -1</clus>
<clus scale="   76.292">  2  4  1 -1</clus>
<clus scale="  102.242">  2  5  1 -1</clus>
<clus scale="   91.130">  2  3  1 -1</clus>
</clustering>
</event>
<event>
 6    0  0.6525019E+002  0.2179830E+03  0.7546771E-02  0.1135396E+00
         21   -1    0    0  505  502  0.00000000000E+00  0.00000000000E+00  0.62315112762E+03  0.62315112762E+03  0.00000000000E+00 0.  1.
          2   -1    0    0  504    0 -0.00000000000E+00 -0.00000000000E+00 -0.17318009972E+04  0.17318009972E+04  0.00000000000E+00 0.  1.
         21    1    1    2  503  502  0.55560964840E+02 -0.18564773541E+03 -0.83514245939E+02  0.21101358191E+03  0.00000000000E+00 0.  1.
         21    1    1    2  504  503 -0.44708979551E+02  0.25645200025E+03 -0.65548376031E+03  0.70528397211E+03  0.00000000000E+00 0.  1.
         21    1    1    2  505  501 -0.18564434990E+02 -0.25693996830E+02  0.53345145183E+03  0.53439243181E+03  0.00000000000E+00 0.  1.
          2    1    1    2  501    0  0.77124497016E+01 -0.45110268010E+02 -0.90310331521E+03  0.90426213904E+03  0.00000000000E+00 0.  1.
<scales pt_clust_3="217.98302" pt_clust_4="14000.00000" pt_clust_5="31.69889" pt_clust_6="45.90919"></scales>
<clustering>
<clus scale="   31.699">  1  5  2 -1</clus>
<clus scale="   45.909">  2  6  1 -1</clus>
<clus scale="  217.983">  1  3  2 -1</clus>
<clus scale="   31.699">  1  3  2 -1</clus>
</clustering>
</event>
<event>
 6    0  0.6525019E+002  0.9656603E+02  0.7546771E-02  0.1287687E+00
         21   -1    0    0  503  502  0.00000000000E+00  0.00000000000E+00  0.87908805793E+02  0.87908805793E+02  0.00000000000E+00 0.  1.
          2   -1    0    0  504    0 -0.00000000000E+00 -0.00000000000E+00 -0.24335356407E+04  0.24335356407E+04  0.00000000000E+00 0. -1.
         21    1    1    2  503  501 -0.15470383134E+02  0.84599726388E+02 -0.22851546902E+03  0.24416340029E+03  0.00000000000E+00 0.  1.
         21    1    1    2  504  505  0.10033738889E+03 -0.41209171712E+02 -0.43050683387E+02  0.11670110874E+03  0.00000000000E+00 0.  1.
         21    1    1    2  505  502 -0.30280845133E+02 -0.44786580105E+02  0.25874156098E+02  0.59935292551E+02  0.00000000000E+00 0.  1.
          2    1    1    2  501    0 -0.54586160622E+02  0.13960254294E+01 -0.20999348386E+04  0.21006446449E+04  0.00000000000E+00 0. -1.
<scales pt_clust_3="96.56603" pt_clust_4="14000.00000" pt_clust_5="54.06262" pt_clust_6="54.83487"></scales>
<clustering>
<clus scale="   54.063">  1  5  2 -1</clus>
<clus scale="   54.835">  2  6  1 -1</clus>
<clus scale="   96.566">  2  3  1 -1</clus>
<clus scale="   54.063">  1  3  2 -1</clus>
</clustering>
</event>
<event>
 6    0  0.6525019E+002  0.9024385E+02  0.7546771E-02  0.1302262E+00
          2   -1    0    0  504    0 -0.00000000000E+00  0.00000000000E+00  0.22850194888E+04  0.22850194888E+04  0.00000000000E+00 0. -1.
         21   -1    0    0  501  502  0.00000000000E+00 -0.00000000000E+00 -0.18439664811E+03  0.18439664811E+03  0.00000000000E+00 0.  1.
         21    1    1    2  503  502 -0.83162372197E+02  0.49937787304E+02 -0.12927375895E+03  0.16162137081E+03  0.00000000000E+00 0.  1.
         21    1    1    2  504  505 -0.23144029730E+02 -0.12618831740E+03  0.13534185613E+04  0.13594855423E+04  0.00000000000E+00 0. -1.
         21    1    1    2  505  503  0.88542830648E+02  0.39316343981E+02  0.30827065289E+02  0.10166570571E+03  0.00000000000E+00 0.  1.
          2    1    1    2  501    0  0.17763571279E+02  0.36934186118E+02  0.84565097300E+03  0.84664351808E+03  0.00000000000E+00 0. -1.
<scales pt_clust_3="14000.00000" pt_clust_4="91.59349" pt_clust_5="90.24385" pt_clust_6="40.98388"></scales>
<clustering>
<clus scale="   40.984">  1  6  2 -1</clus>
<clus scale="   91.593">  1  4  2 -1</clus>
<clus scale="   90.244">  1  5  2 -1</clus>
<clus scale="   90.244">  2  3  1 -1</clus>
</clustering>
</event>
<event>
 6    0  0.6525019E+002  0.1054375E+03  0.7546771E-02  0.1269260E+00
         21   -1    0    0  503  502  0.00000000000E+00  0.00000000000E+00  0.23544640844E+03  0.23544640844E+03  0.00000000000E+00 0. -1.
         -1   -1    0    0    0  501 -0.00000000000E+00 -0.00000000000E+00 -0.29238369755E+03  0.29238369755E+03  0.00000000000E+00 0. -1.
         21    1    1    2  503  505  0.14215595079E+01  0.36326011581E+02  0.48173551553E+02  0.60351396157E+02  0.00000000000E+00 0. -1.
         21    1    1    2  504  501 -0.48092476173E+02 -0.43699974485E+02 -0.26724624633E+02  0.70262220262E+02  0.00000000000E+00 0.  1.
         21    1    1    2  505  504  0.11311175972E+02 -0.12833930355E+03  0.10510269477E+03  0.16626934770E+03  0.00000000000E+00 0. -1.
         -1    1    1    2    0  502  0.35359740694E+02  0.13571326645E+03 -0.18348891080E+03  0.23094714187E+03  0.00000000000E+00 0. -1.
<scales pt_clust_3="36.35382" pt_clust_4="61.99813" pt_clust_5="14000.00000" pt_clust_6="105.43751"></scales>
<clustering>
<clus scale="   36.354">  1  3  2 -1</clus>
<clus scale="   61.998">  2  4  1 -1</clus>
<clus scale="  105.438">  2  6  1 -1</clus>
<clus scale="   36.354">  1  3  2 -1</clus>
</clustering>
</event>
<event>
 6    0  0.6525019E+002  0.1051783E+03  0.7546771E-02  0.1269769E+00
         21   -1    0    0  503  502  0.00000000000E+00  0.00000000000E+00  0.14279504966E+04  0.14279504966E+04  0.00000000000E+00 0. -1.
          1   -1    0    0  505    0 -0.00000000000E+00 -0.00000000000E+00 -0.13687910192E+04  0.13687910192E+04  0.00000000000E+00 0. -1.
         21    1    1    2  503  501 -0.56169854268E+02 -0.80679983921E+01 -0.27118604257E+02  0.62893273276E+02  0.00000000000E+00 0. -1.
         21    1    1    2  504  502 -0.40086833029E+02 -0.11721516944E+02  0.11874065100E+04  0.11881408031E+04  0.00000000000E+00 0. -1.
         21    1    1    2  505  504 -0.13598093878E+02  0.41647907872E+02  0.21773358049E+03  0.22209765523E+03  0.00000000000E+00 0. -1.
          1    1    1    2  501    0  0.10985478117E+03 -0.21858392536E+02 -0.13188620088E+04  0.13236097841E+04  0.00000000000E+00 0. -1.
<scales pt_clust_3="105.17830" pt_clust_4="41.76539" pt_clust_5="59.04375" pt_clust_6="14000.00000"></scales>
<clustering>
<clus scale="   41.765">  1  4  2 -1</clus>
<clus scale="   59.044">  1  5  2 -1</clus>
<clus scale="  105.178">  1  3  2 -1</clus>
<clus scale="   41.765">  1  3  2 -1</clus>
</clustering>
</event>
<event>
 6    0  0.6525019E+002  0.7227738E+02  0.7546771E-02  0.1352516E+00
          2   -1    0    0  504    0 -0.00000000000E+00  0.00000000000E+00  0.31099832536E+04  0.31099832536E+04  0.00000000000E+00 0. -1.
         21   -1    0    0  505  502  0.00000000000E+00 -0.00000000000E+00 -0.28994300359E+03  0.28994300359E+03  0.00000000000E+00 0.  1.
         21    1    1    2  503  502  0.31448638169E+02 -0.89451356930E+02 -0.23281375933E+03  0.25138179853E+03  0.00000000000E+00 0.  1.
         21    1    1    2  504  503 -0.97212282352E+02  0.36259363581E+02  0.55670008100E+02  0.11774599394E+03  0.00000000000E+00 0. -1.
         21    1    1    2  505  501 -0.38152460201E+01  0.34275335862E+02  0.17865176358E+01  0.34533265063E+02  0.00000000000E+00 0. -1.
          2    1    1    2  501    0  0.69578890203E+02  0.18916657487E+02  0.29953974836E+04  0.29962651997E+04  0.00000000000E+00 0. -1.
<scales pt_clust_3="65.44557" pt_clust_4="14000.00000" pt_clust_5="34.48702" pt_clust_6="72.27738"></scales>
<clustering>
<clus scale="   34.487">  2  5  1 -1</clus>
<clus scale="   65.446">  2  3  1 -1</clus>
<clus scale="   72.277">  1  6  2 -1</clus>
<clus scale="   34.487">  2  3  1 -1</clus>
</clustering>
</event>
<event>
 6    0  0.6525019E+002  0.1404534E+03  0.7546771E-02  0.1212720E+00
         -2   -1    0    0    0  501 -0.00000000000E+00  0.00000000000E+00  0.55230059808E+02  0.55230059808E+02  0.00000000000E+00 0.  1.
         21   -1    0    0  503  502  0.00000000000E+00 -0.00000000000E+00 -0.77198646183E+03  0.77198646183E+03  0.00000000000E+00 0.  1.
         21    1    1    2  503  501  0.98922422060E+01 -0.43561059614E+02 -0.19970935742E+03  0.20464420298E+03  0.00000000000E+00 0.  1.
         21    1    1    2  504  505 -0.44953530403E+02 -0.66302891424E+02 -0.70723143322E+02  0.10685811297E+03  0.00000000000E+00 0.  1.
         21    1    1    2  505  502  0.49924858743E+02  0.15538270262E+03 -0.43759737606E+03  0.46704147495E+03  0.00000000000E+00 0.  1.
         -2    1    1    2    0  504 -0.14863570546E+02 -0.45518751583E+02 -0.87265252263E+01  0.48672730738E+02  0.00000000000E+00 0.  1.
<scales pt_clust_3="44.67015" pt_clust_4="32.76033" pt_clust_5="133.90943" pt_clust_6="32.76033"></scales>
<clustering>
<clus scale="   32.760">  4  6 -1 -1</clus>
<clus scale="   44.670">  2  3  1 -1</clus>
<clus scale="  133.909">  2  5  1 -1</clus>
<clus scale="   44.670">  2  3  1 -1</clus>
</clustering>
</event>
<event>
 6    0  0.6525019E+002  0.9361349E+02  0.7546771E-02  0.1294330E+00
         -1   -1    0    0    0  501 -0.00000000000E+00  0.00000000000E+00  0.11854685260E+03  0.11854685260E+03  0.00000000000E+00 0.  1.
         21   -1    0    0  503  502  0.00000000000E+00 -0.00000000000E+00 -0.49858702290E+03  0.49858702290E+03  0.00000000000E+00 0.  1.
         21    1    1    2  503  501  0.11589980516E+03  0.38254184383E+02 -0.24906414390E+03  0.27736094757E+03  0.00000000000E+00 0.  1.
         21    1    1    2  504  505 -0.46937428230E+02  0.72220601149E+01 -0.74868617547E+02  0.88659969628E+02  0.00000000000E+00 0.  1.
         21    1    1    2  505  502 -0.20612064868E+02  0.34498841518E+02 -0.12738823624E+03  0.13357690675E+03  0.00000000000E+00 0.  1.
         -1    1    1    2    0  504 -0.48350312064E+02 -0.79975086016E+02  0.71280827394E+02  0.11753605155E+03  0.00000000000E+00 0.  1.
<scales pt_clust_3="14000.00000" pt_clust_4="53.62318" pt_clust_5="40.18740" pt_clust_6="93.61349"></scales>
<clustering>
<clus scale="   40.187">  2  5  1 -1</clus>
<clus scale="   53.623">  2  4  1 -1</clus>
<clus scale="   93.613">  1  6  2 -1</clus>
<clus scale="   40.187">  2  3  1 -1</clus>
</clustering>
</event>
<event>
 6    0  0.6525019E+002  0.1321388E+03  0.7546771E-02  0.1224316E+00
          2   -1    0    0  504    0 -0.00000000000E+00  0.00000000000E+00  0.16518431568E+04  0.16518431568E+04  0.00000000000E+00 0.  1.
         21   -1    0    0  505  502  0.00000000000E+00 -0.00000000000E+00 -0.57387832349E+03  0.57387832349E+03  0.00000000000E+00 0. -1.
         21    1    1    2  503  501 -0.15446993253E+03  0.63772768520E+02  0.55089408819E+02  0.17596240799E+03  0.00000000000E+00 0.  1.
         21    1    1    2  504  502  0.16455123411E+03  0.18793650404E+02 -0.45802920949E+03  0.48705345363E+03  0.00000000000E+00 0. -1.
         21    1    1    2  505  503 -0.41926073618E+02  0.17626434818E+01 -0.28426589450E+02  0.50685042654E+02  0.00000000000E+00 0.  1.
          2    1    1    2  501    0  0.31844772032E+02 -0.84329062406E+02  0.15093312235E+04  0.15120205761E+04  0.00000000000E+00 0.  1.
<scales pt_clust_3="14000.00000" pt_clust_4="132.13881" pt_clust_5="41.96311" pt_clust_6="90.10007"></scales>
<clustering>
<clus scale="   41.963">  2  5  1 -1</clus>
<clus scale="   90.100">  1  6  2 -1</clus>
<clus scale="  132.139">  2  4  1 -1</clus>
<clus scale="   41.963">  2  3  1 -1</clus>
</clustering>
</event>
<event>
 6    0  0.6525019E+002  0.9342659E+02  0.7546771E-02  0.1294760E+00
         21   -1    0    0  503  502  0.00000000000E+00  0.00000000000E+00  0.15849505290E+03  0.15849505290E+03  0.00000000000E+00 0. -1.
          1   -1    0    0  504    0 -0.00000000000E+00 -0.00000000000E+00 -0.15035731447E+04  0.15035731447E+04  0.00000000000E+00 0. -1.
         21    1    1    2  503  501 -0.51464721993E+02 -0.24229077707E+02 -0.19192708037E+03  0.20017909480E+03  0.00000000000E+00 0.  1.
         21    1    1    2  504  505  0.10563489632E+03 -0.89748754670E+02 -0.11553854414E+04  0.11636705240E+04  0.00000000000E+00 0. -1.
         21    1    1    2  505  502 -0.41783708321E+02  0.83077776670E+02  0.13355656874E+03  0.16274259525E+03  0.00000000000E+00 0. -1.
          1    1    1    2  501    0 -0.12386466007E+02  0.30900055706E+02 -0.13132213881E+03  0.13547598357E+03  0.00000000000E+00 0. -1.
<scales pt_clust_3="56.80255" pt_clust_4="14000.00000" pt_clust_5="93.42659" pt_clust_6="33.29021"></scales>
<clustering>
<clus scale="   33.290">  2  6  1 -1</clus>
<clus scale="   56.803">  2  3  1 -1</clus>
<clus scale="   93.427">  1  5  2 -1</clus>
<clus scale="   93.427">  1  3  2 -1</clus>
</clustering>
</event>
<event>
 6    0  0.6525019E+002  0.1514823E+03  0.7546771E-02  0.1198663E+00
         21   -1    0    0  501  502  0.00000000000E+00  0.00000000000E+00  0.84327549524E+03  0.84327549524E+03  0.00000000000E+00 0.  1.
         -2   -1    0    0    0  501 -0.00000000000E+00 -0.00000000000E+00 -0.93033417860E+03  0.93033417860E+03  0.00000000000E+00 0. -1.
         21    1    1    2  503  502 -0.13687488614E+03  0.30939045043E+02  0.79481287404E+03  0.80710560877E+03  0.00000000000E+00 0.  1.
         21    1    1    2  504  503  0.11889099076E+03 -0.17971268278E+01 -0.74522123442E+02  0.14032763174E+03  0.00000000000E+00 0. -1.
         21    1    1    2  505  504  0.50004091272E+02 -0.23390069054E+02 -0.75111228813E+02  0.93215884741E+02  0.00000000000E+00 0.  1.
         -2    1    1    2    0  505 -0.32020195895E+02 -0.57518491616E+01 -0.73223820515E+03  0.73296054859E+03  0.00000000000E+00 0. -1.
<scales pt_clust_3="141.25999" pt_clust_4="36.24879" pt_clust_5="36.24879" pt_clust_6="32.53270"></scales>
<clustering>
<clus scale="   32.533">  2  6  1 -1</clus>
<clus scale="   36.249">  4  5 -1 -1</clus>
<clus scale="  141.260">  1  3  2 -1</clus>
<clus scale="  141.260">  1  3  2 -1</clus>
</clustering>
</event>
<event>
 6    0  0.6525019E+002  0.1522086E+03  0.7546771E-02  0.1197785E+00
          2   -1    0    0  504    0 -0.00000000000E+00  0.00000000000E+00  0.26116696033E+03  0.26116696033E+03  0.00000000000E+00 0.  1.
         21   -1    0    0  505  502  0.00000000000E+00 -0.00000000000E+00 -0.24688496094E+04  0.24688496094E+04  0.00000000000E+00 0. -1.
         21    1    1    2  503  502  0.41826733358E+02 -0.15206887709E+03 -0.23125596015E+04  0.23179314764E+04  0.00000000000E+00 0. -1.
         21    1    1    2  504  503 -0.69886777614E+02  0.73384525187E+02 -0.54111127255E+02  0.11488021725E+03  0.00000000000E+00 0.  1.
         21    1    1    2  505  501  0.34573610865E+02  0.40343969965E+02 -0.56895488755E+02  0.77846432939E+02  0.00000000000E+00 0.  1.
          2    1    1    2  501    0 -0.65135666086E+01  0.38340381935E+02  0.21588356844E+03  0.21935844310E+03  0.00000000000E+00 0.  1.
<scales pt_clust_3="152.20863" pt_clust_4="14000.00000" pt_clust_5="59.55122" pt_clust_6="38.88973"></scales>
<clustering>
<clus scale="   38.890">  1  6  2 -1</clus>
<clus scale="   59.551">  1  5  2 -1</clus>
<clus scale="  152.209">  2  3  1 -1</clus>
<clus scale="  152.209">  2  3  1 -1</clus>
</clustering>
</event>
<event>
 6    0  0.6525019E+002  0.1380085E+03  0.7546771E-02  0.1216034E+00
          2   -1    0    0  504    0 -0.00000000000E+00  0.00000000000E+00  0.16784298232E+04  0.16784298232E+04  0.00000000000E+00 0.  1.
         21   -1    0    0  503  502  0.00000000000E+00 -0.00000000000E+00 -0.69035456827E+02  0.69035456827E+02  0.00000000000E+00 0. -1.
         21    1    1    2  503  501  0.13338267258E+03  0.46231136474E+02  0.46471967171E+03  0.48568778922E+03  0.00000000000E+00 0.  1.
         21    1    1    2  504  505 -0.62009063857E+02 -0.98292290712E+02  0.20925874064E+02  0.11808636932E+03  0.00000000000E+00 0. -1.
         21    1    1    2  505  502 -0.43807636816E+02 -0.93218616751E+01  0.47297556434E+02  0.65138813262E+02  0.00000000000E+00 0.  1.
          2    1    1    2  501    0 -0.27565971910E+02  0.61383015913E+02  0.10764512641E+04  0.10785523082E+04  0.00000000000E+00 0.  1.
<scales pt_clust_3="14000.00000" pt_clust_4="138.00849" pt_clust_5="44.78846" pt_clust_6="67.45797"></scales>
<clustering>
<clus scale="   44.788">  2  5  1 -1</clus>
<clus scale="   67.458">  1  6  2 -1</clus>
<clus scale="  138.008">  2  4  1 -1</clus>
<clus scale="   44.788">  2  3  1 -1</clus>
</clustering>
</event>
<event>
 6    0  0.6525019E+002  0.1073588E+03  0.7546771E-02  0.1265541E+00
          1   -1    0    0  504    0 -0.00000000000E+00  0.00000000000E+00  0.26985375091E+04  0.26985375091E+04  0.00000000000E+00 0.  1.
         21   -1    0    0  501  502  0.00000000000E+00 -0.00000000000E+00 -0.11804721818E+03  0.11804721818E+03  0.00000000000E+00 0. -1.
         21    1    1    2  503  502  0.11141510839E+03  0.45816876962E+02 -0.23560822771E+01  0.12049092794E+03  0.00000000000E+00 0. -1.
         21    1    1    2  504  505 -0.46712458447E+01 -0.49922811085E+02  0.12607379174E+03  0.13567869607E+03  0.00000000000E+00 0.  1.
         21    1    1    2  505  503 -0.10293833433E+03  0.51627892219E+02  0.12677759864E+02  0.11585536468E+03  0.00000000000E+00 0. -1.
          1    1    1    2  501    0 -0.38055282196E+01 -0.47521958096E+02  0.24440948216E+04  0.24445597386E+04  0.00000000000E+00 0.  1.
<scales pt_clust_3="107.35877" pt_clust_4="74.68367" pt_clust_5="14000.00000" pt_clust_6="47.67409"></scales>
<clustering>
<clus scale="   47.674">  1  6  2 -1</clus>
<clus scale="   74.684">  1  4  2 -1</clus>
<clus scale="  107.359">  2  3  1 -1</clus>
<clus scale="  107.359">  2  3  1 -1</clus>
</clustering>
</event>
<event>
 6    0  0.6525019E+002  0.1301995E+03  0.7546771E-02  0.1227160E+00
          2   -1    0    0  503    0 -0.00000000000E+00  0.00000000000E+00  0.10185583915E+04  0.10185583915E+04  0.00000000000E+00 0.  1.
         21   -1    0    0  504  502  0.00000000000E+00 -0.00000000000E+00 -0.13217760757E+03  0.13217760757E+03  0.00000000000E+00 0.  1.
         21    1    1    2  503  505  0.10459313242E+03 -0.50956652098E+02  0.33340973300E+03  0.35312654078E+03  0.00000000000E+00 0.  1.
         21    1    1    2  504  501 -0.15324056899E+03 -0.34505100178E+01 -0.37037752669E+02  0.15769075156E+03  0.00000000000E+00 0.  1.
         21    1    1    2  505  502  0.93401148153E+02  0.35645733004E+01  0.73282815453E+02  0.11877226823E+03  0.00000000000E+00 0.  1.
          2    1    1    2  501    0 -0.44753711577E+02  0.50842588815E+02  0.51672598813E+03  0.52114643849E+03  0.00000000000E+00 0.  1.
<scales pt_clust_3="75.56363" pt_clust_4="130.19947" pt_clust_5="14000.00000" pt_clust_6="67.73377"></scales>
<clustering>
<clus scale="   67.734">  1  6  2 -1</clus>
<clus scale="   75.564">  1  3  2 -1</clus>
<clus scale="  130.199">  2  4  1 -1</clus>
<clus scale="  130.199">  2  3  1 -1</clus>
</clustering>
</event>
<event>
 6    0  0.6525019E+002  0.8281504E+02  0.7546771E-02  0.1321247E+00
         21   -1    0    0  505  502  0.00000000000E+00  0.00000000000E+00  0.52663801310E+03  0.52663801310E+03  0.00000000000E+00 0. -1.
         -2   -1    0    0    0  501 -0.00000000000E+00 -0.00000000000E+00 -0.90500129242E+03  0.90500129242E+03  0.00000000000E+00 0. -1.
         21    1    1    2  503  501 -0.99406806129E+01 -0.81929236835E+02  0.57088005364E+02  0.10035067183E+03  0.00000000000E+00 0. -1.
         21    1    1    2  504  502  0.76728417758E+01  0.10669355691E+03  0.43385418819E+02  0.11543258705E+03  0.00000000000E+00 0. -1.
         21    1    1    2  505  503  0.23716954544E+02  0.25562891436E+02  0.36679889225E+03  0.36845268721E+03  0.00000000000E+00 0. -1.
         -2    1    1    2    0  504 -0.21449115707E+02 -0.50327211510E+02 -0.84563559575E+03  0.84740335944E+03  0.00000000000E+00 0. -1.
<scales pt_clust_3="14000.00000" pt_clust_4="82.81504" pt_clust_5="34.87055" pt_clust_6="54.52497"></scales>
<clustering>
<clus scale="   34.871">  1  5  2 -1</clus>
<clus scale="   54.525">  2  6  1 -1</clus>
<clus scale="   82.815">  2  4  1 -1</clus>
<clus scale="   34.871">  1  3  2 -1</clus>
</clustering>
</event>
<event>
 6    0  0.6525019E+002  0.7823317E+02  0.7546771E-02  0.1334142E+00
         -1   -1    0    0    0  501 -0.00000000000E+00  0.00000000000E+00  0.21562853970E+03  0.21562853970E+03  0.00000000000E+00 0. -1.
         21   -1    0    0  504  502  0.00000000000E+00 -0.00000000000E+00 -0.82133425192E+03  0.82133425192E+03  0.00000000000E+00 0.  1.
         21    1    1    2  503  501  0.76155934814E+02  0.74330100994E+02 -0.23156688827E+03  0.25484880629E+03  0.00000000000E+00 0.  1.
         21    1    1    2  504  503  0.27515130629E+02  0.17778092682E+02 -0.52343699723E+03  0.52446108822E+03  0.00000000000E+00 0.  1.
         21    1    1    2  505  502 -0.46201509285E+02 -0.40426116471E+02 -0.25540889315E+02  0.66492009897E+02  0.00000000000E+00 0.  1.
         -1    1    1    2    0  505 -0.57469556158E+02 -0.51682077205E+02  0.17483906260E+03  0.19116088721E+03  0.00000000000E+00 0. -1.
<scales pt_clust_3="14000.00000" pt_clust_4="32.75886" pt_clust_5="56.38006" pt_clust_6="78.23317"></scales>
<clustering>
<clus scale="   32.759">  2  4  1 -1</clus>
<clus scale="   56.380">  2  5  1 -1</clus>
<clus scale="   78.233">  1  6  2 -1</clus>
<clus scale="   32.759">  2  3  1 -1</clus>
</clustering>
</event>
<event>
 6    0  0.6525019E+002  0.9136179E+02  0.7546771E-02  0.1299587E+00
         21   -1    0    0  503  502  0.00000000000E+00  0.00000000000E+00  0.13329383043E+02  0.13329383043E+02  0.00000000000E+00 0.  1.
          2   -1    0    0  504    0 -0.00000000000E+00 -0.00000000000E+00 -0.33450092898E+04  0.33450092898E+04  0.00000000000E+00 0.  1.
         21    1    1    2  503  501 -0.19379355361E+02 -0.45538141251E+02 -0.21768294589E+03  0.22323787012E+03  0.00000000000E+00 0.  1.
         21    1    1    2  504  505 -0.45146423203E+02  0.14265885196E+03 -0.10077201002E+04  0.10187686429E+04  0.00000000000E+00 0.  1.
         21    1    1    2  505  502  0.33071664721E+02 -0.20815928055E+02 -0.87044132173E+02  0.95413410032E+02  0.00000000000E+00 0.  1.
          2    1    1    2  501    0  0.31454113843E+02 -0.76304782650E+02 -0.20192327286E+04  0.20209187498E+04  0.00000000000E+00 0.  1.
<scales pt_clust_3="52.69382" pt_clust_4="14000.00000" pt_clust_5="39.07733" pt_clust_6="91.36179"></scales>
<clustering>
<clus scale="   39.077">  1  5  2 -1</clus>
<clus scale="   52.694">  1  3  2 -1</clus>
<clus scale="   91.362">  2  6  1 -1</clus>
<clus scale="   39.077">  1  3  2 -1</clus>
</clustering>
</event>
<event>
 6    0  0.6525019E+002  0.8286118E+02  0.7546771E-02  0.1321122E+00
         21   -1    0    0  501  502  0.00000000000E+00  0.00000000000E+00  0.23445391791E+03  0.23445391791E+03  0.00000000000E+00 0. -1.
          1   -1    0    0  505    0 -0.00000000000E+00 -0.00000000000E+00 -0.11257007653E+04  0.11257007653E+04  0.00000000000E+00 0.  1.
         21    1    1    2  503  502  0.84458666902E+02  0.20871836221E+02  0.19628996007E+03  0.21470595797E+03  0.00000000000E+00 0. -1.
         21    1    1    2  504  503 -0.44632280089E+02 -0.54604494933E+02 -0.32934175227E+02  0.77835410905E+02  0.00000000000E+00 0. -1.
         21    1    1    2  505  504 -0.14334123494E+02  0.67281373505E+02 -0.19146787450E+03  0.20345072446E+03  0.00000000000E+00 0. -1.
          1    1    1    2  501    0 -0.25492263319E+02 -0.33548714793E+02 -0.86313475772E+03  0.86416258987E+03  0.00000000000E+00 0.  1.
<scales pt_clust_3="14000.00000" pt_clust_4="82.86118" pt_clust_5="53.75214" pt_clust_6="42.13516"></scales>
<clustering>
<clus scale="   42.135">  2  6  1 -1</clus>
<clus scale="   53.752">  2  5  1 -1</clus>
<clus scale="   82.861">  2  4  1 -1</clus>
<clus scale="   82.861">  1  3  2 -1</clus>
</clustering>
</event>
<event>
 6    0  0.6525019E+002  0.1089817E+03  0.7546771E-02  0.1262467E+00
          2   -1    0    0  505    0 -0.00000000000E+00  0.00000000000E+00  0.26136151392E+04  0.26136151392E+04  0.00000000000E+00 0.  1.
         21   -1    0    0  503  502  0.00000000000E+00 -0.00000000000E+00 -0.12821692992E+03  0.12821692992E+03  0.00000000000E+00 0. -1.
         21    1    1    2  503  504  0.35613925277E+02 -0.93671991076E+02 -0.71636715706E+02  0.12318527762E+03  0.00000000000E+00 0. -1.
         21    1    1    2  504  501 -0.78502427857E+01  0.11353845942E+03  0.43861158498E+03  0.45313654737E+03  0.00000000000E+00 0. -1.
         21    1    1    2  505  502  0.30810863801E+02  0.45438541257E+01 -0.12560651573E+02  0.33581630491E+02  0.00000000000E+00 0. -1.
          2    1    1    2  501    0 -0.58574546292E+02 -0.24410322467E+02  0.21309839916E+04  0.21319286137E+04  0.00000000000E+00 0.  1.
<scales pt_clust_3="108.98165" pt_clust_4="14000.00000" pt_clust_5="31.14412" pt_clust_6="63.32180"></scales>
<clustering>
<clus scale="   31.144">  2  5  1 -1</clus>
<clus scale="   63.322">  1  6  2 -1</clus>
<clus scale="  108.982">  2  3  1 -1</clus>
<clus scale="   31.144">  2  3  1 -1</clus>
</clustering>
</event>
<event>
 6    0  0.6525019E+002  0.1231757E+03  0.7546771E-02  0.1237948E+00
         -1   -1    0    0    0  501 -0.00000000000E+00  0.00000000000E+00  0.62283545460E+03  0.62283545460E+03  0.00000000000E+00 0.  1.
         21   -1    0    0  505  502  0.00000000000E+00 -0.00000000000E+00 -0.60381698596E+03  0.60381698596E+03  0.00000000000E+00 0.  1.
         21    1    1    2  503  502  0.15494923543E+03 -0.86569275632E+02 -0.30759955834E+03  0.35513517615E+03  0.00000000000E+00 0.  1.
         21    1    1    2  504  503 -0.84696203116E+02 -0.40253056375E+02  0.15857211886E+03  0.18422505869E+03  0.00000000000E+00 0. -1.
         21    1    1    2  505  501 -0.77354430026E+02  0.65274553172E+02 -0.24737297487E+03  0.26727862585E+03  0.00000000000E+00 0. -1.
         -1    1    1    2    0  504  0.71013977150E+01  0.61547778835E+02  0.41541888300E+03  0.42001357988E+03  0.00000000000E+00 0.  1.
<scales pt_clust_3="123.17574" pt_clust_4="79.55128" pt_clust_5="14000.00000" pt_clust_6="61.95610"></scales>
<clustering>
<clus scale="   61.956">  1  6  2 -1</clus>
<clus scale="   79.551">  1  4  2 -1</clus>
<clus scale="  123.176">  1  3  2 -1</clus>
<clus scale="  123.176">  2  3  1 -1</clus>
</clustering>
</event>
<event>
 6    0  0.6525019E+002  0.1052624E+03  0.7546771E-02  0.1269604E+00
         21   -1    0    0  501  502  0.00000000000E+00  0.00000000000E+00  0.49763401001E+03  0.49763401001E+03  0.00000000000E+00 0.  1.
          4   -1    0    0  504    0 -0.00000000000E+00 -0.00000000000E+00 -0.26024833235E+03  0.26024833235E+03  0.00000000000E+00 0.  1.
         21    1    1    2  503  505 -0.32035008142E+02  0.34580449351E+02  0.34606862526E+02  0.58478065613E+02  0.00000000000E+00 0.  1.
         21    1    1    2  504  503  0.14119627021E+01 -0.15563120371E+03  0.32477139918E+03  0.36013820532E+03  0.00000000000E+00 0.  1.
         21    1    1    2  505  502 -0.14748305355E+02  0.27411926091E+02  0.94268711095E+02  0.99274951998E+02  0.00000000000E+00 0.  1.
          4    1    1    2  501    0  0.45371350795E+02  0.93638828268E+02 -0.21626129514E+03  0.23999111943E+03  0.00000000000E+00 0.  1.
<scales pt_clust_3="50.64523" pt_clust_4="14000.00000" pt_clust_5="31.12758" pt_clust_6="105.26237"></scales>
<clustering>
<clus scale="   31.128">  1  5  2 -1</clus>
<clus scale="   50.645">  1  3  2 -1</clus>
<clus scale="  105.262">  2  6  1 -1</clus>
<clus scale="   31.128">  1  3  2 -1</clus>
</clustering>
</event>
<event>
 6    0  0.6525019E+002  0.1058737E+03  0.7546771E-02  0.1268408E+00
          2   -1    0    0  505    0 -0.00000000000E+00  0.00000000000E+00  0.10170574076E+04  0.10170574076E+04  0.00000000000E+00 0. -1.
         21   -1    0    0  504  502  0.00000000000E+00 -0.00000000000E+00 -0.10167127649E+03  0.10167127649E+03  0.00000000000E+00 0.  1.
         21    1    1    2  503  502  0.17196100509E+02  0.11846734700E+03 -0.53946616814E+02  0.13130291559E+03  0.00000000000E+00 0.  1.
         21    1    1    2  504  501 -0.76394827214E-01 -0.59768233034E+02  0.12352833744E+03  0.13722790411E+03  0.00000000000E+00 0. -1.
         21    1    1    2  505  503 -0.35262413288E+02 -0.34803228144E+02  0.35035219910E+03  0.35383805037E+03  0.00000000000E+00 0.  1.
          2    1    1    2  501    0  0.18142707606E+02 -0.23895885821E+02  0.49545221139E+03  0.49635981401E+03  0.00000000000E+00 0. -1.
<scales pt_clust_3="14000.00000" pt_clust_4="105.87374" pt_clust_5="55.90064" pt_clust_6="30.00285"></scales>
<clustering>
<clus scale="   30.003">  1  6  2 -1</clus>
<clus scale="   55.901">  1  5  2 -1</clus>
<clus scale="  105.874">  1  4  2 -1</clus>
<clus scale="  105.874">  2  3  1 -1</clus>
</clustering>
</event>
<event>
 6    0  0.6525019E+002  0.1180746E+03  0.7546771E-02  0.1246308E+00
          2   -1    0    0  503    0 -0.00000000000E+00  0.00000000000E+00  0.64259026587E+03  0.64259026587E+03  0.00000000000E+00 0.  1.
         21   -1    0    0  505  502  0.00000000000E+00 -0.00000000000E+00 -0.16566695435E+03  0.16566695435E+03  0.00000000000E+00 0.  1.
         21    1    1    2  503  504  0.10556339480E+03 -0.92523732161E+02  0.21615485087E+03  0.25773472969E+03  0.00000000000E+00 0.  1.
         21    1    1    2  504  502 -0.32038602538E+02 -0.21087890616E+02 -0.51184160134E+02  0.63960842957E+02  0.00000000000E+00 0.  1.
         21    1    1    2  505  501 -0.72456163435E+02  0.76105072228E+02 -0.54376436236E+02  0.11831599408E+03  0.00000000000E+00 0.  1.
          2    1    1    2  501    0 -0.10686288252E+01  0.37506550549E+02  0.36632905701E+03  0.36824565348E+03  0.00000000000E+00 0.  1.
<scales pt_clust_3="14000.00000" pt_clust_4="37.90529" pt_clust_5="118.07464" pt_clust_6="37.52177"></scales>
<clustering>
<clus scale="   37.522">  1  6  2 -1</clus>
<clus scale="   37.905">  2  4  1 -1</clus>
<clus scale="  118.075">  2  5  1 -1</clus>
<clus scale="   37.905">  2  3  1 -1</clus>
</clustering>
</event>
<event>
 6    0  0.6525019E+002  0.7886534E+02  0.7546771E-02  0.1332303E+00
         21   -1    0    0  505  502  0.00000000000E+00  0.00000000000E+00  0.56949088489E+02  0.56949088489E+02  0.00000000000E+00 0.  1.
          2   -1    0    0  504    0 -0.00000000000E+00 -0.00000000000E+00 -0.13958979830E+04  0.13958979830E+04  0.00000000000E+00 0.  1.
         21    1    1    2  503  502  0.45152529216E+02  0.22778708325E+02 -0.28790169909E+01  0.50654804178E+02  0.00000000000E+00 0.  1.
         21    1    1    2  504  503  0.44768632360E+02  0.31198558933E+02 -0.92491419668E+02  0.10738828258E+03  0.00000000000E+00 0.  1.
         21    1    1    2  505  501 -0.13002818097E+03 -0.25262848374E+01 -0.14694092223E+03  0.19622778750E+03  0.00000000000E+00 0.  1.
          2    1    1    2  501    0  0.40107019391E+02 -0.51450982420E+02 -0.10966375356E+04  0.10985761972E+04  0.00000000000E+00 0.  1.
<scales pt_clust_3="50.57292" pt_clust_4="78.86534" pt_clust_5="14000.00000" pt_clust_6="65.53962"></scales>
<clustering>
<clus scale="   50.573">  1  3  2 -1</clus>
<clus scale="   65.540">  2  6  1 -1</clus>
<clus scale="   78.865">  2  4  1 -1</clus>
<clus scale="   50.573">  1  3  2 -1</clus>
</clustering>
</event>
<event>
 6    0  0.6525019E+002  0.2589968E+03  0.7546771E-02  0.1107747E+00
          2   -1    0    0  502    0 -0.00000000000E+00  0.00000000000E+00  0.41994420050E+04  0.41994420050E+04  0.00000000000E+00 0. -1.
         21   -1    0    0  505  502  0.00000000000E+00 -0.00000000000E+00 -0.13466392572E+03  0.13466392572E+03  0.00000000000E+00 0.  1.
         21    1    1    2  503  504  0.65924440634E+02 -0.24738815159E+03  0.17686170310E+03  0.31117035759E+03  0.00000000000E+00 0.  1.
         21    1    1    2  504  501 -0.15006880420E+02  0.21667227779E+03  0.14698780548E+04  0.14858376689E+04  0.00000000000E+00 0. -1.
         21    1    1    2  505  503 -0.52607805534E+02 -0.21951085304E+02 -0.45536920029E+02  0.72959183348E+02  0.00000000000E+00 0.  1.
          2    1    1    2  501    0  0.16902453209E+01  0.52666959109E+02  0.24635752415E+04  0.24641387209E+04  0.00000000000E+00 0. -1.
<scales pt_clust_3="14000.00000" pt_clust_4="258.99681" pt_clust_5="56.83250" pt_clust_6="52.69407"></scales>
<clustering>
<clus scale="   52.694">  1  6  2 -1</clus>
<clus scale="   56.833">  2  5  1 -1</clus>
<clus scale="  258.997">  1  4  2 -1</clus>
<clus scale="   56.833">  2  3  1 -1</clus>
</clustering>
</event>
<event>
 6    0  0.6525019E+002  0.1123993E+03  0.7546771E-02  0.1256190E+00
         21   -1    0    0  503  502  0.00000000000E+00  0.00000000000E+00  0.14344504951E+03  0.14344504951E+03  0.00000000000E+00 0.  1.
         -1   -1    0    0    0  501 -0.00000000000E+00 -0.00000000000E+00 -0.23950901644E+03  0.23950901644E+03  0.00000000000E+00 0.  1.
         21    1    1    2  503  501 -0.35496274080E+02 -0.37443177692E+02  0.10257820263E+02  0.52604181447E+02  0.00000000000E+00 0.  1.
         21    1    1    2  504  502  0.10880083890E+03  0.93943752501E+02  0.40666584281E+02  0.14938815969E+03  0.00000000000E+00 0.  1.
         21    1    1    2  505  504 -0.50296741559E+02 -0.75204079331E+01 -0.61746293550E+02  0.79993271680E+02  0.00000000000E+00 0.  1.
         -1    1    1    2    0  505 -0.23007823263E+02 -0.48980166876E+02 -0.85242077928E+02  0.10096845313E+03  0.00000000000E+00 0.  1.
<scales pt_clust_3="51.59435" pt_clust_4="100.28917" pt_clust_5="49.19932" pt_clust_6="49.19932"></scales>
<clustering>
<clus scale="   49.199">  5  6 -1 -1</clus>
<clus scale="   51.594">  1  3  2 -1</clus>
<clus scale="  100.289">  1  4  2 -1</clus>
<clus scale="   51.594">  1  3  2 -1</clus>
</clustering>
</event>
<event>
 6    0  0.6525019E+002  0.8116387E+02  0.7546771E-02  0.1325781E+00
          1   -1    0    0  504    0 -0.00000000000E+00  0.00000000000E+00  0.18696575213E+03  0.18696575213E+03  0.00000000000E+00 0. -1.
         21   -1    0    0  505  502  0.00000000000E+00 -0.00000000000E+00 -0.10945421233E+04  0.10945421233E+04  0.00000000000E+00 0. -1.
         21    1    1    2  503  502  0.41596388981E+02  0.86756191383E+02  0.53117505185E+02  0.10990161817E+03  0.00000000000E+00 0. -1.
         21    1    1    2  504  503 -0.98794246059E+01 -0.29618954097E+02 -0.10324184896E+01  0.31240220234E+02  0.00000000000E+00 0. -1.
         21    1    1    2  505  501 -0.80885789773E+02 -0.11485024833E+02 -0.10357234596E+04  0.10389405669E+04  0.00000000000E+00 0. -1.
          1    1    1    2  501    0  0.49168825399E+02 -0.45652212453E+02  0.76062001709E+02  0.10142547016E+03  0.00000000000E+00 0. -1.
<scales pt_clust_3="14000.00000" pt_clust_4="31.22316" pt_clust_5="81.16387" pt_clust_6="75.20909"></scales>
<clustering>
<clus scale="   31.223">  1  4  2 -1</clus>
<clus scale="   75.209">  1  6  2 -1</clus>
<clus scale="   81.164">  2  5  1 -1</clus>
<clus scale="   81.164">  2  3  1 -1</clus>
</clustering>
</event>
<event>
 6    0  0.6525019E+002  0.1220072E+03  0.7546771E-02  0.1239822E+00
         21   -1    0    0  504  502  0.00000000000E+00  0.00000000000E+00  0.12692224197E+04  0.12692224197E+04  0.00000000000E+00 0.  1.
          2   -1    0    0  505    0 -0.00000000000E+00 -0.00000000000E+00 -0.66829708139E+03  0.66829708139E+03  0.00000000000E+00 0.  1.
         21    1    1    2  503  502 -0.11541636337E+03 -0.48603542634E+02  0.11172493291E+04  0.11242461050E+04  0.00000000000E+00 0.  1.
         21    1    1    2  504  501  0.96387391139E+02  0.27943821327E+01  0.33454218479E+02  0.10206626512E+03  0.00000000000E+00 0.  1.
         21    1    1    2  505  503 -0.36746086448E+02  0.46306257620E+02  0.68464158433E+02  0.90453774681E+02  0.00000000000E+00 0. -1.
          2    1    1    2  501    0  0.55775058680E+02 -0.49709711837E+00 -0.61824236763E+03  0.62075335634E+03  0.00000000000E+00 0.  1.
<scales pt_clust_3="122.00721" pt_clust_4="14000.00000" pt_clust_5="52.13982" pt_clust_6="55.77727"></scales>
<clustering>
<clus scale="   55.777">  2  6  1 -1</clus>
<clus scale="   52.140">  2  5  1 -1</clus>
<clus scale="  122.007">  1  3  2 -1</clus>
<clus scale="  122.007">  1  3  2 -1</clus>
</clustering>
</event>
<event>
 6    0  0.6525019E+002  0.1588508E+03  0.7546771E-02  0.1190000E+00
          1   -1    0    0  504    0 -0.00000000000E+00  0.00000000000E+00  0.96515378015E+03  0.96515378015E+03  0.00000000000E+00 0.  1.
         21   -1    0    0  505  502  0.00000000000E+00 -0.00000000000E+00 -0.28412131580E+03  0.28412131580E+03  0.00000000000E+00 0.  1.
         21    1    1    2  503  501  0.26460965738E+01 -0.35541995072E+02 -0.20111030843E+02  0.40922961798E+02  0.00000000000E+00 0.  1.
         21    1    1    2  504  502  0.64479551735E+02  0.20537090414E+03  0.27959900030E+02  0.21706353187E+03  0.00000000000E+00 0.  1.
         21    1    1    2  505  503 -0.69446682506E+02 -0.79573279814E+02 -0.13873691764E+03  0.17436364555E+03  0.00000000000E+00 0.  1.
          1    1    1    2  501    0  0.23210341969E+01 -0.90255629256E+02  0.81192051281E+03  0.81692495673E+03  0.00000000000E+00 0.  1.
<scales pt_clust_3="33.88137" pt_clust_4="147.75582" pt_clust_5="33.88137" pt_clust_6="90.28547"></scales>
<clustering>
<clus scale="   33.881">  3  5 -1 -1</clus>
<clus scale="   90.285">  1  6  2 -1</clus>
<clus scale="  147.756">  1  4  2 -1</clus>
<clus scale="  158.851">  2  3  1 -1</clus>
</clustering>
</event>
<event>
 6    0  0.6525019E+002  0.1767952E+03  0.7546771E-02  0.1170941E+00
         21   -1    0    0  504  502  0.00000000000E+00  0.00000000000E+00  0.67463023260E+02  0.67463023260E+02  0.00000000000E+00 0. -1.
          2   -1    0    0  503    0 -0.00000000000E+00 -0.00000000000E+00 -0.16011741096E+04  0.16011741096E+04  0.00000000000E+00 0.  1.
         21    1    1    2  503  505 -0.41023389976E+01 -0.67434949774E+02 -0.13501161705E+02  0.68895449804E+02  0.00000000000E+00 0. -1.
         21    1    1    2  504  501 -0.47077236954E+02 -0.11588090074E+02 -0.60061970405E+02  0.77188019535E+02  0.00000000000E+00 0. -1.
         21    1    1    2  505  502  0.33234574858E+02 -0.91543988398E+02 -0.65425833891E+02  0.11732594989E+03  0.00000000000E+00 0. -1.
          2    1    1    2  501    0  0.17945001094E+02  0.17056702825E+03 -0.13947221203E+04  0.14052277136E+04  0.00000000000E+00 0.  1.
<scales pt_clust_3="40.16855" pt_clust_4="48.48247" pt_clust_5="40.16855" pt_clust_6="170.08999"></scales>
<clustering>
<clus scale="   40.169">  3  5 -1 -1</clus>
<clus scale="   48.482">  1  4  2 -1</clus>
<clus scale="  170.090">  2  6  1 -1</clus>
<clus scale="   48.482">  1  3  2 -1</clus>
</clustering>
</event>
<event>
 6    0  0.6525019E+002  0.1131596E+03  0.7546771E-02  0.1254828E+00
          2   -1    0    0  504    0 -0.00000000000E+00  0.00000000000E+00  0.21471263279E+03  0.21471263279E+03  0.00000000000E+00 0. -1.
         21   -1    0    0  503  502  0.00000000000E+00 -0.00000000000E+00 -0.69120431641E+03  0.69120431641E+03  0.00000000000E+00 0. -1.
         21    1    1    2  503  505 -0.11223525095E+03  0.14268885970E+02 -0.51821868017E+03  0.53042525688E+03  0.00000000000E+00 0. -1.
         21    1    1    2  504  502 -0.30414673812E+02  0.20635571499E+02 -0.38670606168E+02  0.53350679242E+02  0.00000000000E+00 0.  1.
         21    1    1    2  505  501  0.11000459084E+03 -0.30922660999E+02 -0.91958652122E+02  0.14667520127E+03  0.00000000000E+00 0. -1.
          2    1    1    2  501    0  0.32645333922E+02 -0.39817964700E+01  0.17235625484E+03  0.17546581180E+03  0.00000000000E+00 0. -1.
<scales pt_clust_3="113.15963" pt_clust_4="31.60827" pt_clust_5="14000.00000" pt_clust_6="32.88727"></scales>
<clustering>
<clus scale="   32.887">  1  6  2 -1</clus>
<clus scale="   31.608">  1  4  2 -1</clus>
<clus scale="  113.160">  2  3  1 -1</clus>
<clus scale="  113.160">  2  3  1 -1</clus>
</clustering>
</event>
<event>
 6    0  0.6525019E+002  0.1178486E+03  0.7546771E-02  0.1246689E+00
          2   -1    0    0  505    0 -0.00000000000E+00  0.00000000000E+00  0.19546712581E+04  0.19546712581E+04  0.00000000000E+00 0. -1.
         21   -1    0    0  504  502  0.00000000000E+00 -0.00000000000E+00 -0.43501725158E+03  0.43501725158E+03  0.00000000000E+00 0. -1.
         21    1    1    2  503  501 -0.12255555101E+02 -0.46529949266E+02  0.54686893133E+03  0.54898165986E+03  0.00000000000E+00 0. -1.
         21    1    1    2  504  503 -0.88115130180E+01 -0.39661196919E+02 -0.47635488626E+01  0.40906536158E+02  0.00000000000E+00 0.  1.
         21    1    1    2  505  502  0.68982615083E+02  0.12859541113E+03 -0.39740895094E+03  0.42335476286E+03  0.00000000000E+00 0. -1.
          2    1    1    2  501    0 -0.47915546964E+02 -0.42404264947E+02  0.13749575750E+04  0.13764455508E+04  0.00000000000E+00 0. -1.
<scales pt_clust_3="41.82158" pt_clust_4="40.62823" pt_clust_5="107.54223" pt_clust_6="41.82158"></scales>
<clustering>
<clus scale="   40.628">  2  4  1 -1</clus>
<clus scale="   41.822">  3  6 -1 -1</clus>
<clus scale="  107.542">  2  5  1 -1</clus>
<clus scale="   40.628">  2  3  1 -1</clus>
</clustering>
</event>
<event>
 6    0  0.6525019E+002  0.2208592E+03  0.7546771E-02  0.1133244E+00
         21   -1    0    0  504  502  0.00000000000E+00  0.00000000000E+00  0.37940591595E+03  0.37940591595E+03  0.00000000000E+00 0. -1.
          1   -1    0    0  505    0 -0.00000000000E+00 -0.00000000000E+00 -0.11661028946E+04  0.11661028946E+04  0.00000000000E+00 0.  1.
         21    1    1    2  503  502  0.80614160667E+02  0.73563309705E+02  0.88045369164E+02  0.14022193290E+03  0.00000000000E+00 0. -1.
         21    1    1    2  504  501 -0.12751709390E+03 -0.12451623093E+03 -0.23959641520E+03  0.29861571154E+03  0.00000000000E+00 0.  1.
         21    1    1    2  505  503  0.77871095502E+02  0.55470568669E+02  0.22577369404E+03  0.24518289587E+03  0.00000000000E+00 0. -1.
          1    1    1    2  501    0 -0.30968162268E+02 -0.45176474436E+01 -0.86091962669E+03  0.86148827028E+03  0.00000000000E+00 0.  1.
<scales pt_clust_3="85.68158" pt_clust_4="201.22532" pt_clust_5="85.68158" pt_clust_6="31.29595"></scales>
<clustering>
<clus scale="   31.296">  2  6  1 -1</clus>
<clus scale="   85.682">  3  5 -1 -1</clus>
<clus scale="  201.225">  2  4  1 -1</clus>
<clus scale="  220.859">  1  3  2 -1</clus>
</clustering>
</event>
<event>
 6    0  0.6525019E+002  0.1098720E+03  0.7546771E-02  0.1260807E+00
         -1   -1    0    0    0  501 -0.00000000000E+00  0.00000000000E+00  0.19917327431E+03  0.19917327431E+03  0.00000000000E+00 0.  1.
         21   -1    0    0  505  502  0.00000000000E+00 -0.00000000000E+00 -0.49189561357E+03  0.49189561357E+03  0.00000000000E+00 0.  1.
         21    1    1    2  503  504 -0.19110702740E+02  0.12387691545E+03 -0.26124132578E+03  0.28975461935E+03  0.00000000000E+00 0.  1.
         21    1    1    2  504  502  0.33277549779E+02  0.50692060687E+01 -0.99835083344E+02  0.10535718312E+03  0.00000000000E+00 0.  1.
         21    1    1    2  505  501 -0.15494634542E+02 -0.90617786119E+02 -0.92606929079E+02  0.13049026850E+03  0.00000000000E+00 0.  1.
         -1    1    1    2    0  503  0.13277875029E+01 -0.38328335400E+02  0.16096099894E+03  0.16546681690E+03  0.00000000000E+00 0.  1.
<scales pt_clust_3="14000.00000" pt_clust_4="33.66143" pt_clust_5="109.87200" pt_clust_6="38.32916"></scales>
<clustering>
<clus scale="   33.661">  2  4  1 -1</clus>
<clus scale="   38.329">  1  6  2 -1</clus>
<clus scale="  109.872">  1  5  2 -1</clus>
<clus scale="   33.661">  2  3  1 -1</clus>
</clustering>
</event>
<event>
 6    0  0.6525019E+002  0.1368068E+03  0.7546771E-02  0.1217691E+00
         21   -1    0    0  504  502  0.00000000000E+00  0.00000000000E+00  0.15332262174E+03  0.15332262174E+03  0.00000000000E+00 0. -1.
          2   -1    0    0  505    0 -0.00000000000E+00 -0.00000000000E+00 -0.15245750854E+04  0.15245750854E+04  0.00000000000E+00 0.  1.
         21    1    1    2  503  502 -0.11934010501E+03 -0.85251741876E+02  0.77950460571E+02  0.16609092227E+03  0.00000000000E+00 0. -1.
         21    1    1    2  504  501  0.10065542623E+03  0.54683744570E+01 -0.21203838936E+03  0.23478010246E+03  0.00000000000E+00 0.  1.
         21    1    1    2  505  503 -0.36559150456E+02  0.95556155630E+02 -0.11713818792E+03  0.15552782848E+03  0.00000000000E+00 0.  1.
          2    1    1    2  501    0  0.55243829234E+02 -0.15772788211E+02 -0.11200263470E+04  0.11214988540E+04  0.00000000000E+00 0.  1.
<scales pt_clust_3="136.80684" pt_clust_4="14000.00000" pt_clust_5="91.99096" pt_clust_6="57.45138"></scales>
<clustering>
<clus scale="   57.451">  2  6  1 -1</clus>
<clus scale="   91.991">  2  5  1 -1</clus>
<clus scale="  136.807">  1  3  2 -1</clus>
<clus scale="  136.807">  1  3  2 -1</clus>
</clustering>
</event>
<event>
 6    0  0.6525019E+002  0.6086637E+02  0.7546771E-02  0.1394232E+00
         21   -1    0    0  504  502  0.00000000000E+00  0.00000000000E+00  0.93761290822E+03  0.93761290822E+03  0.00000000000E+00 0. -1.
          1   -1    0    0  503    0 -0.00000000000E+00 -0.00000000000E+00 -0.41160477782E+03  0.41160477782E+03  0.00000000000E+00 0. -1.
         21    1    1    2  503  505 -0.83469284949E+02 -0.18054657199E+02 -0.93172615384E+02  0.12638919429E+03  0.00000000000E+00 0. -1.
         21    1    1    2  504  501  0.80339695358E+02  0.54401200821E+02  0.87150851125E+03  0.87689283409E+03  0.00000000000E+00 0. -1.
         21    1    1    2  505  502 -0.33166449609E+02 -0.19800254433E+02  0.37226992350E+02  0.53646178006E+02  0.00000000000E+00 0.  1.
          1    1    1    2  501    0  0.36296039201E+02 -0.16546289189E+02 -0.28955475781E+03  0.29228947966E+03  0.00000000000E+00 0. -1.
<scales pt_clust_3="60.86637" pt_clust_4="14000.00000" pt_clust_5="38.62724" pt_clust_6="39.85599"></scales>
<clustering>
<clus scale="   38.627">  1  5  2 -1</clus>
<clus scale="   39.856">  2  6  1 -1</clus>
<clus scale="   60.866">  2  3  1 -1</clus>
<clus scale="   38.627">  1  3  2 -1</clus>
</clustering>
</event>
<event>
 6    0  0.6525019E+002  0.7267223E+02  0.7546771E-02  0.1351235E+00
         21   -1    0    0  505  502  0.00000000000E+00  0.00000000000E+00  0.32231990964E+04  0.32231990964E+04  0.00000000000E+00 0.  1.
          1   -1    0    0  503    0 -0.00000000000E+00 -0.00000000000E+00 -0.78798039504E+02  0.78798039504E+02  0.00000000000E+00 0. -1.
         21    1    1    2  503  504  0.32906847582E+02 -0.55512300723E+02  0.20855149528E+03  0.21830758653E+03  0.00000000000E+00 0. -1.
         21    1    1    2  504  502 -0.40090067457E+02 -0.62867450103E+02  0.96905995809E+03  0.97192424198E+03  0.00000000000E+00 0.  1.
         21    1    1    2  505  501 -0.22286901822E+02  0.78250715499E+02  0.20298161257E+04  0.20314461314E+04  0.00000000000E+00 0.  1.
          1    1    1    2  501    0  0.29470121697E+02  0.40129035327E+02 -0.63026522147E+02  0.80319176060E+02  0.00000000000E+00 0. -1.
<scales pt_clust_3="60.03304" pt_clust_4="14000.00000" pt_clust_5="72.67223" pt_clust_6="49.78783"></scales>
<clustering>
<clus scale="   49.788">  2  6  1 -1</clus>
<clus scale="   60.033">  2  3  1 -1</clus>
<clus scale="   72.672">  1  5  2 -1</clus>
<clus scale="   72.672">  1  3  2 -1</clus>
</clustering>
</event>
<event>
 6    0  0.6525019E+002  0.1841012E+03  0.7546771E-02  0.1163892E+00
         21   -1    0    0  503  502  0.00000000000E+00  0.00000000000E+00  0.20555051373E+03  0.20555051373E+03  0.00000000000E+00 0. -1.
          1   -1    0    0  502    0 -0.00000000000E+00 -0.00000000000E+00 -0.12088385094E+04  0.12088385094E+04  0.00000000000E+00 0. -1.
         21    1    1    2  503  504  0.10497879138E+02  0.41067223491E+02  0.10508920104E+03  0.11331576451E+03  0.00000000000E+00 0. -1.
         21    1    1    2  504  505  0.71407466061E+02  0.13976277408E+02  0.19181825450E+02  0.75248288798E+02  0.00000000000E+00 0. -1.
         21    1    1    2  505  501 -0.32023216344E+02  0.13618688514E+03 -0.82861891335E+02  0.16259903784E+03  0.00000000000E+00 0. -1.
          1    1    1    2  501    0 -0.49882128855E+02 -0.19123038604E+03 -0.10446971308E+04  0.10632259320E+04  0.00000000000E+00 0. -1.
<scales pt_clust_3="42.38776" pt_clust_4="83.80384" pt_clust_5="14000.00000" pt_clust_6="184.10123"></scales>
<clustering>
<clus scale="   42.388">  1  3  2 -1</clus>
<clus scale="   83.804">  1  4  2 -1</clus>
<clus scale="  184.101">  2  6  1 -1</clus>
<clus scale="   42.388">  1  3  2 -1</clus>
</clustering>
</event>
<event>
 6    0  0.6525019E+002  0.1286144E+03  0.7546771E-02  0.1229526E+00
          1   -1    0    0  505    0 -0.00000000000E+00  0.00000000000E+00  0.72059614849E+03  0.72059614849E+03  0.00000000000E+00 0. -1.
         21   -1    0    0  504  502  0.00000000000E+00 -0.00000000000E+00 -0.25058574131E+03  0.25058574131E+03  0.00000000000E+00 0.  1.
         21    1    1    2  503  502 -0.40034786838E+02  0.13645193706E+01 -0.71873770362E+02  0.82282956536E+02  0.00000000000E+00 0.  1.
         21    1    1    2  504  501  0.16275313819E+03 -0.43032252277E+02 -0.11013639561E+03  0.20117252388E+03  0.00000000000E+00 0.  1.
         21    1    1    2  505  503 -0.10202485502E+03  0.13170564011E+02  0.13609430071E+03  0.17059951197E+03  0.00000000000E+00 0.  1.
          1    1    1    2  501    0 -0.20693496328E+02  0.28497168895E+02  0.51592627245E+03  0.51712689741E+03  0.00000000000E+00 0. -1.
<scales pt_clust_3="40.61643" pt_clust_4="14000.00000" pt_clust_5="128.61436" pt_clust_6="35.21803"></scales>
<clustering>
<clus scale="   35.218">  1  6  2 -1</clus>
<clus scale="   40.616">  2  3  1 -1</clus>
<clus scale="  128.614">  1  5  2 -1</clus>
<clus scale="   40.616">  2  3  1 -1</clus>
</clustering>
</event>
<event>
 6    0  0.6525019E+002  0.7027885E+02  0.7546771E-02  0.1359147E+00
         21   -1    0    0  505  502  0.00000000000E+00  0.00000000000E+00  0.53435241054E+03  0.53435241054E+03  0.00000000000E+00 0.  1.
          3   -1    0    0  504    0 -0.00000000000E+00 -0.00000000000E+00 -0.15076109150E+03  0.15076109150E+03  0.00000000000E+00 0.  1.
         21    1    1    2  503  501 -0.92789740691E+02 -0.20170507796E+02 -0.15205619028E+02  0.96166502548E+02  0.00000000000E+00 0.  1.
         21    1    1    2  504  502 -0.23509505863E+02 -0.43750456764E+02  0.35678256920E+03  0.36022298791E+03  0.00000000000E+00 0.  1.
         21    1    1    2  505  503  0.56937353141E+02  0.42394991379E+02  0.11316966809E+03  0.13359105978E+03  0.00000000000E+00 0.  1.
          3    1    1    2  501    0  0.59361893413E+02  0.21525973182E+02 -0.71155299220E+02  0.95132951800E+02  0.00000000000E+00 0.  1.
<scales pt_clust_3="70.27885" pt_clust_4="49.66688" pt_clust_5="42.10053" pt_clust_6="14000.00000"></scales>
<clustering>
<clus scale="   49.667">  1  4  2 -1</clus>
<clus scale="   42.101">  1  5  2 -1</clus>
<clus scale="   70.279">  1  3  2 -1</clus>
<clus scale="   49.667">  1  3  2 -1</clus>
</clustering>
</event>
<event>
 6    0  0.6525019E+002  0.8938305E+02  0.7546771E-02  0.1304353E+00
          2   -1    0    0  504    0 -0.00000000000E+00  0.00000000000E+00  0.16902200321E+04  0.16902200321E+04  0.00000000000E+00 0. -1.
         21   -1    0    0  505  502  0.00000000000E+00 -0.00000000000E+00 -0.65898932482E+02  0.65898932482E+02  0.00000000000E+00 0. -1.
         21    1    1    2  503  501 -0.13259918117E+01 -0.10141763939E+03  0.23506712074E+03  0.25601532588E+03  0.00000000000E+00 0.  1.
         21    1    1    2  504  502  0.14868906843E+02  0.77054240939E+02  0.24282400761E+03  0.25519000589E+03  0.00000000000E+00 0.  1.
         21    1    1    2  505  503 -0.38209733427E+02 -0.58613832203E+01 -0.41285149967E+02  0.56557962743E+02  0.00000000000E+00 0. -1.
          2    1    1    2  501    0  0.24666818396E+02  0.30224781669E+02  0.11877151212E+04  0.11883556700E+04  0.00000000000E+00 0. -1.
<scales pt_clust_3="14000.00000" pt_clust_4="89.38305" pt_clust_5="38.65669" pt_clust_6="38.47436"></scales>
<clustering>
<clus scale="   38.657">  2  5  1 -1</clus>
<clus scale="   38.474">  1  6  2 -1</clus>
<clus scale="   89.383">  2  4  1 -1</clus>
<clus scale="   38.657">  2  3  1 -1</clus>
</clustering>
</event>
<event>
 6    0  0.6525019E+002  0.1049647E+03  0.7546771E-02  0.1270189E+00
          2   -1    0    0  504    0 -0.00000000000E+00  0.00000000000E+00  0.20842189815E+04  0.20842189815E+04  0.00000000000E+00 0. -1.
         21   -1    0    0  503  502  0.00000000000E+00 -0.00000000000E+00 -0.12733468508E+04  0.12733468508E+04  0.00000000000E+00 0.  1.
         21    1    1    2  503  501 -0.50490363846E+02 -0.24602255020E+02 -0.24170132030E+03  0.24814124209E+03  0.00000000000E+00 0. -1.
         21    1    1    2  504  505  0.14235184491E+03  0.47280495454E+02  0.47639065729E+03  0.49944724581E+03  0.00000000000E+00 0. -1.
         21    1    1    2  505  502 -0.52396327431E+02 -0.10937983831E+01 -0.10159041690E+04  0.10172550575E+04  0.00000000000E+00 0.  1.
          2    1    1    2  501    0 -0.39465153629E+02 -0.21584442051E+02  0.15920869627E+04  0.15927222869E+04  0.00000000000E+00 0. -1.
<scales pt_clust_3="104.96471" pt_clust_4="14000.00000" pt_clust_5="52.46256" pt_clust_6="44.98207"></scales>
<clustering>
<clus scale="   44.982">  1  6  2 -1</clus>
<clus scale="   52.463">  2  5  1 -1</clus>
<clus scale="  104.965">  2  3  1 -1</clus>
<clus scale="   52.463">  2  3  1 -1</clus>
</clustering>
</event>
<event>
 6    0  0.6525019E+002  0.1570717E+03  0.7546771E-02  0.1192043E+00
          1   -1    0    0  505    0 -0.00000000000E+00  0.00000000000E+00  0.21401072885E+04  0.21401072885E+04  0.00000000000E+00 0.  1.
         21   -1    0    0  503  502  0.00000000000E+00 -0.00000000000E+00 -0.14165173040E+03  0.14165173040E+03  0.00000000000E+00 0.  1.
         21    1    1    2  503  504  0.43675386298E+02 -0.15808068263E+03 -0.76696047872E+02  0.18105061543E+03  0.00000000000E+00 0.  1.
         21    1    1    2  504  501 -0.40072992625E+02  0.98776183587E+02  0.37752587841E+03  0.39228607935E+03  0.00000000000E+00 0.  1.
         21    1    1    2  505  502 -0.54111839442E+02  0.45885670779E+01  0.15943125427E+03  0.16842645563E+03  0.00000000000E+00 0. -1.
          1    1    1    2  501    0  0.50509445768E+02  0.54715931963E+02  0.15381944733E+04  0.15399958685E+04  0.00000000000E+00 0.  1.
<scales pt_clust_3="157.07166" pt_clust_4="14000.00000" pt_clust_5="54.30604" pt_clust_6="58.88690"></scales>
<clustering>
<clus scale="   54.306">  1  5  2 -1</clus>
<clus scale="   58.887">  1  6  2 -1</clus>
<clus scale="  157.072">  2  3  1 -1</clus>
<clus scale="  157.072">  2  3  1 -1</clus>
</clustering>
</event>
<event>
 6    0  0.6525019E+002  0.7436809E+02  0.7546771E-02  0.1345839E+00
         21   -1    0    0  505  502  0.00000000000E+00  0.00000000000E+00  0.31125304544E+03  0.31125304544E+03  0.00000000000E+00 0.  1.
          1   -1    0    0  504    0 -0.00000000000E+00 -0.00000000000E+00 -0.40223339140E+03  0.40223339140E+03  0.00000000000E+00 0.  1.
         21    1    1    2  503  502  0.33654069983E+02  0.95500178826E+01  0.17467805983E+03  0.17814663582E+03  0.00000000000E+00 0.  1.
         21    1    1    2  504  503  0.48885943584E+02  0.82966522647E+01 -0.57087294052E+02  0.75615005528E+02  0.00000000000E+00 0.  1.
         21    1    1    2  505  501 -0.42436974396E+02  0.64799390920E+02  0.10641277529E+03  0.13161890671E+03  0.00000000000E+00 0. -1.
          1    1    1    2  501    0 -0.40103039171E+02 -0.82646061067E+02 -0.31498388703E+03  0.32810588878E+03  0.00000000000E+00 0.  1.
<scales pt_clust_3="34.98284" pt_clust_4="51.97492" pt_clust_5="74.36809" pt_clust_6="14000.00000"></scales>
<clustering>
<clus scale="   34.983">  1  3  2 -1</clus>
<clus scale="   51.975">  2  4  1 -1</clus>
<clus scale="   74.368">  1  5  2 -1</clus>
<clus scale="   34.983">  1  3  2 -1</clus>
</clustering>
</event>
<event>
 6    0  0.6525019E+002  0.6733048E+02  0.7546771E-02  0.1369414E+00
         21   -1    0    0  504  502  0.00000000000E+00  0.00000000000E+00  0.16624214043E+03  0.16624214043E+03  0.00000000000E+00 0.  1.
          2   -1    0    0  503    0 -0.00000000000E+00 -0.00000000000E+00 -0.12770573770E+04  0.12770573770E+04  0.00000000000E+00 0.  1.
         21    1    1    2  503  502 -0.34928069655E+02 -0.26109713755E+02 -0.16217813288E+02  0.46526386815E+02  0.00000000000E+00 0. -1.
         21    1    1    2  504  505 -0.42551829200E+01 -0.30166213208E+02  0.85666678014E+02  0.90922421453E+02  0.00000000000E+00 0.  1.
         21    1    1    2  505  501  0.93141709480E+02  0.94908409734E+02 -0.96176152598E+01  0.13332472691E+03  0.00000000000E+00 0.  1.
          2    1    1    2  501    0 -0.53958456904E+02 -0.38632482771E+02 -0.11706464860E+04  0.11725259823E+04  0.00000000000E+00 0.  1.
<scales pt_clust_3="47.96681" pt_clust_4="30.46485" pt_clust_5="14000.00000" pt_clust_6="67.33048"></scales>
<clustering>
<clus scale="   30.465">  1  4  2 -1</clus>
<clus scale="   47.967">  1  3  2 -1</clus>
<clus scale="   67.330">  2  6  1 -1</clus>
<clus scale="   30.465">  1  3  2 -1</clus>
</clustering>
</event>
<event>
 6    0  0.6525019E+002  0.1113638E+03  0.7546771E-02  0.1258065E+00
         21   -1    0    0  504  502  0.00000000000E+00  0.00000000000E+00  0.82156250936E+03  0.82156250936E+03  0.00000000000E+00 0.  1.
          4   -1    0    0  505    0 -0.00000000000E+00 -0.00000000000E+00 -0.61552017036E+03  0.61552017036E+03  0.00000000000E+00 0. -1.
         21    1    1    2  503  501 -0.76661319551E+02  0.51257676206E+02  0.81970206987E+02  0.12338323273E+03  0.00000000000E+00 0.  1.
         21    1    1    2  504  503  0.13488916193E+02 -0.44131379546E+02  0.57927102070E+02  0.74061316994E+02  0.00000000000E+00 0. -1.
         21    1    1    2  505  502  0.16937898004E+03 -0.38879828807E+02  0.63589004853E+03  0.65920940056E+03  0.00000000000E+00 0.  1.
          4    1    1    2  501    0 -0.10620657668E+03  0.31753532147E+02 -0.56974501859E+03  0.58042872943E+03  0.00000000000E+00 0. -1.
<scales pt_clust_3="87.45161" pt_clust_4="46.14683" pt_clust_5="14000.00000" pt_clust_6="111.36376"></scales>
<clustering>
<clus scale="   46.147">  1  4  2 -1</clus>
<clus scale="   87.452">  1  3  2 -1</clus>
<clus scale="  111.364">  2  6  1 -1</clus>
<clus scale="   46.147">  1  3  2 -1</clus>
</clustering>
</event>
<event>
 6    0  0.6525019E+002  0.3077829E+03  0.7546771E-02  0.1081413E+00
          2   -1    0    0  505    0 -0.00000000000E+00  0.00000000000E+00  0.14252368106E+04  0.14252368106E+04  0.00000000000E+00 0. -1.
         21   -1    0    0  503  502  0.00000000000E+00 -0.00000000000E+00 -0.16614340050E+04  0.16614340050E+04  0.00000000000E+00 0. -1.
         21    1    1    2  503  504 -0.37084152604E+02  0.19992470338E+01 -0.81363321294E+02  0.89438366572E+02  0.00000000000E+00 0. -1.
         21    1    1    2  504  501  0.28149359236E+03 -0.83579445991E+02 -0.24046720416E+03  0.37953740607E+03  0.00000000000E+00 0. -1.
         21    1    1    2  505  502  0.60093146099E+02  0.30797782216E+02 -0.12474792831E+04  0.12493055076E+04  0.00000000000E+00 0. -1.
          2    1    1    2  501    0 -0.30450258585E+03  0.50782416741E+02  0.13331126141E+04  0.13683895353E+04  0.00000000000E+00 0. -1.
<scales pt_clust_3="37.13800" pt_clust_4="307.78286" pt_clust_5="44.63379" pt_clust_6="14000.00000"></scales>
<clustering>
<clus scale="   37.138">  2  3  1 -1</clus>
<clus scale="   44.634">  2  5  1 -1</clus>
<clus scale="  307.783">  2  4  1 -1</clus>
<clus scale="   37.138">  2  3  1 -1</clus>
</clustering>
</event>
<event>
 6    0  0.6525019E+002  0.1745833E+03  0.7546771E-02  0.1173151E+00
         21   -1    0    0  505  502  0.00000000000E+00  0.00000000000E+00  0.25405872903E+04  0.25405872903E+04  0.00000000000E+00 0.  1.
         -2   -1    0    0    0  501 -0.00000000000E+00 -0.00000000000E+00 -0.84061177613E+03  0.84061177613E+03  0.00000000000E+00 0. -1.
         21    1    1    2  503  502 -0.34938153850E+02  0.11696426287E+02  0.19742399080E+03  0.20083254996E+03  0.00000000000E+00 0. -1.
         21    1    1    2  504  501 -0.67605097574E+02 -0.14413643192E+03 -0.16301975302E+03  0.22786223931E+03  0.00000000000E+00 0. -1.
         21    1    1    2  505  504  0.16674021893E+03  0.10351319379E+03  0.23029251322E+04  0.23112726898E+04  0.00000000000E+00 0.  1.
         -2    1    1    2    0  503 -0.64196967505E+02  0.28926811841E+02 -0.63735385584E+03  0.64123158737E+03  0.00000000000E+00 0. -1.
<scales pt_clust_3="36.84401" pt_clust_4="14000.00000" pt_clust_5="174.58333" pt_clust_6="70.44350"></scales>
<clustering>
<clus scale="   36.844">  1  3  2 -1</clus>
<clus scale="   70.444">  2  6  1 -1</clus>
<clus scale="  174.583">  1  5  2 -1</clus>
<clus scale="   36.844">  1  3  2 -1</clus>
</clustering>
</event>
<event>
 6    0  0.6525019E+002  0.8474578E+02  0.7546771E-02  0.1316099E+00
         21   -1    0    0  501  502  0.00000000000E+00  0.00000000000E+00  0.22406977013E+03  0.22406977013E+03  0.00000000000E+00 0. -1.
          2   -1    0    0  504    0 -0.00000000000E+00 -0.00000000000E+00 -0.33802955774E+03  0.33802955774E+03  0.00000000000E+00 0. -1.
         21    1    1    2  503  505  0.73231786296E+02  0.49147645223E+02  0.62087242889E+02  0.10785736546E+03  0.00000000000E+00 0. -1.
         21    1    1    2  504  503 -0.84656712995E+02  0.70183438263E+02 -0.21946580028E+02  0.11213441237E+03  0.00000000000E+00 0. -1.
         21    1    1    2  505  502 -0.11120559299E+02 -0.39097958172E+02  0.82112807056E+02  0.91623306287E+02  0.00000000000E+00 0. -1.
          2    1    1    2  501    0  0.22545485998E+02 -0.80233125315E+02 -0.23621325753E+03  0.25048424375E+03  0.00000000000E+00 0. -1.
<scales pt_clust_3="70.87505" pt_clust_4="14000.00000" pt_clust_5="40.64870" pt_clust_6="84.74578"></scales>
<clustering>
<clus scale="   40.649">  1  5  2 -1</clus>
<clus scale="   70.875">  1  3  2 -1</clus>
<clus scale="   84.746">  2  6  1 -1</clus>
<clus scale="   40.649">  1  3  2 -1</clus>
</clustering>
</event>
<event>
 6    0  0.6525019E+002  0.1865041E+03  0.7546771E-02  0.1161653E+00
         -1   -1    0    0    0  501 -0.00000000000E+00  0.00000000000E+00  0.11631564004E+04  0.11631564004E+04  0.00000000000E+00 0.  1.
         21   -1    0    0  503  502  0.00000000000E+00 -0.00000000000E+00 -0.12268751578E+03  0.12268751578E+03  0.00000000000E+00 0.  1.
         21    1    1    2  503  501 -0.46929002648E+02  0.18673665027E+03  0.35748412587E+03  0.40603917064E+03  0.00000000000E+00 0.  1.
         21    1    1    2  504  502 -0.20781285121E+02  0.57199827928E+02 -0.15799154947E+02  0.62875236964E+02  0.00000000000E+00 0.  1.
         21    1    1    2  505  504  0.10749123857E+02 -0.21928000435E+03  0.15292798236E+03  0.26755603481E+03  0.00000000000E+00 0.  1.
         -1    1    1    2    0  505  0.56961163912E+02 -0.24656473845E+02  0.54585593137E+03  0.54937347379E+03  0.00000000000E+00 0.  1.
<scales pt_clust_3="14000.00000" pt_clust_4="60.85788" pt_clust_5="186.50406" pt_clust_6="61.19387"></scales>
<clustering>
<clus scale="   60.858">  2  4  1 -1</clus>
<clus scale="   61.194">  1  6  2 -1</clus>
<clus scale="  186.504">  2  5  1 -1</clus>
<clus scale="   60.858">  2  3  1 -1</clus>
</clustering>
</event>
<event>
 6    0  0.6525019E+002  0.1243056E+03  0.7546771E-02  0.1236158E+00
         21   -1    0    0  503  502  0.00000000000E+00  0.00000000000E+00  0.31568865168E+03  0.31568865168E+03  0.00000000000E+00 0. -1.
         -3   -1    0    0    0  501 -0.00000000000E+00 -0.00000000000E+00 -0.66220082779E+03  0.66220082779E+03  0.00000000000E+00 0. -1.
         21    1    1    2  503  504 -0.31149234507E+02 -0.88957341124E+02  0.25370029625E+03  0.27064279718E+03  0.00000000000E+00 0. -1.
         21    1    1    2  504  501 -0.12062747037E+03  0.99312901777E+02 -0.27484633285E+03  0.31615588836E+03  0.00000000000E+00 0. -1.
         21    1    1    2  505  502  0.41447062298E+02  0.17372656223E+02  0.15289373544E+01  0.44966718880E+02  0.00000000000E+00 0. -1.
         -3    1    1    2    0  505  0.11032964258E+03 -0.27728216876E+02 -0.32689507687E+03  0.34612407504E+03  0.00000000000E+00 0. -1.
<scales pt_clust_3="73.62837" pt_clust_4="124.30562" pt_clust_5="44.94072" pt_clust_6="14000.00000"></scales>
<clustering>
<clus scale="   44.941">  1  5  2 -1</clus>
<clus scale="   73.628">  1  3  2 -1</clus>
<clus scale="  124.306">  1  4  2 -1</clus>
<clus scale="   44.941">  1  3  2 -1</clus>
</clustering>
</event>
<event>
 6    0  0.6525019E+002  0.6699424E+02  0.7546771E-02  0.1370623E+00
         21   -1    0    0  505  502  0.00000000000E+00  0.00000000000E+00  0.25045636355E+03  0.25045636355E+03  0.00000000000E+00 0.  1.
          2   -1    0    0  504    0 -0.00000000000E+00 -0.00000000000E+00 -0.73483207705E+03  0.73483207705E+03  0.00000000000E+00 0. -1.
         21    1    1    2  503  501  0.66947645263E+02  0.57517462960E+02  0.21598997894E+02  0.90866729123E+02  0.00000000000E+00 0. -1.
         21    1    1    2  504  502 -0.25688957789E+02  0.30686226551E+02 -0.20909704185E+03  0.21289232011E+03  0.00000000000E+00 0.  1.
         21    1    1    2  505  503 -0.57856037250E+02 -0.27545848438E+02  0.18488751937E+03  0.19567700333E+03  0.00000000000E+00 0.  1.
          2    1    1    2  501    0  0.16597349776E+02 -0.60657841073E+02 -0.48176518891E+03  0.48585238803E+03  0.00000000000E+00 0. -1.
<scales pt_clust_3="14000.00000" pt_clust_4="40.01958" pt_clust_5="66.99424" pt_clust_6="33.09338"></scales>
<clustering>
<clus scale="   40.020">  2  4  1 -1</clus>
<clus scale="   33.093">  2  6  1 -1</clus>
<clus scale="   66.994">  1  5  2 -1</clus>
<clus scale="   66.994">  1  3  2 -1</clus>
</clustering>
</event>
<event>
 6    0  0.6525019E+002  0.1046848E+03  0.7546771E-02  0.1270742E+00
          2   -1    0    0  505    0 -0.00000000000E+00  0.00000000000E+00  0.16768280166E+04  0.16768280166E+04  0.00000000000E+00 0.  1.
         21   -1    0    0  504  502  0.00000000000E+00 -0.00000000000E+00 -0.29313044969E+02  0.29313044969E+02  0.00000000000E+00 0.  1.
         21    1    1    2  503  502 -0.36144503185E+02 -0.94721602833E+02  0.18853410300E+03  0.21406474523E+03  0.00000000000E+00 0.  1.
         21    1    1    2  504  501 -0.33734250148E+02 -0.12682852176E+02  0.18503786078E+02  0.40512275567E+02  0.00000000000E+00 0.  1.
         21    1    1    2  505  503  0.49088814806E+02  0.80700612515E+02  0.41852831650E+03  0.42905506909E+03  0.00000000000E+00 0.  1.
          2    1    1    2  501    0  0.20789938528E+02  0.26703842493E+02  0.10219487660E+04  0.10225089717E+04  0.00000000000E+00 0.  1.
<scales pt_clust_3="104.68480" pt_clust_4="34.74792" pt_clust_5="14000.00000" pt_clust_6="33.84253"></scales>
<clustering>
<clus scale="   33.843">  1  6  2 -1</clus>
<clus scale="   34.748">  2  4  1 -1</clus>
<clus scale="  104.685">  2  3  1 -1</clus>
<clus scale="   34.748">  2  3  1 -1</clus>
</clustering>
</event>
<event>
 6    0  0.6525019E+002  0.1285361E+03  0.7546771E-02  0.1229644E+00
         21   -1    0    0  504  502  0.00000000000E+00  0.00000000000E+00  0.46570532381E+03  0.46570532381E+03  0.00000000000E+00 0. -1.
          1   -1    0    0  505    0 -0.00000000000E+00 -0.00000000000E+00 -0.71623078972E+02  0.71623078972E+02  0.00000000000E+00 0.  1.
         21    1    1    2  503  501  0.43826126229E+02 -0.26896513740E+02  0.35285406671E+02  0.62363544764E+02  0.00000000000E+00 0. -1.
         21    1    1    2  504  503 -0.10602997134E+03  0.54335262179E+02  0.33422008430E+03  0.35482071569E+03  0.00000000000E+00 0. -1.
         21    1    1    2  505  502  0.22987906736E+02  0.26536751378E+02  0.38377390465E+02  0.52014105094E+02  0.00000000000E+00 0. -1.
          1    1    1    2  501    0  0.39215938374E+02 -0.53975499818E+02 -0.13800636592E+02  0.68130037233E+02  0.00000000000E+00 0.  1.
<scales pt_clust_3="49.68894" pt_clust_4="115.71872" pt_clust_5="35.10902" pt_clust_6="49.68894"></scales>
<clustering>
<clus scale="   35.109">  1  5  2 -1</clus>
<clus scale="   49.689">  3  6 -1 -1</clus>
<clus scale="  115.719">  1  4  2 -1</clus>
<clus scale="   35.109">  1  3  2 -1</clus>
</clustering>
</event>
<event>
 6    0  0.6525019E+002  0.1160218E+03  0.7546771E-02  0.1249808E+00
          2   -1    0    0  505    0 -0.00000000000E+00  0.00000000000E+00  0.15360563810E+04  0.15360563810E+04  0.00000000000E+00 0. -1.
         21   -1    0    0  504  502  0.00000000000E+00 -0.00000000000E+00 -0.20055749978E+03  0.20055749978E+03  0.00000000000E+00 0.  1.
         21    1    1    2  503  502 -0.61652264892E+02  0.71825049734E+02 -0.14154465944E+03  0.17027839015E+03  0.00000000000E+00 0.  1.
         21    1    1    2  504  501  0.84360218117E+02  0.54959262052E+02  0.26708537541E+02  0.10416579508E+03  0.00000000000E+00 0.  1.
         21    1    1    2  505  503  0.71893232420E+01 -0.11081735062E+03  0.54491775881E+03  0.55611827468E+03  0.00000000000E+00 0. -1.
          2    1    1    2  501    0 -0.29897276467E+02 -0.15966961165E+02  0.90541724429E+03  0.90605142086E+03  0.00000000000E+00 0. -1.
<scales pt_clust_3="94.82712" pt_clust_4="116.02182" pt_clust_5="14000.00000" pt_clust_6="33.89382"></scales>
<clustering>
<clus scale="   33.894">  1  6  2 -1</clus>
<clus scale="   94.827">  2  3  1 -1</clus>
<clus scale="  116.022">  2  4  1 -1</clus>
<clus scale="   94.827">  2  3  1 -1</clus>
</clustering>
</event>
<event>
 6    0  0.6525019E+002  0.7398520E+02  0.7546771E-02  0.1347043E+00
          2   -1    0    0  505    0 -0.00000000000E+00  0.00000000000E+00  0.10223684150E+04  0.10223684150E+04  0.00000000000E+00 0.  1.
         21   -1    0    0  504  502  0.00000000000E+00 -0.00000000000E+00 -0.49280587027E+02  0.49280587027E+02  0.00000000000E+00 0.  1.
         21    1    1    2  503  501  0.36168793100E+02  0.59691491138E+02  0.80429995868E+02  0.10649056270E+03  0.00000000000E+00 0.  1.
         21    1    1    2  504  503  0.73609214312E+02 -0.18171501079E+02  0.74319131666E+02  0.10616898424E+03  0.00000000000E+00 0.  1.
         21    1    1    2  505  502 -0.41289694266E+02 -0.87126057573E+01  0.54363349157E+01  0.42547644929E+02  0.00000000000E+00 0.  1.
          2    1    1    2  501    0 -0.68488313146E+02 -0.32807384302E+02  0.81290236555E+03  0.81644181019E+03  0.00000000000E+00 0.  1.
<scales pt_clust_3="73.98520" pt_clust_4="56.92488" pt_clust_5="42.19891" pt_clust_6="14000.00000"></scales>
<clustering>
<clus scale="   42.199">  2  5  1 -1</clus>
<clus scale="   56.925">  2  4  1 -1</clus>
<clus scale="   73.985">  2  3  1 -1</clus>
<clus scale="   42.199">  2  3  1 -1</clus>
</clustering>
</event>
<event>
 6    0  0.6525019E+002  0.1192610E+03  0.7546771E-02  0.1244321E+00
         21   -1    0    0  504  502  0.00000000000E+00  0.00000000000E+00  0.27598052597E+04  0.27598052597E+04  0.00000000000E+00 0.  1.
          3   -1    0    0  505    0 -0.00000000000E+00 -0.00000000000E+00 -0.98110898079E+02  0.98110898079E+02  0.00000000000E+00 0. -1.
         21    1    1    2  503  502 -0.32497825173E+02 -0.24343346700E+02  0.14768763537E+04  0.14774344220E+04  0.00000000000E+00 0.  1.
         21    1    1    2  504  501 -0.60258411561E+02 -0.14808292508E+03  0.35482236675E+03  0.38917674752E+03  0.00000000000E+00 0.  1.
         21    1    1    2  505  503  0.90545850731E+02  0.10350898641E+03  0.88959651135E+03  0.90016365976E+03  0.00000000000E+00 0.  1.
          3    1    1    2  501    0  0.22103860036E+01  0.68917285373E+02 -0.59600870200E+02  0.91141328485E+02  0.00000000000E+00 0. -1.
<scales pt_clust_3="40.60428" pt_clust_4="119.26101" pt_clust_5="14000.00000" pt_clust_6="68.64187"></scales>
<clustering>
<clus scale="   40.604">  1  3  2 -1</clus>
<clus scale="   68.642">  2  6  1 -1</clus>
<clus scale="  119.261">  2  4  1 -1</clus>
<clus scale="   40.604">  1  3  2 -1</clus>
</clustering>
</event>
<event>
 6    0  0.6525019E+002  0.7156230E+02  0.7546771E-02  0.1354860E+00
         21   -1    0    0  505  502  0.00000000000E+00  0.00000000000E+00  0.41071097968E+03  0.41071097968E+03  0.00000000000E+00 0. -1.
          2   -1    0    0  503    0 -0.00000000000E+00 -0.00000000000E+00 -0.59771766678E+03  0.59771766678E+03  0.00000000000E+00 0.  1.
         21    1    1    2  503  502 -0.85473443483E+02  0.51740009789E+02 -0.11810309011E+03  0.15469672927E+03  0.00000000000E+00 0. -1.
         21    1    1    2  504  501  0.67059981809E+02 -0.11436410858E+02  0.12424994143E+02  0.69153547508E+02  0.00000000000E+00 0. -1.
         21    1    1    2  505  504 -0.21110154704E+02 -0.39253873800E+02  0.34930325723E+03  0.35213530176E+03  0.00000000000E+00 0. -1.
          2    1    1    2  501    0  0.39523616378E+02 -0.10497251312E+01 -0.43063184836E+03  0.43244306792E+03  0.00000000000E+00 0.  1.
<scales pt_clust_3="71.56230" pt_clust_4="14000.00000" pt_clust_5="44.41961" pt_clust_6="39.53755"></scales>
<clustering>
<clus scale="   39.538">  2  6  1 -1</clus>
<clus scale="   44.420">  1  5  2 -1</clus>
<clus scale="   71.562">  2  3  1 -1</clus>
<clus scale="   44.420">  1  3  2 -1</clus>
</clustering>
</event>
<event>
 6    0  0.6525019E+002  0.1092619E+03  0.7546771E-02  0.1261943E+00
          2   -1    0    0  504    0 -0.00000000000E+00  0.00000000000E+00  0.12919749658E+04  0.12919749658E+04  0.00000000000E+00 0. -1.
         21   -1    0    0  501  502  0.00000000000E+00 -0.00000000000E+00 -0.12482016509E+03  0.12482016509E+03  0.00000000000E+00 0.  1.
         21    1    1    2  503  502 -0.48157498185E+02  0.99204792219E+02 -0.83488523931E+02  0.13831510785E+03  0.00000000000E+00 0.  1.
         21    1    1    2  504  505  0.41340363773E+02  0.11489493913E+02  0.69051443300E+02  0.81296592604E+02  0.00000000000E+00 0.  1.
         21    1    1    2  505  503 -0.12216972196E+02 -0.44177522629E+02  0.71453292805E+02  0.84890994622E+02  0.00000000000E+00 0.  1.
          2    1    1    2  501    0  0.19034106609E+02 -0.66516763504E+02  0.11101385886E+04  0.11122924359E+04  0.00000000000E+00 0. -1.
<scales pt_clust_3="14000.00000" pt_clust_4="42.90727" pt_clust_5="44.47916" pt_clust_6="109.26192"></scales>
<clustering>
<clus scale="   42.907">  1  4  2 -1</clus>
<clus scale="   44.479">  1  5  2 -1</clus>
<clus scale="  109.262">  1  6  2 -1</clus>
<clus scale="  109.262">  2  3  1 -1</clus>
</clustering>
</event>
<event>
 6    0  0.6525019E+002  0.8667586E+02  0.7546771E-02  0.1311107E+00
          1   -1    0    0  504    0 -0.00000000000E+00  0.00000000000E+00  0.31814830270E+03  0.31814830270E+03  0.00000000000E+00 0.  1.
         21   -1    0    0  503  502  0.00000000000E+00 -0.00000000000E+00 -0.75360280107E+03  0.75360280107E+03  0.00000000000E+00 0.  1.
         21    1    1    2  503  501 -0.26677784492E+02 -0.62904053993E+02  0.42852083013E+01  0.68461574656E+02  0.00000000000E+00 0.  1.
         21    1    1    2  504  505 -0.33561207635E+02  0.10180678717E+03 -0.28834414933E+02  0.11100630639E+03  0.00000000000E+00 0.  1.
         21    1    1    2  505  502  0.47718341830E+02 -0.70972877514E+02 -0.64753695134E+03  0.65316023519E+03  0.00000000000E+00 0.  1.
          1    1    1    2  501    0  0.12520650297E+02  0.32070144332E+02  0.23663165960E+03  0.23912298753E+03  0.00000000000E+00 0.  1.
<scales pt_clust_3="52.73550" pt_clust_4="86.67586" pt_clust_5="14000.00000" pt_clust_6="34.42762"></scales>
<clustering>
<clus scale="   34.428">  1  6  2 -1</clus>
<clus scale="   52.735">  1  3  2 -1</clus>
<clus scale="   86.676">  1  4  2 -1</clus>
<clus scale="   86.676">  2  3  1 -1</clus>
</clustering>
</event>
<event>
 6    0  0.6525019E+002  0.1689067E+03  0.7546771E-02  0.1178993E+00
         21   -1    0    0  504  502  0.00000000000E+00  0.00000000000E+00  0.47604184297E+03  0.47604184297E+03  0.00000000000E+00 0.  1.
          2   -1    0    0  505    0 -0.00000000000E+00 -0.00000000000E+00 -0.36018345301E+04  0.36018345301E+04  0.00000000000E+00 0.  1.
         21    1    1    2  503  502 -0.37546367227E+02 -0.74115161366E+01  0.22433069900E+01  0.38336571178E+02  0.00000000000E+00 0.  1.
         21    1    1    2  504  501  0.38270015761E+02  0.11582383014E+03  0.40237270343E+03  0.42045635469E+03  0.00000000000E+00 0.  1.
         21    1    1    2  505  503 -0.15245361195E+03 -0.78652795285E+02 -0.13020038067E+03  0.21536133620E+03  0.00000000000E+00 0.  1.
          2    1    1    2  501    0  0.15172996342E+03 -0.29759518716E+02 -0.34002083168E+04  0.34037221110E+04  0.00000000000E+00 0.  1.
<scales pt_clust_3="31.62319" pt_clust_4="121.98260" pt_clust_5="31.62319" pt_clust_6="155.07067"></scales>
<clustering>
<clus scale="   31.623">  3  5 -1 -1</clus>
<clus scale="  121.983">  1  4  2 -1</clus>
<clus scale="  155.071">  2  6  1 -1</clus>
<clus scale="  121.983">  1  3  2 -1</clus>
</clustering>
</event>
<event>
 6    0  0.6525019E+002  0.7998843E+02  0.7546771E-02  0.1329084E+00
          2   -1    0    0  503    0 -0.00000000000E+00  0.00000000000E+00  0.59065991653E+03  0.59065991653E+03  0.00000000000E+00 0.  1.
         21   -1    0    0  504  502  0.00000000000E+00 -0.00000000000E+00 -0.28725201002E+03  0.28725201002E+03  0.00000000000E+00 0.  1.
         21    1    1    2  503  505  0.41873098052E+02 -0.33735657538E+02  0.12007161385E+03  0.13156231749E+03  0.00000000000E+00 0.  1.
         21    1    1    2  504  501 -0.29245820273E+02  0.10221783554E+03  0.11533975115E+03  0.15686638295E+03  0.00000000000E+00 0.  1.
         21    1    1    2  505  502  0.31329778982E+02 -0.19115056709E+02 -0.25609909575E+03  0.25871545622E+03  0.00000000000E+00 0.  1.
          2    1    1    2  501    0 -0.43957056761E+02 -0.49367121294E+02  0.32409563726E+03  0.33076776988E+03  0.00000000000E+00 0.  1.
<scales pt_clust_3="60.78439" pt_clust_4="79.98843" pt_clust_5="36.70069" pt_clust_6="14000.00000"></scales>
<clustering>
<clus scale="   36.701">  2  5  1 -1</clus>
<clus scale="   60.784">  1  3  2 -1</clus>
<clus scale="   79.988">  2  4  1 -1</clus>
<clus scale="   36.701">  2  3  1 -1</clus>
</clustering>
</event>
<event>
 6    0  0.6525019E+002  0.1121085E+03  0.7546771E-02  0.1256714E+00
          1   -1    0    0  503    0 -0.00000000000E+00  0.00000000000E+00  0.12997955424E+03  0.12997955424E+03  0.00000000000E+00 0. -1.
         21   -1    0    0  501  502  0.00000000000E+00 -0.00000000000E+00 -0.10240239646E+04  0.10240239646E+04  0.00000000000E+00 0. -1.
         21    1    1    2  503  504  0.23798287593E+01 -0.44769427415E+02 -0.40285846042E+02  0.60273664293E+02  0.00000000000E+00 0. -1.
         21    1    1    2  504  505 -0.66319018850E+02  0.28734692859E+01 -0.23923241623E+03  0.24827125903E+03  0.00000000000E+00 0. -1.
         21    1    1    2  505  502 -0.60183250572E+02  0.15476812900E+02 -0.69330986829E+03  0.69608916732E+03  0.00000000000E+00 0. -1.
          1    1    1    2  501    0  0.12412244066E+03  0.26419145229E+02  0.78783720205E+02  0.14936942820E+03  0.00000000000E+00 0. -1.
<scales pt_clust_3="44.83264" pt_clust_4="112.10849" pt_clust_5="61.98756" pt_clust_6="14000.00000"></scales>
<clustering>
<clus scale="   44.833">  1  3  2 -1</clus>
<clus scale="   61.988">  2  5  1 -1</clus>
<clus scale="  112.108">  2  4  1 -1</clus>
<clus scale="   61.988">  2  3  1 -1</clus>
</clustering>
</event>
<event>
 6    0  0.6525019E+002  0.9354196E+02  0.7546771E-02  0.1294494E+00
         -3   -1    0    0    0  501 -0.00000000000E+00  0.00000000000E+00  0.21881191674E+03  0.21881191674E+03  0.00000000000E+00 0.  1.
         21   -1    0    0  505  502  0.00000000000E+00 -0.00000000000E+00 -0.14459670459E+03  0.14459670459E+03  0.00000000000E+00 0.  1.
         21    1    1    2  503  501  0.82137496293E+02 -0.53259852751E+02  0.73999026830E+02  0.12271526467E+03  0.00000000000E+00 0.  1.
         21    1    1    2  504  502 -0.23509817665E+02  0.53377296191E+02  0.11443549008E+02  0.59437379562E+02  0.00000000000E+00 0.  1.
         21    1    1    2  505  503  0.38908364418E+02  0.14816991862E+01 -0.60517425627E+02  0.71961205234E+02  0.00000000000E+00 0.  1.
         -3    1    1    2    0  504 -0.97536043046E+02 -0.15991426266E+01  0.49290061932E+02  0.10929477186E+03  0.00000000000E+00 0.  1.
<scales pt_clust_3="14000.00000" pt_clust_4="55.06549" pt_clust_5="38.93657" pt_clust_6="93.54196"></scales>
<clustering>
<clus scale="   38.937">  2  5  1 -1</clus>
<clus scale="   55.065">  2  4  1 -1</clus>
<clus scale="   93.542">  2  6  1 -1</clus>
<clus scale="   38.937">  2  3  1 -1</clus>
</clustering>
</event>
<event>
 6    0  0.6525019E+002  0.1623208E+03  0.7546771E-02  0.1186101E+00
          2   -1    0    0  505    0 -0.00000000000E+00  0.00000000000E+00  0.28042520610E+04  0.28042520610E+04  0.00000000000E+00 0. -1.
         21   -1    0    0  504  502  0.00000000000E+00 -0.00000000000E+00 -0.32036897510E+03  0.32036897510E+03  0.00000000000E+00 0.  1.
         21    1    1    2  503  501  0.63090657352E+02  0.39100877062E+02  0.88473257060E+03  0.88784065637E+03  0.00000000000E+00 0. -1.
         21    1    1    2  504  503 -0.13649252837E+03 -0.61763655275E+02 -0.29848479721E+03  0.33397325279E+03  0.00000000000E+00 0.  1.
         21    1    1    2  505  502 -0.20317119700E+02  0.38720379365E+02  0.48053753028E+03  0.48252292291E+03  0.00000000000E+00 0. -1.
          2    1    1    2  501    0  0.93718990714E+02 -0.16057601151E+02  0.14170977822E+04  0.14202842040E+04  0.00000000000E+00 0. -1.
<scales pt_clust_3="60.71000" pt_clust_4="149.83625" pt_clust_5="43.72703" pt_clust_6="60.71000"></scales>
<clustering>
<clus scale="   43.727">  1  5  2 -1</clus>
<clus scale="   60.710">  3  6 -1 -1</clus>
<clus scale="  149.836">  2  4  1 -1</clus>
<clus scale="  149.836">  2  3  1 -1</clus>
</clustering>
</event>
<event>
 6    0  0.6525019E+002  0.7670719E+02  0.7546771E-02  0.1338664E+00
         21   -1    0    0  501  502  0.00000000000E+00  0.00000000000E+00  0.82875794201E+02  0.82875794201E+02  0.00000000000E+00 0.  1.
          2   -1    0    0  503    0 -0.00000000000E+00 -0.00000000000E+00 -0.49309305358E+03  0.49309305358E+03  0.00000000000E+00 0.  1.
         21    1    1    2  503  505  0.66015308055E+02  0.99450204483E+01 -0.65482643198E+02  0.93514174805E+02  0.00000000000E+00 0.  1.
         21    1    1    2  504  502  0.37223397567E+02  0.43668497747E+02  0.21731623819E+02  0.61357823427E+02  0.00000000000E+00 0.  1.
         21    1    1    2  505  504 -0.59301335268E+02 -0.98552651556E+02 -0.11791109575E+03  0.16471885136E+03  0.00000000000E+00 0.  1.
          2    1    1    2  501    0 -0.43937370354E+02  0.44939133361E+02 -0.24855514425E+03  0.25637799819E+03  0.00000000000E+00 0.  1.
<scales pt_clust_3="76.70719" pt_clust_4="57.38048" pt_clust_5="14000.00000" pt_clust_6="63.57188"></scales>
<clustering>
<clus scale="   57.380">  1  4  2 -1</clus>
<clus scale="   63.572">  2  6  1 -1</clus>
<clus scale="   76.707">  2  3  1 -1</clus>
<clus scale="   57.380">  1  3  2 -1</clus>
</clustering>
</event>
<event>
 6    0  0.6525019E+002  0.6045564E+02  0.7546771E-02  0.1395930E+00
         21   -1    0    0  505  502  0.00000000000E+00  0.00000000000E+00  0.69238228974E+02  0.69238228974E+02  0.00000000000E+00 0. -1.
         -2   -1    0    0    0  501 -0.00000000000E+00 -0.00000000000E+00 -0.13053634209E+04  0.13053634209E+04  0.00000000000E+00 0. -1.
         21    1    1    2  503  502  0.10081910953E+03  0.18234493653E+02  0.12517342019E+02  0.10321663362E+03  0.00000000000E+00 0. -1.
         21    1    1    2  504  501 -0.52289503509E+02  0.39466819682E+02 -0.57505463237E+03  0.57877426709E+03  0.00000000000E+00 0. -1.
         21    1    1    2  505  504 -0.41275667317E+02 -0.14386807896E+02 -0.45882464461E+02  0.63370825297E+02  0.00000000000E+00 0. -1.
         -2    1    1    2    0  503 -0.72539387011E+01 -0.43314505439E+02 -0.62770543716E+03  0.62923992392E+03  0.00000000000E+00 0. -1.
<scales pt_clust_3="14000.00000" pt_clust_4="60.45564" pt_clust_5="43.71111" pt_clust_6="44.18682"></scales>
<clustering>
<clus scale="   43.711">  1  5  2 -1</clus>
<clus scale="   44.187">  2  6  1 -1</clus>
<clus scale="   60.456">  2  4  1 -1</clus>
<clus scale="   43.711">  1  3  2 -1</clus>
</clustering>
</event>
<event>
 6    0  0.6525019E+002  0.9122253E+02  0.7546771E-02  0.1299918E+00
          2   -1    0    0  505    0 -0.00000000000E+00  0.00000000000E+00  0.26117968575E+04  0.26117968575E+04  0.00000000000E+00 0.  1.
         21   -1    0    0  504  502  0.00000000000E+00 -0.00000000000E+00 -0.83981596142E+02  0.83981596142E+02  0.00000000000E+00 0.  1.
         21    1    1    2  503  502 -0.34852604725E+02  0.36593294767E+02 -0.59524865512E+02  0.78083179317E+02  0.00000000000E+00 0.  1.
         21    1    1    2  504  501 -0.48488768035E+02  0.23931863361E+02  0.48429437544E+03  0.48730374182E+03  0.00000000000E+00 0. -1.
         21    1    1    2  505  503  0.13517752085E+03 -0.48151584378E+02  0.37490210365E+03  0.40142636254E+03  0.00000000000E+00 0.  1.
          2    1    1    2  501    0 -0.51836148095E+02 -0.12373573750E+02  0.17281436478E+04  0.17289651699E+04  0.00000000000E+00 0.  1.
<scales pt_clust_3="50.53487" pt_clust_4="91.22253" pt_clust_5="14000.00000" pt_clust_6="53.99298"></scales>
<clustering>
<clus scale="   50.535">  2  3  1 -1</clus>
<clus scale="   53.993">  1  6  2 -1</clus>
<clus scale="   91.223">  1  4  2 -1</clus>
<clus scale="   50.535">  2  3  1 -1</clus>
</clustering>
</event>
<event>
 6    0  0.6525019E+002  0.1636058E+03  0.7546771E-02  0.1184685E+00
         21   -1    0    0  505  502  0.00000000000E+00  0.00000000000E+00  0.83752259891E+02  0.83752259891E+02  0.00000000000E+00 0.  1.
          2   -1    0    0  503    0 -0.00000000000E+00 -0.00000000000E+00 -0.27292387546E+04  0.27292387546E+04  0.00000000000E+00 0.  1.
         21    1    1    2  503  504  0.67197836703E+01 -0.20882570128E+03 -0.27859575527E+03  0.34823687895E+03  0.00000000000E+00 0.  1.
         21    1    1    2  504  502  0.11345089453E+02 -0.28127224175E+02  0.41233184735E+01  0.30608063476E+02  0.00000000000E+00 0.  1.
         21    1    1    2  505  501 -0.17651735408E+02  0.14912338477E+03 -0.15294859881E+03  0.21434234656E+03  0.00000000000E+00 0.  1.
          2    1    1    2  501    0 -0.41313771527E+00  0.87829540685E+02 -0.22180654591E+04  0.22198037255E+04  0.00000000000E+00 0.  1.
<scales pt_clust_3="163.60583" pt_clust_4="30.32906" pt_clust_5="14000.00000" pt_clust_6="87.46170"></scales>
<clustering>
<clus scale="   30.329">  1  4  2 -1</clus>
<clus scale="   87.462">  2  6  1 -1</clus>
<clus scale="  163.606">  2  3  1 -1</clus>
<clus scale="   30.329">  1  3  2 -1</clus>
</clustering>
</event>
<event>
 6    0  0.6525019E+002  0.2550790E+03  0.7546771E-02  0.1110136E+00
         21   -1    0    0  504  502  0.00000000000E+00  0.00000000000E+00  0.30431883838E+03  0.30431883838E+03  0.00000000000E+00 0. -1.
          2   -1    0    0  503    0 -0.00000000000E+00 -0.00000000000E+00 -0.17615752957E+04  0.17615752957E+04  0.00000000000E+00 0. -1.
         21    1    1    2  503  502  0.30193614438E+03  0.58901106081E+02 -0.27056942083E+03  0.40968596152E+03  0.00000000000E+00 0. -1.
         21    1    1    2  504  505 -0.67468814016E+02 -0.31352068866E+02  0.12182066585E+03  0.14274196200E+03  0.00000000000E+00 0.  1.
         21    1    1    2  505  501 -0.19398181971E+03 -0.45756308875E+02  0.48443869473E+01  0.19936412482E+03  0.00000000000E+00 0. -1.
          2    1    1    2  501    0 -0.40485510648E+02  0.18207271659E+02 -0.13133520893E+04  0.13141020857E+04  0.00000000000E+00 0. -1.
<scales pt_clust_3="255.07905" pt_clust_4="75.07999" pt_clust_5="14000.00000" pt_clust_6="44.39123"></scales>
<clustering>
<clus scale="   44.391">  2  6  1 -1</clus>
<clus scale="   75.080">  1  4  2 -1</clus>
<clus scale="  255.079">  2  3  1 -1</clus>
<clus scale="   75.080">  1  3  2 -1</clus>
</clustering>
</event>
<event>
 6    0  0.6525019E+002  0.1445683E+03  0.7546771E-02  0.1207311E+00
         -3   -1    0    0    0  501 -0.00000000000E+00  0.00000000000E+00  0.33085276619E+03  0.33085276619E+03  0.00000000000E+00 0.  1.
         21   -1    0    0  505  502  0.00000000000E+00 -0.00000000000E+00 -0.16550495197E+03  0.16550495197E+03  0.00000000000E+00 0.  1.
         21    1    1    2  503  504  0.48981775695E+02 -0.40633677411E+02 -0.29243540695E+02  0.70039237308E+02  0.00000000000E+00 0.  1.
         21    1    1    2  504  502  0.11275887943E+02 -0.48020329432E+02  0.13643322820E+02  0.51178491041E+02  0.00000000000E+00 0.  1.
         21    1    1    2  505  501 -0.12902563500E+03  0.13160416025E+03  0.84014221156E+01  0.18449350497E+03  0.00000000000E+00 0.  1.
         -3    1    1    2    0  503  0.68767971367E+02 -0.42950153404E+02  0.17254660998E+03  0.19064648484E+03  0.00000000000E+00 0.  1.
<scales pt_clust_3="47.89639" pt_clust_4="47.89639" pt_clust_5="133.94076" pt_clust_6="81.07866"></scales>
<clustering>
<clus scale="   47.896">  3  4 -1 -1</clus>
<clus scale="   81.079">  1  6  2 -1</clus>
<clus scale="  133.941">  1  5  2 -1</clus>
<clus scale="  144.568">  2  3  1 -1</clus>
</clustering>
</event>
<event>
 6    0  0.6525019E+002  0.1060677E+03  0.7546771E-02  0.1268030E+00
          2   -1    0    0  503    0 -0.00000000000E+00  0.00000000000E+00  0.11648490844E+04  0.11648490844E+04  0.00000000000E+00 0. -1.
         21   -1    0    0  504  502  0.00000000000E+00 -0.00000000000E+00 -0.69808623984E+02  0.69808623984E+02  0.00000000000E+00 0.  1.
         21    1    1    2  503  505  0.54448351820E+02  0.13071542973E+03  0.66642917407E+03  0.68130682562E+03  0.00000000000E+00 0. -1.
         21    1    1    2  504  501 -0.21959205208E+01 -0.63442076330E+02 -0.34883270593E+02  0.72433153205E+02  0.00000000000E+00 0.  1.
         21    1    1    2  505  502 -0.21998431279E+02 -0.40601488585E+02  0.61509611385E+02  0.76914524940E+02  0.00000000000E+00 0.  1.
          2    1    1    2  501    0 -0.30254000020E+02 -0.26671864813E+02  0.40198494557E+03  0.40400320464E+03  0.00000000000E+00 0. -1.
<scales pt_clust_3="106.06772" pt_clust_4="14000.00000" pt_clust_5="49.63387" pt_clust_6="40.33228"></scales>
<clustering>
<clus scale="   40.332">  1  6  2 -1</clus>
<clus scale="   49.634">  2  5  1 -1</clus>
<clus scale="  106.068">  1  3  2 -1</clus>
<clus scale="   49.634">  2  3  1 -1</clus>
</clustering>
</event>
<event>
 6    0  0.6525019E+002  0.1216734E+03  0.7546771E-02  0.1240362E+00
         21   -1    0    0  503  502  0.00000000000E+00  0.00000000000E+00  0.91513740886E+02  0.91513740886E+02  0.00000000000E+00 0.  1.
          1   -1    0    0  505    0 -0.00000000000E+00 -0.00000000000E+00 -0.56335918784E+03  0.56335918784E+03  0.00000000000E+00 0.  1.
         21    1    1    2  503  501  0.17492004053E+02 -0.25748198117E+02  0.18708217843E+02  0.36317176748E+02  0.00000000000E+00 0.  1.
         21    1    1    2  504  502 -0.21647535826E+02 -0.21074381150E+02  0.13606233367E+02  0.33134195850E+02  0.00000000000E+00 0.  1.
         21    1    1    2  505  504 -0.10262348401E+03  0.96505257914E+02 -0.12480195882E+03  0.18820301061E+03  0.00000000000E+00 0.  1.
          1    1    1    2  501    0  0.10677901578E+03 -0.49682678646E+02 -0.37935793934E+03  0.39721854552E+03  0.00000000000E+00 0.  1.
<scales pt_clust_3="35.35719" pt_clust_4="30.21168" pt_clust_5="121.67335" pt_clust_6="14000.00000"></scales>
<clustering>
<clus scale="   30.212">  1  4  2 -1</clus>
<clus scale="   35.357">  1  3  2 -1</clus>
<clus scale="  121.673">  1  5  2 -1</clus>
<clus scale="   30.212">  1  3  2 -1</clus>
</clustering>
</event>
<event>
 6    0  0.6525019E+002  0.9776842E+02  0.7546771E-02  0.1285060E+00
         21   -1    0    0  505  502  0.00000000000E+00  0.00000000000E+00  0.13358772402E+03  0.13358772402E+03  0.00000000000E+00 0. -1.
          2   -1    0    0  504    0 -0.00000000000E+00 -0.00000000000E+00 -0.20912406797E+04  0.20912406797E+04  0.00000000000E+00 0.  1.
         21    1    1    2  503  502 -0.54503053575E+02  0.12225848056E+03  0.65599109210E+02  0.14906697168E+03  0.00000000000E+00 0. -1.
         21    1    1    2  504  503  0.29710560986E+02 -0.58561252837E+02 -0.41578103483E+03  0.42093468221E+03  0.00000000000E+00 0. -1.
         21    1    1    2  505  501  0.30678656748E+02 -0.24900213400E+02  0.67879741923E+01  0.40090861812E+02  0.00000000000E+00 0.  1.
          2    1    1    2  501    0 -0.58861641589E+01 -0.38797014320E+02 -0.16142590042E+04  0.16147358880E+04  0.00000000000E+00 0.  1.
<scales pt_clust_3="97.76842" pt_clust_4="14000.00000" pt_clust_5="40.22373" pt_clust_6="39.24099"></scales>
<clustering>
<clus scale="   39.241">  2  6  1 -1</clus>
<clus scale="   40.224">  1  5  2 -1</clus>
<clus scale="   97.768">  1  3  2 -1</clus>
<clus scale="   40.224">  1  3  2 -1</clus>
</clustering>
</event>
<event>
 6    0  0.6525019E+002  0.9116567E+02  0.7546771E-02  0.1300053E+00
          3   -1    0    0  505    0 -0.00000000000E+00  0.00000000000E+00  0.26999424839E+03  0.26999424839E+03  0.00000000000E+00 0.  1.
         21   -1    0    0  503  502  0.00000000000E+00 -0.00000000000E+00 -0.18584182498E+03  0.18584182498E+03  0.00000000000E+00 0.  1.
         21    1    1    2  503  504  0.35325502179E+02 -0.18275011128E+02 -0.85051512032E+02  0.93891569562E+02  0.00000000000E+00 0.  1.
         21    1    1    2  504  501  0.28394209463E+02  0.68147293090E+02 -0.26441110850E+01  0.73873378223E+02  0.00000000000E+00 0.  1.
         21    1    1    2  505  502 -0.72627693308E+02 -0.98762195493E+02  0.14960677488E+02  0.12350131564E+03  0.00000000000E+00 0.  1.
          3    1    1    2  501    0  0.89079816660E+01  0.48889913531E+02  0.15688736903E+03  0.16456980994E+03  0.00000000000E+00 0.  1.
<scales pt_clust_3="39.77269" pt_clust_4="91.16567" pt_clust_5="14000.00000" pt_clust_6="49.25393"></scales>
<clustering>
<clus scale="   39.773">  2  3  1 -1</clus>
<clus scale="   49.254">  1  6  2 -1</clus>
<clus scale="   91.166">  2  4  1 -1</clus>
<clus scale="   39.773">  2  3  1 -1</clus>
</clustering>
</event>
<event>
 6    0  0.6525019E+002  0.1827124E+03  0.7546771E-02  0.1165203E+00
         21   -1    0    0  503  502  0.00000000000E+00  0.00000000000E+00  0.35466541290E+03  0.35466541290E+03  0.00000000000E+00 0.  1.
          2   -1    0    0  504    0 -0.00000000000E+00 -0.00000000000E+00 -0.23189652394E+03  0.23189652394E+03  0.00000000000E+00 0. -1.
         21    1    1    2  503  501  0.24906684681E+01 -0.33304928296E+02  0.58675209829E+02  0.67514457168E+02  0.00000000000E+00 0. -1.
         21    1    1    2  504  505 -0.40603189444E+02  0.10757650756E+03  0.80715806440E+02  0.14048617506E+03  0.00000000000E+00 0.  1.
         21    1    1    2  505  502 -0.57301176125E+02  0.60586629832E+02  0.13214014346E+03  0.15625358240E+03  0.00000000000E+00 0.  1.
          2    1    1    2  501    0  0.95413697101E+02 -0.13485820910E+03 -0.14876227076E+03  0.22230772222E+03  0.00000000000E+00 0. -1.
<scales pt_clust_3="33.39793" pt_clust_4="58.18578" pt_clust_5="58.18578" pt_clust_6="168.82272"></scales>
<clustering>
<clus scale="   33.398">  1  3  2 -1</clus>
<clus scale="   58.186">  4  5 -1 -1</clus>
<clus scale="  168.823">  2  6  1 -1</clus>
<clus scale="   33.398">  1  3  2 -1</clus>
</clustering>
</event>
<event>
 6    0  0.6525019E+002  0.1188988E+03  0.7546771E-02  0.1244925E+00
          1   -1    0    0  504    0 -0.00000000000E+00  0.00000000000E+00  0.21421255115E+04  0.21421255115E+04  0.00000000000E+00 0.  1.
         21   -1    0    0  503  502  0.00000000000E+00 -0.00000000000E+00 -0.23724920798E+02  0.23724920798E+02  0.00000000000E+00 0.  1.
         21    1    1    2  503  501  0.21229086369E+02 -0.64747155175E+02  0.10930879159E+03  0.12880714316E+03  0.00000000000E+00 0.  1.
         21    1    1    2  504  505 -0.49441415374E+02 -0.44431328166E+01  0.11416140458E+03  0.12448703258E+03  0.00000000000E+00 0.  1.
         21    1    1    2  505  502 -0.76753288285E+02  0.50951093429E+02  0.29425448198E+03  0.30833874449E+03  0.00000000000E+00 0.  1.
          1    1    1    2  501    0  0.10496561729E+03  0.18239194562E+02  0.16006759125E+04  0.16042175120E+04  0.00000000000E+00 0.  1.
<scales pt_clust_3="68.13860" pt_clust_4="36.30813" pt_clust_5="36.30813" pt_clust_6="108.12218"></scales>
<clustering>
<clus scale="   36.308">  4  5 -1 -1</clus>
<clus scale="   68.139">  2  3  1 -1</clus>
<clus scale="  108.122">  1  6  2 -1</clus>
<clus scale="   68.139">  2  3  1 -1</clus>
</clustering>
</event>
<event>
 6    0  0.6525019E+002  0.6823401E+02  0.7546771E-02  0.1366203E+00
         21   -1    0    0  504  502  0.00000000000E+00  0.00000000000E+00  0.83373323535E+03  0.83373323535E+03  0.00000000000E+00 0.  1.
          1   -1    0    0  505    0 -0.00000000000E+00 -0.00000000000E+00 -0.22940453857E+03  0.22940453857E+03  0.00000000000E+00 0. -1.
         21    1    1    2  503  502 -0.84507239796E+02 -0.10384514334E+02  0.72889023236E+03  0.73384622541E+03  0.00000000000E+00 0.  1.
         21    1    1    2  504  501  0.38684103629E+02 -0.41839965925E+02  0.65271261336E+02  0.86645139382E+02  0.00000000000E+00 0. -1.
         21    1    1    2  505  503 -0.19094737086E+02  0.41989182440E+02 -0.49039341991E+01  0.46386948563E+02  0.00000000000E+00 0. -1.
          1    1    1    2  501    0  0.64917873253E+02  0.10235297819E+02 -0.18492886272E+03  0.19625946056E+03  0.00000000000E+00 0. -1.
<scales pt_clust_3="68.23401" pt_clust_4="54.69117" pt_clust_5="46.12700" pt_clust_6="14000.00000"></scales>
<clustering>
<clus scale="   46.127">  2  5  1 -1</clus>
<clus scale="   54.691">  1  4  2 -1</clus>
<clus scale="   68.234">  1  3  2 -1</clus>
<clus scale="   54.691">  1  3  2 -1</clus>
</clustering>
</event>
<event>
 6    0  0.6525019E+002  0.8443857E+02  0.7546771E-02  0.1316907E+00
         21   -1    0    0  504  502  0.00000000000E+00  0.00000000000E+00  0.83953618430E+03  0.83953618430E+03  0.00000000000E+00 0.  1.
          1   -1    0    0  505    0 -0.00000000000E+00 -0.00000000000E+00 -0.88085444544E+03  0.88085444544E+03  0.00000000000E+00 0. -1.
         21    1    1    2  503  501  0.51053902602E+01  0.32095520630E+02  0.17756205304E+02  0.37033367131E+02  0.00000000000E+00 0. -1.
         21    1    1    2  504  503  0.20304125062E+02  0.24238658179E+02  0.54600125941E+03  0.54691603132E+03  0.00000000000E+00 0.  1.
         21    1    1    2  505  502  0.48452873098E+02 -0.97167782656E+02  0.25243054448E+03  0.27479162775E+03  0.00000000000E+00 0.  1.
          1    1    1    2  501    0 -0.73862388419E+02  0.40833603846E+02 -0.85750627032E+03  0.86164960354E+03  0.00000000000E+00 0. -1.
<scales pt_clust_3="35.06760" pt_clust_4="31.61914" pt_clust_5="14000.00000" pt_clust_6="84.43857"></scales>
<clustering>
<clus scale="   31.619">  1  4  2 -1</clus>
<clus scale="   35.068">  1  3  2 -1</clus>
<clus scale="   84.439">  2  6  1 -1</clus>
<clus scale="   31.619">  1  3  2 -1</clus>
</clustering>
</event>
<event>
 6    0  0.6525019E+002  0.1336681E+03  0.7546771E-02  0.1222112E+00
          2   -1    0    0  502    0 -0.00000000000E+00  0.00000000000E+00  0.36345114580E+03  0.36345114580E+03  0.00000000000E+00 0.  1.
         21   -1    0    0  504  502  0.00000000000E+00 -0.00000000000E+00 -0.53827402313E+03  0.53827402313E+03  0.00000000000E+00 0. -1.
         21    1    1    2  503  501 -0.58474207140E+01 -0.12742385529E+03  0.18447470169E+03  0.22428095503E+03  0.00000000000E+00 0.  1.
         21    1    1    2  504  505 -0.30358361373E+02 -0.17933765778E+02 -0.35852078675E+03  0.36025047480E+03  0.00000000000E+00 0. -1.
         21    1    1    2  505  503  0.67713907033E+02  0.14402791700E+03 -0.11651023237E+03  0.19724058489E+03  0.00000000000E+00 0. -1.
          2    1    1    2  501    0 -0.31508124946E+02  0.13297040694E+01  0.11573344009E+03  0.11995315422E+03  0.00000000000E+00 0.  1.
<scales pt_clust_3="133.66805" pt_clust_4="35.35295" pt_clust_5="14000.00000" pt_clust_6="31.53617"></scales>
<clustering>
<clus scale="   31.536">  1  6  2 -1</clus>
<clus scale="   35.353">  2  4  1 -1</clus>
<clus scale="  133.668">  1  3  2 -1</clus>
<clus scale="   35.353">  2  3  1 -1</clus>
</clustering>
</event>
<event>
 6    0  0.6525019E+002  0.8487577E+02  0.7546771E-02  0.1315758E+00
          1   -1    0    0  504    0 -0.00000000000E+00  0.00000000000E+00  0.11301128984E+03  0.11301128984E+03  0.00000000000E+00 0.  1.
         21   -1    0    0  505  502  0.00000000000E+00 -0.00000000000E+00 -0.59262608384E+03  0.59262608384E+03  0.00000000000E+00 0.  1.
         21    1    1    2  503  502 -0.23826556926E+02  0.13269371628E+03 -0.80727223620E+02  0.15713755690E+03  0.00000000000E+00 0.  1.
         21    1    1    2  504  503  0.19885679796E+02 -0.37946309682E+02  0.52242708354E+02  0.67562291669E+02  0.00000000000E+00 0. -1.
         21    1    1    2  505  501 -0.46230418177E+01 -0.41959322987E+02 -0.41325498646E+03  0.41540539372E+03  0.00000000000E+00 0.  1.
          1    1    1    2  501    0  0.85639189472E+01 -0.52788083609E+02 -0.37875292278E+02  0.65532131386E+02  0.00000000000E+00 0.  1.
<scales pt_clust_3="14000.00000" pt_clust_4="44.35716" pt_clust_5="42.21324" pt_clust_6="84.87577"></scales>
<clustering>
<clus scale="   42.213">  2  5  1 -1</clus>
<clus scale="   44.357">  1  4  2 -1</clus>
<clus scale="   84.876">  2  6  1 -1</clus>
<clus scale="   42.213">  2  3  1 -1</clus>
</clustering>
</event>
<event>
 6    0  0.6525019E+002  0.2583690E+03  0.7546771E-02  0.1108127E+00
         21   -1    0    0  504  502  0.00000000000E+00  0.00000000000E+00  0.79463162738E+03  0.79463162738E+03  0.00000000000E+00 0.  1.
         -1   -1    0    0    0  501 -0.00000000000E+00 -0.00000000000E+00 -0.40537259035E+03  0.40537259035E+03  0.00000000000E+00 0.  1.
         21    1    1    2  503  502  0.14794223108E+03  0.25581510973E+03  0.52091248083E+03  0.59889739254E+03  0.00000000000E+00 0.  1.
         21    1    1    2  504  501 -0.56373122289E+02 -0.63008581618E+02 -0.25183087805E+02  0.88216768165E+02  0.00000000000E+00 0.  1.
         21    1    1    2  505  503 -0.35359849306E+02 -0.21030328537E+03  0.14287301947E+03  0.25669143046E+03  0.00000000000E+00 0.  1.
         -1    1    1    2    0  505 -0.56209259488E+02  0.17496757257E+02 -0.24934337547E+03  0.25619862657E+03  0.00000000000E+00 0.  1.
<scales pt_clust_3="258.36895" pt_clust_4="95.71781" pt_clust_5="14000.00000" pt_clust_6="58.86949"></scales>
<clustering>
<clus scale="   58.869">  2  6  1 -1</clus>
<clus scale="   95.718">  2  4  1 -1</clus>
<clus scale="  258.369">  1  3  2 -1</clus>
<clus scale="  258.369">  1  3  2 -1</clus>
</clustering>
</event>
<event>
 6    0  0.6525019E+002  0.1278488E+03  0.7546771E-02  0.1230683E+00
         21   -1    0    0  503  502  0.00000000000E+00  0.00000000000E+00  0.40548116103E+03  0.40548116103E+03  0.00000000000E+00 0. -1.
          2   -1    0    0  505    0 -0.00000000000E+00 -0.00000000000E+00 -0.21651761582E+04  0.21651761582E+04  0.00000000000E+00 0.  1.
         21    1    1    2  503  501 -0.51360796728E+02  0.30624592344E+02 -0.16607149519E+02  0.62061215843E+02  0.00000000000E+00 0.  1.
         21    1    1    2  504  502  0.43989525542E+02 -0.10357767823E+03  0.35188787481E+03  0.36944348718E+03  0.00000000000E+00 0. -1.
         21    1    1    2  505  504  0.12328518263E+03 -0.29138487349E+02 -0.18148281595E+04  0.18192442212E+04  0.00000000000E+00 0.  1.
          2    1    1    2  501    0 -0.11591391145E+03  0.10209157324E+03 -0.28014756292E+03  0.31990839502E+03  0.00000000000E+00 0.  1.
<scales pt_clust_3="59.79797" pt_clust_4="74.85027" pt_clust_5="14000.00000" pt_clust_6="127.84881"></scales>
<clustering>
<clus scale="   59.798">  1  3  2 -1</clus>
<clus scale="   74.850">  1  4  2 -1</clus>
<clus scale="  127.849">  1  6  2 -1</clus>
<clus scale="   59.798">  1  3  2 -1</clus>
</clustering>
</event>
<event>
 6    0  0.6525019E+002  0.1020708E+03  0.7546771E-02  0.1276001E+00
          1   -1    0    0  502    0 -0.00000000000E+00  0.00000000000E+00  0.17516080004E+04  0.17516080004E+04  0.00000000000E+00 0. -1.
         21   -1    0    0  505  502  0.00000000000E+00 -0.00000000000E+00 -0.30019097783E+03  0.30019097783E+03  0.00000000000E+00 0.  1.
         21    1    1    2  503  504  0.28443491162E+02 -0.76148899273E+02 -0.97756215397E+02  0.12713758177E+03  0.00000000000E+00 0.  1.
         21    1    1    2  504  501 -0.94601556013E+02 -0.42522278466E+02  0.32609397407E+03  0.34219128932E+03  0.00000000000E+00 0.  1.
         21    1    1    2  505  503  0.46596652968E+02  0.83558118968E+01 -0.17429609438E+03  0.18061062034E+03  0.00000000000E+00 0.  1.
          1    1    1    2  501    0  0.19561411883E+02  0.11031536584E+03  0.13973753583E+04  0.14018594868E+04  0.00000000000E+00 0. -1.
<scales pt_clust_3="98.74884" pt_clust_4="14000.00000" pt_clust_5="47.33992" pt_clust_6="102.07076"></scales>
<clustering>
<clus scale="   47.340">  2  5  1 -1</clus>
<clus scale="   98.749">  2  3  1 -1</clus>
<clus scale="  102.071">  1  6  2 -1</clus>
<clus scale="   47.340">  2  3  1 -1</clus>
</clustering>
</event>
<event>
 6    0  0.1282666E+003  0.1090819E+03  0.7546771E-02  0.1262280E+00
         21   -1    0    0  505  502  0.00000000000E+00  0.00000000000E+00  0.29304671165E+03  0.29304671165E+03  0.00000000000E+00 0. -1.
         -1   -1    0    0    0  501 -0.00000000000E+00 -0.00000000000E+00 -0.72434544185E+03  0.72434544185E+03  0.00000000000E+00 0.  1.
         21    1    1    2  503  501  0.20121468144E+02  0.25364792251E+02 -0.23990044296E+02  0.40296009623E+02  0.00000000000E+00 0. -1.
         21    1    1    2  504  502 -0.67790957247E+02  0.42205887252E+02 -0.11363755171E+03  0.13889004270E+03  0.00000000000E+00 0.  1.
         21    1    1    2  505  503  0.86659127865E+02 -0.70636322860E+02  0.26007159034E+03  0.28308395689E+03  0.00000000000E+00 0. -1.
         -1    1    1    2    0  504 -0.38989638762E+02  0.30656433573E+01 -0.55374272454E+03  0.55512214429E+03  0.00000000000E+00 0.  1.
<scales pt_clust_3="32.37663" pt_clust_4="109.08187" pt_clust_5="14000.00000" pt_clust_6="32.70922"></scales>
<clustering>
<clus scale="   32.377">  2  3  1 -1</clus>
<clus scale="   32.709">  2  6  1 -1</clus>
<clus scale="  109.082">  2  4  1 -1</clus>
<clus scale="  109.082">  1  3  2 -1</clus>
</clustering>
</event>
<event>
 6    0  0.6525019E+002  0.6180468E+02  0.7546771E-02  0.1390411E+00
         -1   -1    0    0    0  501 -0.00000000000E+00  0.00000000000E+00  0.22724542210E+03  0.22724542210E+03  0.00000000000E+00 0. -1.
         21   -1    0    0  503  502  0.00000000000E+00 -0.00000000000E+00 -0.25363905726E+03  0.25363905726E+03  0.00000000000E+00 0. -1.
         21    1    1    2  503  504  0.13172781193E+02  0.36970373683E+02 -0.59981133206E+02  0.71680311351E+02  0.00000000000E+00 0. -1.
         21    1    1    2  504  501 -0.82494751184E+01  0.75808555679E+02  0.91972444235E+02  0.11947351779E+03  0.00000000000E+00 0. -1.
         21    1    1    2  505  502 -0.45864570843E+02 -0.70646364606E+02 -0.15514376288E+03  0.17653343833E+03  0.00000000000E+00 0. -1.
         -1    1    1    2    0  505  0.40941264768E+02 -0.42132564756E+02  0.96758816690E+02  0.11319721190E+03  0.00000000000E+00 0. -1.
<scales pt_clust_3="39.24705" pt_clust_4="14000.00000" pt_clust_5="51.14625" pt_clust_6="61.80468"></scales>
<clustering>
<clus scale="   39.247">  2  3  1 -1</clus>
<clus scale="   51.146">  2  5  1 -1</clus>
<clus scale="   61.805">  1  6  2 -1</clus>
<clus scale="   39.247">  2  3  1 -1</clus>
</clustering>
</event>
<event>
 6    0  0.6525019E+002  0.1223472E+03  0.7546771E-02  0.1239274E+00
         21   -1    0    0  505  502  0.00000000000E+00  0.00000000000E+00  0.50122761436E+03  0.50122761436E+03  0.00000000000E+00 0.  1.
         -2   -1    0    0    0  501 -0.00000000000E+00 -0.00000000000E+00 -0.35661265082E+03  0.35661265082E+03  0.00000000000E+00 0.  1.
         21    1    1    2  503  502  0.10587207677E+02 -0.38690438056E+02  0.21171160033E+03  0.21547816752E+03  0.00000000000E+00 0.  1.
         21    1    1    2  504  501  0.77446775920E+02 -0.25325218320E+02  0.11854807307E+03  0.14385067053E+03  0.00000000000E+00 0.  1.
         21    1    1    2  505  504  0.29106859748E+02  0.17618333938E+02  0.14276435364E+03  0.14676265072E+03  0.00000000000E+00 0.  1.
         -2    1    1    2    0  503 -0.11714084334E+03  0.46397322438E+02 -0.32840906351E+03  0.35174877641E+03  0.00000000000E+00 0.  1.
<scales pt_clust_3="39.71233" pt_clust_4="14000.00000" pt_clust_5="34.02374" pt_clust_6="122.34719"></scales>
<clustering>
<clus scale="   34.024">  1  5  2 -1</clus>
<clus scale="   39.712">  1  3  2 -1</clus>
<clus scale="  122.347">  2  6  1 -1</clus>
<clus scale="   34.024">  1  3  2 -1</clus>
</clustering>
</event>
<event>
 6    0  0.6525019E+002  0.8240186E+02  0.7546771E-02  0.1322370E+00
         21   -1    0    0  503  502  0.00000000000E+00  0.00000000000E+00  0.10828799134E+03  0.10828799134E+03  0.00000000000E+00 0.  1.
          2   -1    0    0  504    0 -0.00000000000E+00 -0.00000000000E+00 -0.16053976645E+04  0.16053976645E+04  0.00000000000E+00 0. -1.
         21    1    1    2  503  501 -0.19037243822E+02 -0.14695329383E+03  0.30756336704E+01  0.14821318006E+03  0.00000000000E+00 0.  1.
         21    1    1    2  504  505 -0.23287701444E+01  0.68757899964E+02 -0.48069318014E+03  0.48559139759E+03  0.00000000000E+00 0. -1.
         21    1    1    2  505  502 -0.10191260609E+02  0.69607894185E+02 -0.11410827414E+02  0.71269402327E+02  0.00000000000E+00 0.  1.
          2    1    1    2  501    0  0.31557274576E+02  0.85874996837E+01 -0.10080812993E+04  0.10086116759E+04  0.00000000000E+00 0. -1.
<scales pt_clust_3="82.40186" pt_clust_4="14000.00000" pt_clust_5="70.65756" pt_clust_6="32.70484"></scales>
<clustering>
<clus scale="   32.705">  2  6  1 -1</clus>
<clus scale="   70.658">  1  5  2 -1</clus>
<clus scale="   82.402">  1  3  2 -1</clus>
<clus scale="   70.658">  1  3  2 -1</clus>
</clustering>
</event>
<event>
 6    0  0.1514307E+003  0.2125142E+03  0.7546771E-02  0.1139590E+00
          2   -1    0    0  505    0 -0.00000000000E+00  0.00000000000E+00  0.21506011316E+04  0.21506011316E+04  0.00000000000E+00 0. -1.
         21   -1    0    0  504  502  0.00000000000E+00 -0.00000000000E+00 -0.88222980272E+03  0.88222980272E+03  0.00000000000E+00 0.  1.
         21    1    1    2  503  501 -0.17635313026E+03 -0.40019655236E+02  0.19805756446E+03  0.26819544776E+03  0.00000000000E+00 0. -1.
         21    1    1    2  504  503  0.21443445256E+03  0.93474524840E+01 -0.78680366007E+03  0.81555472459E+03  0.00000000000E+00 0.  1.
         21    1    1    2  505  502  0.49722153567E+01  0.53852351805E+02 -0.29652636280E+02  0.61677204532E+02  0.00000000000E+00 0. -1.
          2    1    1    2  501    0 -0.43053537655E+02 -0.23180149053E+02  0.18867700608E+04  0.18874035575E+04  0.00000000000E+00 0. -1.
<scales pt_clust_3="212.51420" pt_clust_4="14000.00000" pt_clust_5="52.49672" pt_clust_6="48.89710"></scales>
<clustering>
<clus scale="   48.897">  1  6  2 -1</clus>
<clus scale="   52.497">  1  5  2 -1</clus>
<clus scale="  212.514">  1  3  2 -1</clus>
<clus scale="  212.514">  2  3  1 -1</clus>
</clustering>
</event>
<event>
 6    0  0.6525019E+002  0.7492686E+02  0.7546771E-02  0.1344098E+00
         21   -1    0    0  504  502  0.00000000000E+00  0.00000000000E+00  0.59401484450E+03  0.59401484450E+03  0.00000000000E+00 0. -1.
          2   -1    0    0  505    0 -0.00000000000E+00 -0.00000000000E+00 -0.12621299510E+04  0.12621299510E+04  0.00000000000E+00 0.  1.
         21    1    1    2  503  501  0.76599725205E+02 -0.58173252601E+02 -0.88303980859E+02  0.13057273167E+03  0.00000000000E+00 0. -1.
         21    1    1    2  504  503  0.28718859506E+02  0.20279989763E+02  0.49955351751E+03  0.50078914499E+03  0.00000000000E+00 0. -1.
         21    1    1    2  505  502 -0.63384389901E+02 -0.23045264834E+02  0.55601807721E+02  0.87408387104E+02  0.00000000000E+00 0. -1.
          2    1    1    2  501    0 -0.41934194811E+02  0.60938527672E+02 -0.11349664509E+04  0.11373745318E+04  0.00000000000E+00 0.  1.
<scales pt_clust_3="74.92686" pt_clust_4="35.15752" pt_clust_5="42.19056" pt_clust_6="14000.00000"></scales>
<clustering>
<clus scale="   35.158">  1  4  2 -1</clus>
<clus scale="   42.191">  1  5  2 -1</clus>
<clus scale="   74.927">  1  3  2 -1</clus>
<clus scale="   35.158">  1  3  2 -1</clus>
</clustering>
</event>
<event>
 6    0  0.6525019E+002  0.8252479E+02  0.7546771E-02  0.1322035E+00
         21   -1    0    0  505  502  0.00000000000E+00  0.00000000000E+00  0.42835284081E+02  0.42835284081E+02  0.00000000000E+00 0. -1.
          1   -1    0    0  503    0 -0.00000000000E+00 -0.00000000000E+00 -0.21536562137E+04  0.21536562137E+04  0.00000000000E+00 0. -1.
         21    1    1    2  503  502 -0.63431952351E+02  0.24196166381E+02 -0.31911720763E+03  0.32625888379E+03  0.00000000000E+00 0.  1.
         21    1    1    2  504  501 -0.32640663247E+02 -0.68950738767E+02 -0.41540158156E+03  0.42234830559E+03  0.00000000000E+00 0.  1.
         21    1    1    2  505  504  0.85201140355E+02  0.12757825692E+02 -0.16567217492E+02  0.87729522565E+02  0.00000000000E+00 0. -1.
          1    1    1    2  501    0  0.10871475243E+02  0.31996746694E+02 -0.13597349229E+04  0.13601547858E+04  0.00000000000E+00 0. -1.
<scales pt_clust_3="82.52479" pt_clust_4="58.60480" pt_clust_5="14000.00000" pt_clust_6="33.79321"></scales>
<clustering>
<clus scale="   33.793">  2  6  1 -1</clus>
<clus scale="   58.605">  2  4  1 -1</clus>
<clus scale="   82.525">  2  3  1 -1</clus>
<clus scale="   82.525">  1  3  2 -1</clus>
</clustering>
</event>
<event>
 6    0  0.6525019E+002  0.3232139E+03  0.7546771E-02  0.1074180E+00
         21   -1    0    0  505  502  0.00000000000E+00  0.00000000000E+00  0.54317371676E+03  0.54317371676E+03  0.00000000000E+00 0. -1.
          2   -1    0    0  503    0 -0.00000000000E+00 -0.00000000000E+00 -0.16833273808E+04  0.16833273808E+04  0.00000000000E+00 0.  1.
         21    1    1    2  503  504  0.16146221038E+03 -0.14141159260E+03 -0.10325641134E+03  0.23817886217E+03  0.00000000000E+00 0. -1.
         21    1    1    2  504  502  0.45203693684E+02 -0.21271098323E+03 -0.19036796272E+02  0.21829277569E+03  0.00000000000E+00 0. -1.
         21    1    1    2  505  501 -0.78124230793E+02  0.25020991442E+03  0.32471883254E+03  0.41731369127E+03  0.00000000000E+00 0. -1.
          2    1    1    2  501    0 -0.12854167327E+03  0.10391266141E+03 -0.13425792889E+04  0.13527157684E+04  0.00000000000E+00 0.  1.
<scales pt_clust_3="158.01307" pt_clust_4="158.01307" pt_clust_5="281.37178" pt_clust_6="165.29006"></scales>
<clustering>
<clus scale="  158.013">  3  4 -1 -1</clus>
<clus scale="  165.290">  2  6  1 -1</clus>
<clus scale="  281.372">  1  5  2 -1</clus>
<clus scale="  281.372">  1  3  2 -1</clus>
</clustering>
</event>
<event>
 6    0  0.6525019E+002  0.8338349E+02  0.7546771E-02  0.1319715E+00
          1   -1    0    0  505    0 -0.00000000000E+00  0.00000000000E+00  0.89584517338E+03  0.89584517338E+03  0.00000000000E+00 0. -1.
         21   -1    0    0  503  502  0.00000000000E+00 -0.00000000000E+00 -0.87274392014E+03  0.87274392014E+03  0.00000000000E+00 0. -1.
         21    1    1    2  503  501  0.39276811573E+02  0.85781472566E+01 -0.75520601817E+03  0.75627533506E+03  0.00000000000E+00 0. -1.
         21    1    1    2  504  502  0.48988673416E+02 -0.57183382629E+01 -0.65596122799E+02  0.82069731581E+02  0.00000000000E+00 0. -1.
         21    1    1    2  505  504 -0.15965199134E+03 -0.37391059334E+02  0.12296303001E+03  0.20495549860E+03  0.00000000000E+00 0. -1.
          1    1    1    2  501    0  0.71386506352E+02  0.34531250340E+02  0.72094036419E+03  0.72528852828E+03  0.00000000000E+00 0. -1.
<scales pt_clust_3="40.20264" pt_clust_4="73.77428" pt_clust_5="14000.00000" pt_clust_6="83.38349"></scales>
<clustering>
<clus scale="   40.203">  2  3  1 -1</clus>
<clus scale="   73.774">  2  4  1 -1</clus>
<clus scale="   83.383">  1  6  2 -1</clus>
<clus scale="   40.203">  2  3  1 -1</clus>
</clustering>
</event>
<event>
 6    0  0.6525019E+002  0.1002980E+03  0.7546771E-02  0.1279670E+00
          2   -1    0    0  503    0 -0.00000000000E+00  0.00000000000E+00  0.10817168391E+04  0.10817168391E+04  0.00000000000E+00 0. -1.
         21   -1    0    0  505  502  0.00000000000E+00 -0.00000000000E+00 -0.12314322197E+04  0.12314322197E+04  0.00000000000E+00 0.  1.
         21    1    1    2  503  504 -0.12272572961E+03 -0.28300308066E+02  0.87022559513E+02  0.15308637434E+03  0.00000000000E+00 0.  1.
         21    1    1    2  504  502  0.15683333981E+03  0.81341266800E+02 -0.67706918456E+03  0.69973979367E+03  0.00000000000E+00 0.  1.
         21    1    1    2  505  501 -0.63081656324E+02 -0.68978872146E+02 -0.50542135988E+03  0.51399234546E+03  0.00000000000E+00 0.  1.
          2    1    1    2  501    0  0.28974046122E+02  0.15937913412E+02  0.94575260433E+03  0.94633054534E+03  0.00000000000E+00 0. -1.
<scales pt_clust_3="100.29802" pt_clust_4="14000.00000" pt_clust_5="92.48544" pt_clust_6="33.06830"></scales>
<clustering>
<clus scale="   33.068">  1  6  2 -1</clus>
<clus scale="   92.485">  2  5  1 -1</clus>
<clus scale="  100.298">  1  3  2 -1</clus>
<clus scale="   92.485">  2  3  1 -1</clus>
</clustering>
</event>
<event>
 6    0  0.6525019E+002  0.8447238E+02  0.7546771E-02  0.1316818E+00
         -1   -1    0    0    0  501 -0.00000000000E+00  0.00000000000E+00  0.14952013632E+04  0.14952013632E+04  0.00000000000E+00 0.  1.
         21   -1    0    0  504  502  0.00000000000E+00 -0.00000000000E+00 -0.32304886054E+03  0.32304886054E+03  0.00000000000E+00 0.  1.
         21    1    1    2  503  502 -0.26939147758E+02  0.52471890386E+02 -0.19989712658E+03  0.20841755727E+03  0.00000000000E+00 0.  1.
         21    1    1    2  504  501  0.11307263252E+03  0.40675929131E+01  0.15141382403E+03  0.18901881294E+03  0.00000000000E+00 0.  1.
         21    1    1    2  505  503 -0.49865780961E+02 -0.80744326301E+02 -0.77144708940E+02  0.12230105665E+03  0.00000000000E+00 0.  1.
         -1    1    1    2    0  505 -0.36267703801E+02  0.24204843001E+02  0.12977805141E+04  0.12985127969E+04  0.00000000000E+00 0.  1.
<scales pt_clust_3="59.80859" pt_clust_4="14000.00000" pt_clust_5="84.47238" pt_clust_6="43.60299"></scales>
<clustering>
<clus scale="   43.603">  1  6  2 -1</clus>
<clus scale="   59.809">  2  3  1 -1</clus>
<clus scale="   84.472">  2  5  1 -1</clus>
<clus scale="   59.809">  2  3  1 -1</clus>
</clustering>
</event>
<event>
 6    0  0.6525019E+002  0.8353840E+02  0.7546771E-02  0.1319300E+00
         -2   -1    0    0    0  501 -0.00000000000E+00  0.00000000000E+00  0.19573876369E+03  0.19573876369E+03  0.00000000000E+00 0.  1.
         21   -1    0    0  504  502  0.00000000000E+00 -0.00000000000E+00 -0.35068850967E+03  0.35068850967E+03  0.00000000000E+00 0. -1.
         21    1    1    2  503  502  0.14793486712E+02  0.26376267274E+02 -0.60475005171E+02  0.67614946387E+02  0.00000000000E+00 0. -1.
         21    1    1    2  504  505 -0.63041879005E+02 -0.87193244785E+02 -0.23725535136E+03  0.26051303651E+03  0.00000000000E+00 0. -1.
         21    1    1    2  505  501 -0.32511988644E+02 -0.18737332981E+02  0.20388237288E+01  0.37580232238E+02  0.00000000000E+00 0. -1.
         -2    1    1    2    0  503  0.80760380937E+02  0.79554310492E+02  0.14074178682E+03  0.18071905822E+03  0.00000000000E+00 0.  1.
<scales pt_clust_3="30.24161" pt_clust_4="83.53840" pt_clust_5="35.92655" pt_clust_6="14000.00000"></scales>
<clustering>
<clus scale="   30.242">  2  3  1 -1</clus>
<clus scale="   35.927">  1  5  2 -1</clus>
<clus scale="   83.538">  2  4  1 -1</clus>
<clus scale="   30.242">  2  3  1 -1</clus>
</clustering>
</event>
<event>
 6    0  0.6525019E+002  0.6251336E+02  0.7546771E-02  0.1387577E+00
         21   -1    0    0  503  502  0.00000000000E+00  0.00000000000E+00  0.93328473868E+02  0.93328473868E+02  0.00000000000E+00 0. -1.
          1   -1    0    0  505    0 -0.00000000000E+00 -0.00000000000E+00 -0.56605262795E+03  0.56605262795E+03  0.00000000000E+00 0. -1.
         21    1    1    2  503  504  0.33065033990E+02  0.75062165922E+02  0.30617868989E+02  0.87550437618E+02  0.00000000000E+00 0. -1.
         21    1    1    2  504  501 -0.41500401166E+02 -0.47774098350E+02 -0.14599373258E+03  0.15911887921E+03  0.00000000000E+00 0. -1.
         21    1    1    2  505  502 -0.55632666165E+02 -0.28511862986E+02 -0.14826595015E+02  0.64247550890E+02  0.00000000000E+00 0. -1.
          1    1    1    2  501    0  0.64068033341E+02  0.12237954142E+01 -0.34252169548E+03  0.34846423409E+03  0.00000000000E+00 0. -1.
<scales pt_clust_3="52.64603" pt_clust_4="14000.00000" pt_clust_5="62.51336" pt_clust_6="59.16449"></scales>
<clustering>
<clus scale="   62.513">  1  5  2 -1</clus>
<clus scale="   52.646">  1  3  2 -1</clus>
<clus scale="   59.164">  2  6  1 -1</clus>
<clus scale="   62.513">  1  3  2 -1</clus>
</clustering>
</event>
<event>
 6    0  0.6525019E+002  0.1388439E+03  0.7546771E-02  0.1214893E+00
          2   -1    0    0  504    0 -0.00000000000E+00  0.00000000000E+00  0.52810589132E+03  0.52810589132E+03  0.00000000000E+00 0.  1.
         21   -1    0    0  505  502  0.00000000000E+00 -0.00000000000E+00 -0.13581880266E+03  0.13581880266E+03  0.00000000000E+00 0.  1.
         21    1    1    2  503  501  0.10427732174E+03 -0.83365382351E+02  0.90258845174E+02  0.16115274101E+03  0.00000000000E+00 0.  1.
         21    1    1    2  504  502 -0.15891071407E+03 -0.13232474232E+02  0.84519516453E+01  0.15968452933E+03  0.00000000000E+00 0.  1.
         21    1    1    2  505  503  0.72651680303E+01  0.29381519864E+02 -0.73352834417E+01  0.31142619659E+02  0.00000000000E+00 0.  1.
          2    1    1    2  501    0  0.47368224295E+02  0.67216336718E+02  0.30091157528E+03  0.31194480398E+03  0.00000000000E+00 0.  1.
<scales pt_clust_3="14000.00000" pt_clust_4="138.84391" pt_clust_5="30.26642" pt_clust_6="83.56622"></scales>
<clustering>
<clus scale="   30.266">  2  5  1 -1</clus>
<clus scale="   83.566">  1  6  2 -1</clus>
<clus scale="  138.844">  2  4  1 -1</clus>
<clus scale="   30.266">  2  3  1 -1</clus>
</clustering>
</event>
<event>
 6    0  0.6525019E+002  0.8229760E+02  0.7546771E-02  0.1322655E+00
         21   -1    0    0  504  502  0.00000000000E+00  0.00000000000E+00  0.11671851268E+03  0.11671851268E+03  0.00000000000E+00 0. -1.
         -2   -1    0    0    0  501 -0.00000000000E+00 -0.00000000000E+00 -0.22944149301E+04  0.22944149301E+04  0.00000000000E+00 0. -1.
         21    1    1    2  503  501  0.12064335671E+02 -0.89439111576E+02 -0.48274366760E+02  0.10234899785E+03  0.00000000000E+00 0. -1.
         21    1    1    2  504  503  0.37193037980E+02  0.18769068347E+02  0.69483367871E+02  0.81015667691E+02  0.00000000000E+00 0. -1.
         21    1    1    2  505  502 -0.52271259079E+00  0.78886528854E+02 -0.95879179940E+02  0.12416188952E+03  0.00000000000E+00 0.  1.
         -2    1    1    2    0  505 -0.48734661060E+02 -0.82164856239E+01 -0.21030262386E+04  0.21036068877E+04  0.00000000000E+00 0. -1.
<scales pt_clust_3="14000.00000" pt_clust_4="41.66053" pt_clust_5="82.29760" pt_clust_6="49.14391"></scales>
<clustering>
<clus scale="   41.661">  1  4  2 -1</clus>
<clus scale="   49.144">  2  6  1 -1</clus>
<clus scale="   82.298">  2  5  1 -1</clus>
<clus scale="   41.661">  1  3  2 -1</clus>
</clustering>
</event>
<event>
 6    0  0.6525019E+002  0.1497470E+03  0.7546771E-02  0.1200784E+00
         -1   -1    0    0    0  501 -0.00000000000E+00  0.00000000000E+00  0.13061430243E+03  0.13061430243E+03  0.00000000000E+00 0.  1.
         21   -1    0    0  504  502  0.00000000000E+00 -0.00000000000E+00 -0.15975040174E+04  0.15975040174E+04  0.00000000000E+00 0.  1.
         21    1    1    2  503  505  0.32488301327E+02 -0.15366466613E+02 -0.40152771744E+02  0.53887504099E+02  0.00000000000E+00 0.  1.
         21    1    1    2  504  503 -0.11204846302E+03  0.10130699969E+03 -0.14688278605E+04  0.14765748373E+04  0.00000000000E+00 0.  1.
         21    1    1    2  505  501  0.27049106821E+02  0.21829338207E+02 -0.39520511598E+02  0.52631217194E+02  0.00000000000E+00 0.  1.
         -1    1    1    2    0  502  0.52511054874E+02 -0.10776987128E+03  0.81611428923E+02  0.14502476123E+03  0.00000000000E+00 0.  1.
<scales pt_clust_3="36.81676" pt_clust_4="149.74703" pt_clust_5="34.75880" pt_clust_6="14000.00000"></scales>
<clustering>
<clus scale="   34.759">  1  5  2 -1</clus>
<clus scale="   36.817">  1  3  2 -1</clus>
<clus scale="  149.747">  2  4  1 -1</clus>
<clus scale="  149.747">  2  3  1 -1</clus>
</clustering>
</event>
<event>
 6    0  0.6525019E+002  0.6028592E+02  0.7546771E-02  0.1396636E+00
         21   -1    0    0  504  502  0.00000000000E+00  0.00000000000E+00  0.17912984353E+03  0.17912984353E+03  0.00000000000E+00 0. -1.
         -1   -1    0    0    0  501 -0.00000000000E+00 -0.00000000000E+00 -0.19814810519E+03  0.19814810519E+03  0.00000000000E+00 0.  1.
         21    1    1    2  503  502  0.49242740536E+01 -0.63851819502E+02  0.86844926622E+02  0.10790433082E+03  0.00000000000E+00 0. -1.
         21    1    1    2  504  501 -0.48980710728E+02  0.37435895265E+02  0.16704387384E+02  0.63871690408E+02  0.00000000000E+00 0. -1.
         21    1    1    2  505  503  0.83279270061E+02 -0.94172699253E+01 -0.14463538372E+02  0.85048902033E+02  0.00000000000E+00 0. -1.
         -1    1    1    2    0  505 -0.39222833386E+02  0.35833194162E+02 -0.10810403730E+03  0.12045302546E+03  0.00000000000E+00 0.  1.
<scales pt_clust_3="59.35301" pt_clust_4="60.28592" pt_clust_5="14000.00000" pt_clust_6="53.12672"></scales>
<clustering>
<clus scale="   53.127">  2  6  1 -1</clus>
<clus scale="   59.353">  1  3  2 -1</clus>
<clus scale="   60.286">  1  4  2 -1</clus>
<clus scale="   59.353">  1  3  2 -1</clus>
</clustering>
</event>
<event>
 6    0  0.6525019E+002  0.1387026E+03  0.7546771E-02  0.1215085E+00
         21   -1    0    0  505  502  0.00000000000E+00  0.00000000000E+00  0.42122108129E+02  0.42122108129E+02  0.00000000000E+00 0.  1.
          2   -1    0    0  503    0 -0.00000000000E+00 -0.00000000000E+00 -0.40355367094E+04  0.40355367094E+04  0.00000000000E+00 0.  1.
         21    1    1    2  503  504  0.56085218389E+02  0.10195898953E+03 -0.30353769922E+03  0.32507894752E+03  0.00000000000E+00 0.  1.
         21    1    1    2  504  502 -0.62213646169E+02  0.11590806967E+03 -0.14168833110E+03  0.19334115329E+03  0.00000000000E+00 0.  1.
         21    1    1    2  505  501  0.12936294616E+02 -0.74374435323E+02 -0.36072177107E+03  0.36853643031E+03  0.00000000000E+00 0. -1.
          2    1    1    2  501    0 -0.68078668356E+01 -0.14349262388E+03 -0.31874667999E+04  0.31907022864E+04  0.00000000000E+00 0.  1.
<scales pt_clust_3="138.70256" pt_clust_4="84.66583" pt_clust_5="75.49109" pt_clust_6="14000.00000"></scales>
<clustering>
<clus scale="   75.491">  1  5  2 -1</clus>
<clus scale="   84.666">  1  4  2 -1</clus>
<clus scale="  138.703">  1  3  2 -1</clus>
<clus scale="   75.491">  1  3  2 -1</clus>
</clustering>
</event>
<event>
 6    0  0.6525019E+002  0.1019730E+03  0.7546771E-02  0.1276201E+00
         -1   -1    0    0    0  501 -0.00000000000E+00  0.00000000000E+00  0.22384869854E+04  0.22384869854E+04  0.00000000000E+00 0.  1.
         21   -1    0    0  504  502  0.00000000000E+00 -0.00000000000E+00 -0.30485682387E+02  0.30485682387E+02  0.00000000000E+00 0. -1.
         21    1    1    2  503  501  0.50647164556E+02 -0.72050613373E+02  0.29485627765E+03  0.30772820904E+03  0.00000000000E+00 0. -1.
         21    1    1    2  504  505  0.52999732553E+02  0.79632749222E+02  0.21942491033E+03  0.23936924964E+03  0.00000000000E+00 0. -1.
         21    1    1    2  505  503 -0.11199505739E+03 -0.42824380210E+02  0.24563716030E+03  0.27333941344E+03  0.00000000000E+00 0. -1.
         -1    1    1    2    0  502  0.83481602794E+01  0.35242244361E+02  0.14480829547E+04  0.14485357956E+04  0.00000000000E+00 0.  1.
<scales pt_clust_3="79.58120" pt_clust_4="101.97299" pt_clust_5="14000.00000" pt_clust_6="36.21750"></scales>
<clustering>
<clus scale="   36.218">  1  6  2 -1</clus>
<clus scale="   79.581">  1  3  2 -1</clus>
<clus scale="  101.973">  2  4  1 -1</clus>
<clus scale="  101.973">  2  3  1 -1</clus>
</clustering>
</event>
<event>
 6    0  0.6525019E+002  0.2723968E+03  0.7546771E-02  0.1099916E+00
         21   -1    0    0  504  502  0.00000000000E+00  0.00000000000E+00  0.21125441464E+03  0.21125441464E+03  0.00000000000E+00 0.  1.
          2   -1    0    0  505    0 -0.00000000000E+00 -0.00000000000E+00 -0.20646294881E+04  0.20646294881E+04  0.00000000000E+00 0. -1.
         21    1    1    2  503  501 -0.19541335823E+03 -0.16555195159E+03 -0.12807969170E+04  0.13061525837E+04  0.00000000000E+00 0. -1.
         21    1    1    2  504  503  0.19273656791E+03  0.16606127510E+03  0.10076252739E+03  0.27363628894E+03  0.00000000000E+00 0.  1.
         21    1    1    2  505  502  0.34748480490E+02 -0.10147012921E+02 -0.18971987234E+02  0.40869977578E+02  0.00000000000E+00 0. -1.
          2    1    1    2  501    0 -0.32071690169E+02  0.96376894048E+01 -0.65436869657E+03  0.65522505249E+03  0.00000000000E+00 0. -1.
<scales pt_clust_3="14000.00000" pt_clust_4="272.39679" pt_clust_5="35.48900" pt_clust_6="33.48848"></scales>
<clustering>
<clus scale="   33.488">  2  6  1 -1</clus>
<clus scale="   35.489">  1  5  2 -1</clus>
<clus scale="  272.397">  1  4  2 -1</clus>
<clus scale="   35.489">  1  3  2 -1</clus>
</clustering>
</event>
<event>
 6    0  0.6525019E+002  0.1281401E+03  0.7546771E-02  0.1230242E+00
          2   -1    0    0  505    0 -0.00000000000E+00  0.00000000000E+00  0.20583297908E+04  0.20583297908E+04  0.00000000000E+00 0.  1.
         21   -1    0    0  504  502  0.00000000000E+00 -0.00000000000E+00 -0.39824980901E+03  0.39824980901E+03  0.00000000000E+00 0. -1.
         21    1    1    2  503  501  0.97565356834E+02  0.73511420794E+02 -0.51020365270E+02  0.13238582067E+03  0.00000000000E+00 0. -1.
         21    1    1    2  504  503 -0.15775153015E+02  0.27005541055E+02 -0.30038062693E+03  0.30200442999E+03  0.00000000000E+00 0. -1.
         21    1    1    2  505  502 -0.43635189972E+02 -0.85677839494E+01  0.11812279555E+03  0.12621581341E+03  0.00000000000E+00 0. -1.
          2    1    1    2  501    0 -0.38155013847E+02 -0.91949177900E+02  0.18933581785E+04  0.18959735358E+04  0.00000000000E+00 0.  1.
<scales pt_clust_3="128.14013" pt_clust_4="31.27546" pt_clust_5="44.91371" pt_clust_6="14000.00000"></scales>
<clustering>
<clus scale="   31.275">  2  4  1 -1</clus>
<clus scale="   44.914">  1  5  2 -1</clus>
<clus scale="  128.140">  2  3  1 -1</clus>
<clus scale="   31.275">  2  3  1 -1</clus>
</clustering>
</event>
<event>
 6    0  0.6525019E+002  0.1449569E+03  0.7546771E-02  0.1206810E+00
         21   -1    0    0  505  502  0.00000000000E+00  0.00000000000E+00  0.11736644432E+04  0.11736644432E+04  0.00000000000E+00 0.  1.
          2   -1    0    0  503    0 -0.00000000000E+00 -0.00000000000E+00 -0.44800908558E+03  0.44800908558E+03  0.00000000000E+00 0. -1.
         21    1    1    2  503  504  0.53149411007E+02 -0.70644024097E+02 -0.52488403574E+02  0.10281279366E+03  0.00000000000E+00 0. -1.
         21    1    1    2  504  502 -0.37669549770E+02 -0.37181661241E+02  0.48196557469E+03  0.48486316224E+03  0.00000000000E+00 0.  1.
         21    1    1    2  505  501 -0.72426546202E+02  0.14350648742E+03  0.65218529933E+03  0.67170334314E+03  0.00000000000E+00 0.  1.
          2    1    1    2  501    0  0.56946684964E+02 -0.35680802079E+02 -0.35600711279E+03  0.36229422976E+03  0.00000000000E+00 0. -1.
<scales pt_clust_3="144.95692" pt_clust_4="52.92892" pt_clust_5="14000.00000" pt_clust_6="67.14646"></scales>
<clustering>
<clus scale="   52.929">  1  4  2 -1</clus>
<clus scale="   67.146">  2  6  1 -1</clus>
<clus scale="  144.957">  2  3  1 -1</clus>
<clus scale="   52.929">  1  3  2 -1</clus>
</clustering>
</event>
<event>
 6    0  0.6525019E+002  0.1244704E+03  0.7546771E-02  0.1235899E+00
         21   -1    0    0  504  502  0.00000000000E+00  0.00000000000E+00  0.24001690086E+04  0.24001690086E+04  0.00000000000E+00 0. -1.
         -2   -1    0    0    0  501 -0.00000000000E+00 -0.00000000000E+00 -0.12038971813E+02  0.12038971813E+02  0.00000000000E+00 0. -1.
         21    1    1    2  503  502 -0.68288970202E+01  0.85032184952E+02  0.12112700607E+04  0.12142702608E+04  0.00000000000E+00 0. -1.
         21    1    1    2  504  501  0.71256198158E+02  0.21784602232E+02  0.59316244270E+03  0.59782413643E+03  0.00000000000E+00 0. -1.
         21    1    1    2  505  503 -0.49085741761E+02 -0.51433111800E+02  0.20272023154E+03  0.21482613274E+03  0.00000000000E+00 0. -1.
         -2    1    1    2    0  505 -0.15341559376E+02 -0.55383675384E+02  0.38097730182E+03  0.38528745042E+03  0.00000000000E+00 0. -1.
<scales pt_clust_3="107.79652" pt_clust_4="74.51184" pt_clust_5="55.95061" pt_clust_6="55.95061"></scales>
<clustering>
<clus scale="   55.951">  5  6 -1 -1</clus>
<clus scale="   74.512">  1  4  2 -1</clus>
<clus scale="  107.797">  1  3  2 -1</clus>
<clus scale="   74.512">  1  3  2 -1</clus>
</clustering>
</event>
<event>
 6    0  0.6525019E+002  0.1464805E+03  0.7546771E-02  0.1204866E+00
          2   -1    0    0  504    0 -0.00000000000E+00  0.00000000000E+00  0.38679526198E+03  0.38679526198E+03  0.00000000000E+00 0.  1.
         21   -1    0    0  505  502  0.00000000000E+00 -0.00000000000E+00 -0.14627730179E+03  0.14627730179E+03  0.00000000000E+00 0.  1.
         21    1    1    2  503  502  0.34737631262E+01 -0.31553742632E+02 -0.31365685774E+02  0.44626359346E+02  0.00000000000E+00 0. -1.
         21    1    1    2  504  503  0.12121002972E+03 -0.11331101976E+03  0.35069764488E+02  0.16959111677E+03  0.00000000000E+00 0.  1.
         21    1    1    2  505  501 -0.81111500993E+02  0.96146674679E+02  0.80284040696E+02  0.14922729588E+03  0.00000000000E+00 0.  1.
          2    1    1    2  501    0 -0.43572291857E+02  0.48718087712E+02  0.15652984078E+03  0.16962779178E+03  0.00000000000E+00 0.  1.
<scales pt_clust_3="31.74438" pt_clust_4="14000.00000" pt_clust_5="146.48048" pt_clust_6="63.80773"></scales>
<clustering>
<clus scale="   31.744">  2  3  1 -1</clus>
<clus scale="   63.808">  1  6  2 -1</clus>
<clus scale="  146.480">  2  5  1 -1</clus>
<clus scale="   31.744">  2  3  1 -1</clus>
</clustering>
</event>
<event>
 6    0  0.6525019E+002  0.1005134E+03  0.7546771E-02  0.1279220E+00
          2   -1    0    0  504    0 -0.00000000000E+00  0.00000000000E+00  0.10608753099E+04  0.10608753099E+04  0.00000000000E+00 0.  1.
         21   -1    0    0  505  502  0.00000000000E+00 -0.00000000000E+00 -0.43081935669E+02  0.43081935669E+02  0.00000000000E+00 0.  1.
         21    1    1    2  503  501 -0.30064956327E+02  0.90352526160E+02  0.13368661499E+03  0.16413284744E+03  0.00000000000E+00 0.  1.
         21    1    1    2  504  502  0.10791027297E+03 -0.66287181864E+02  0.21375388416E+03  0.24845390012E+03  0.00000000000E+00 0.  1.
         21    1    1    2  505  503 -0.30410322891E+02 -0.35492519118E+02  0.47604132305E+02  0.66713267527E+02  0.00000000000E+00 0. -1.
          2    1    1    2  501    0 -0.47434993755E+02  0.11427174822E+02  0.62274874278E+03  0.62465723048E+03  0.00000000000E+00 0.  1.
<scales pt_clust_3="14000.00000" pt_clust_4="100.51342" pt_clust_5="46.73871" pt_clust_6="49.41107"></scales>
<clustering>
<clus scale="   46.739">  2  5  1 -1</clus>
<clus scale="   49.411">  1  6  2 -1</clus>
<clus scale="  100.513">  1  4  2 -1</clus>
<clus scale="   46.739">  2  3  1 -1</clus>
</clustering>
</event>
<event>
 6    0  0.6525019E+002  0.7083539E+02  0.7546771E-02  0.1357275E+00
         21   -1    0    0  504  502  0.00000000000E+00  0.00000000000E+00  0.20106799521E+03  0.20106799521E+03  0.00000000000E+00 0. -1.
          2   -1    0    0  505    0 -0.00000000000E+00 -0.00000000000E+00 -0.63480293802E+03  0.63480293802E+03  0.00000000000E+00 0.  1.
         21    1    1    2  503  501 -0.10442059273E+03 -0.50986844383E+02  0.12623568968E+03  0.17157729406E+03  0.00000000000E+00 0. -1.
         21    1    1    2  504  503  0.48326192350E+02  0.16038529403E+02  0.25655221448E+02  0.57016187877E+02  0.00000000000E+00 0. -1.
         21    1    1    2  505  502  0.42453125817E+02  0.88702712921E+02 -0.28266222859E+03  0.29927975983E+03  0.00000000000E+00 0.  1.
          2    1    1    2  501    0  0.13641274560E+02 -0.53754397941E+02 -0.30296362535E+03  0.30799769148E+03  0.00000000000E+00 0.  1.
<scales pt_clust_3="70.83539" pt_clust_4="50.91812" pt_clust_5="14000.00000" pt_clust_6="55.40639"></scales>
<clustering>
<clus scale="   50.918">  1  4  2 -1</clus>
<clus scale="   55.406">  2  6  1 -1</clus>
<clus scale="   70.835">  1  3  2 -1</clus>
<clus scale="   50.918">  1  3  2 -1</clus>
</clustering>
</event>
<event>
 6    0  0.6525019E+002  0.8816620E+02  0.7546771E-02  0.1307354E+00
         21   -1    0    0  504  502  0.00000000000E+00  0.00000000000E+00  0.14764079137E+03  0.14764079137E+03  0.00000000000E+00 0.  1.
          1   -1    0    0  505    0 -0.00000000000E+00 -0.00000000000E+00 -0.39359652970E+03  0.39359652970E+03  0.00000000000E+00 0.  1.
         21    1    1    2  503  501  0.10940434132E+03 -0.32746319590E+02  0.41831194166E+02  0.12162022921E+03  0.00000000000E+00 0.  1.
         21    1    1    2  504  503 -0.73686730337E+02  0.50145591995E+01  0.35373888192E+02  0.81891342629E+02  0.00000000000E+00 0.  1.
         21    1    1    2  505  502 -0.62503004075E+02  0.55459361349E+01 -0.18976282675E+03  0.19986823996E+03  0.00000000000E+00 0.  1.
          1    1    1    2  501    0  0.26785393088E+02  0.22185824256E+02 -0.13339799393E+03  0.13785750928E+03  0.00000000000E+00 0.  1.
<scales pt_clust_3="14000.00000" pt_clust_4="88.16620" pt_clust_5="47.79624" pt_clust_6="34.78028"></scales>
<clustering>
<clus scale="   34.780">  2  6  1 -1</clus>
<clus scale="   47.796">  2  5  1 -1</clus>
<clus scale="   88.166">  1  4  2 -1</clus>
<clus scale="   88.166">  1  3  2 -1</clus>
</clustering>
</event>
<event>
 6    0  0.6525019E+002  0.1230714E+03  0.7546771E-02  0.1238115E+00
          2   -1    0    0  505    0 -0.00000000000E+00  0.00000000000E+00  0.15225519185E+04  0.15225519185E+04  0.00000000000E+00 0.  1.
         21   -1    0    0  504  502  0.00000000000E+00 -0.00000000000E+00 -0.17167810807E+03  0.17167810807E+03  0.00000000000E+00 0. -1.
         21    1    1    2  503  501 -0.73502344183E+02 -0.39103018424E+02 -0.42391606788E+02  0.93427453012E+02  0.00000000000E+00 0.  1.
         21    1    1    2  504  503  0.23821202859E+01 -0.66056668762E+02 -0.87766940750E+02  0.10987353582E+03  0.00000000000E+00 0. -1.
         21    1    1    2  505  502 -0.27158237592E+02  0.27101934637E+02  0.19164787750E+03  0.19545074490E+03  0.00000000000E+00 0.  1.
          2    1    1    2  501    0  0.98278461489E+02  0.78057752550E+02  0.12893844805E+04  0.12954782929E+04  0.00000000000E+00 0.  1.
<scales pt_clust_3="123.07136" pt_clust_4="65.86657" pt_clust_5="38.36776" pt_clust_6="14000.00000"></scales>
<clustering>
<clus scale="   38.368">  1  5  2 -1</clus>
<clus scale="   65.867">  2  4  1 -1</clus>
<clus scale="  123.071">  2  3  1 -1</clus>
<clus scale="   65.867">  2  3  1 -1</clus>
</clustering>
</event>
<event>
 6    0  0.6525019E+002  0.6536841E+02  0.7546771E-02  0.1376591E+00
          1   -1    0    0  505    0 -0.00000000000E+00  0.00000000000E+00  0.19097892179E+04  0.19097892179E+04  0.00000000000E+00 0.  1.
         21   -1    0    0  501  502  0.00000000000E+00 -0.00000000000E+00 -0.16316652186E+02  0.16316652186E+02  0.00000000000E+00 0. -1.
         21    1    1    2  503  504  0.41318429307E+02 -0.46340113677E+02  0.99566566746E+02  0.11733763228E+03  0.00000000000E+00 0. -1.
         21    1    1    2  504  502  0.17327238386E+02  0.35764245966E+02  0.11289099104E+03  0.11968162072E+03  0.00000000000E+00 0.  1.
         21    1    1    2  505  503 -0.10146547121E+03 -0.96041719159E+01  0.75312836155E+03  0.75999329664E+03  0.00000000000E+00 0.  1.
          1    1    1    2  501    0  0.42819803513E+02  0.20180039627E+02  0.92788664635E+03  0.92909332042E+03  0.00000000000E+00 0.  1.
<scales pt_clust_3="65.36841" pt_clust_4="39.74059" pt_clust_5="14000.00000" pt_clust_6="48.79446"></scales>
<clustering>
<clus scale="   39.741">  2  4  1 -1</clus>
<clus scale="   48.794">  1  6  2 -1</clus>
<clus scale="   65.368">  2  3  1 -1</clus>
<clus scale="   39.741">  2  3  1 -1</clus>
</clustering>
</event>
<event>
 6    0  0.6525019E+002  0.7617226E+02  0.7546771E-02  0.1340279E+00
          2   -1    0    0  504    0 -0.00000000000E+00  0.00000000000E+00  0.15107482737E+04  0.15107482737E+04  0.00000000000E+00 0.  1.
         21   -1    0    0  505  502  0.00000000000E+00 -0.00000000000E+00 -0.11568456175E+03  0.11568456175E+03  0.00000000000E+00 0. -1.
         21    1    1    2  503  502  0.38677086816E+02 -0.15444739794E+02  0.20269458810E+02  0.46317469623E+02  0.00000000000E+00 0. -1.
         21    1    1    2  504  503 -0.63572411452E+02  0.35831287952E+01  0.46535045657E+02  0.78865713616E+02  0.00000000000E+00 0.  1.
         21    1    1    2  505  501  0.39857278602E+02 -0.62908751036E+02 -0.69230744871E+02  0.10168092078E+03  0.00000000000E+00 0. -1.
          2    1    1    2  501    0 -0.14961953966E+02  0.74770362035E+02  0.13974899523E+04  0.13995687314E+04  0.00000000000E+00 0.  1.
<scales pt_clust_3="41.64681" pt_clust_4="57.49369" pt_clust_5="14000.00000" pt_clust_6="76.17226"></scales>
<clustering>
<clus scale="   41.647">  2  3  1 -1</clus>
<clus scale="   57.494">  2  4  1 -1</clus>
<clus scale="   76.172">  1  6  2 -1</clus>
<clus scale="   41.647">  2  3  1 -1</clus>
</clustering>
</event>
<event>
 6    0  0.6525019E+002  0.8116407E+02  0.7546771E-02  0.1325780E+00
          2   -1    0    0  503    0 -0.00000000000E+00  0.00000000000E+00  0.49071805480E+03  0.49071805480E+03  0.00000000000E+00 0.  1.
         21   -1    0    0  504  502  0.00000000000E+00 -0.00000000000E+00 -0.65510615254E+03  0.65510615254E+03  0.00000000000E+00 0.  1.
         21    1    1    2  503  502  0.12052631256E+03 -0.55591520018E+02 -0.68693362876E+02  0.14945162167E+03  0.00000000000E+00 0.  1.
         21    1    1    2  504  505 -0.31776517038E+02 -0.41606598085E+02 -0.52615068721E+03  0.52874890231E+03  0.00000000000E+00 0.  1.
         21    1    1    2  505  501 -0.30808791632E+02  0.42711080822E+02  0.32691211413E+02  0.61984944708E+02  0.00000000000E+00 0.  1.
          2    1    1    2  501    0 -0.57941003889E+02  0.54487037281E+02  0.39776474093E+03  0.40563873865E+03  0.00000000000E+00 0.  1.
<scales pt_clust_3="81.16407" pt_clust_4="52.35319" pt_clust_5="51.24807" pt_clust_6="14000.00000"></scales>
<clustering>
<clus scale="   52.353">  2  4  1 -1</clus>
<clus scale="   51.248">  2  5  1 -1</clus>
<clus scale="   81.164">  2  3  1 -1</clus>
<clus scale="   52.353">  2  3  1 -1</clus>
</clustering>
</event>
<event>
 6    0  0.6525019E+002  0.2297330E+03  0.7546771E-02  0.1126828E+00
          2   -1    0    0  503    0 -0.00000000000E+00  0.00000000000E+00  0.10586900675E+04  0.10586900675E+04  0.00000000000E+00 0. -1.
         21   -1    0    0  504  502  0.00000000000E+00 -0.00000000000E+00 -0.75544129026E+03  0.75544129026E+03  0.00000000000E+00 0.  1.
         21    1    1    2  503  505  0.29228790294E+02 -0.13261135096E+02  0.27013423256E+02  0.41951220746E+02  0.00000000000E+00 0. -1.
         21    1    1    2  504  501 -0.78306255708E+01 -0.20254767788E+03  0.14451724203E+03  0.24894198874E+03  0.00000000000E+00 0. -1.
         21    1    1    2  505  502 -0.58020311885E+02  0.22586262621E+03 -0.67576130661E+03  0.71486615951E+03  0.00000000000E+00 0.  1.
          2    1    1    2  501    0  0.36622147161E+02 -0.10053813237E+02  0.80747941858E+03  0.80837198878E+03  0.00000000000E+00 0. -1.
<scales pt_clust_3="32.09642" pt_clust_4="229.73300" pt_clust_5="14000.00000" pt_clust_6="63.10622"></scales>
<clustering>
<clus scale="   32.096">  1  3  2 -1</clus>
<clus scale="   63.106">  1  6  2 -1</clus>
<clus scale="  229.733">  1  4  2 -1</clus>
<clus scale="  229.733">  2  3  1 -1</clus>
</clustering>
</event>
<event>
 6    0  0.6525019E+002  0.1035071E+03  0.7546771E-02  0.1273089E+00
         21   -1    0    0  503  502  0.00000000000E+00  0.00000000000E+00  0.80398591556E+03  0.80398591556E+03  0.00000000000E+00 0.  1.
         -2   -1    0    0    0  501 -0.00000000000E+00 -0.00000000000E+00 -0.41898834157E+03  0.41898834157E+03  0.00000000000E+00 0.  1.
         21    1    1    2  503  505 -0.63196024791E+02  0.33477449860E+02  0.16478287270E+03  0.17963260376E+03  0.00000000000E+00 0.  1.
         21    1    1    2  504  502  0.40988149447E+02  0.76692715297E+02  0.57983829750E+03  0.58632265197E+03  0.00000000000E+00 0.  1.
         21    1    1    2  505  501 -0.53583804090E+02 -0.87217757472E+02 -0.15050942886E+02  0.10346348226E+03  0.00000000000E+00 0.  1.
         -2    1    1    2    0  504  0.75791679435E+02 -0.22952407685E+02 -0.34457265333E+03  0.35355551914E+03  0.00000000000E+00 0.  1.
<scales pt_clust_3="71.51557" pt_clust_4="14000.00000" pt_clust_5="103.50708" pt_clust_6="78.69195"></scales>
<clustering>
<clus scale="   71.516">  1  3  2 -1</clus>
<clus scale="   78.692">  2  6  1 -1</clus>
<clus scale="  103.507">  2  5  1 -1</clus>
<clus scale="   71.516">  1  3  2 -1</clus>
</clustering>
</event>
<event>
 6    0  0.6525019E+002  0.8625731E+02  0.7546771E-02  0.1312177E+00
          1   -1    0    0  504    0 -0.00000000000E+00  0.00000000000E+00  0.89233827525E+03  0.89233827525E+03  0.00000000000E+00 0.  1.
         21   -1    0    0  503  502  0.00000000000E+00 -0.00000000000E+00 -0.37162949652E+02  0.37162949652E+02  0.00000000000E+00 0.  1.
         21    1    1    2  503  501  0.11096094237E+03  0.23340303500E+02  0.13794046678E+03  0.17856279812E+03  0.00000000000E+00 0.  1.
         21    1    1    2  504  505 -0.60037342957E+02  0.73250765845E+02  0.23450208773E+03  0.25290588446E+03  0.00000000000E+00 0.  1.
         21    1    1    2  505  502 -0.29699676341E+02 -0.33674322840E+02  0.10048244641E+03  0.11005795214E+03  0.00000000000E+00 0.  1.
          1    1    1    2  501    0 -0.21223923070E+02 -0.62916746506E+02  0.38225032468E+03  0.38797459018E+03  0.00000000000E+00 0.  1.
<scales pt_clust_3="86.25731" pt_clust_4="14000.00000" pt_clust_5="44.90023" pt_clust_6="70.07698"></scales>
<clustering>
<clus scale="   44.900">  2  5  1 -1</clus>
<clus scale="   70.077">  1  6  2 -1</clus>
<clus scale="   86.257">  2  3  1 -1</clus>
<clus scale="   44.900">  2  3  1 -1</clus>
</clustering>
</event>
<event>
 6    0  0.6525019E+002  0.1088291E+03  0.7546771E-02  0.1262754E+00
         21   -1    0    0  503  502  0.00000000000E+00  0.00000000000E+00  0.33892048932E+03  0.33892048932E+03  0.00000000000E+00 0. -1.
          2   -1    0    0  505    0 -0.00000000000E+00 -0.00000000000E+00 -0.11463486012E+04  0.11463486012E+04  0.00000000000E+00 0.  1.
         21    1    1    2  503  501  0.38500054809E+02  0.78427679627E+01  0.76726074871E+02  0.86201240100E+02  0.00000000000E+00 0.  1.
         21    1    1    2  504  502  0.11357542678E+02  0.94231284983E+02  0.22706739504E+03  0.24610593397E+03  0.00000000000E+00 0. -1.
         21    1    1    2  505  504 -0.63212955574E+02 -0.73902974717E+02 -0.93970059387E+02  0.13523276040E+03  0.00000000000E+00 0. -1.
          2    1    1    2  501    0  0.13355358087E+02 -0.28171078229E+02 -0.10172515224E+04  0.10177291560E+04  0.00000000000E+00 0.  1.
<scales pt_clust_3="39.58080" pt_clust_4="108.82910" pt_clust_5="14000.00000" pt_clust_6="31.17652"></scales>
<clustering>
<clus scale="   31.177">  2  6  1 -1</clus>
<clus scale="   39.581">  1  3  2 -1</clus>
<clus scale="  108.829">  1  4  2 -1</clus>
<clus scale="   39.581">  1  3  2 -1</clus>
</clustering>
</event>
<event>
 6    0  0.6525019E+002  0.1453281E+03  0.7546771E-02  0.1206334E+00
         21   -1    0    0  504  502  0.00000000000E+00  0.00000000000E+00  0.47473144837E+03  0.47473144837E+03  0.00000000000E+00 0.  1.
          2   -1    0    0  503    0 -0.00000000000E+00 -0.00000000000E+00 -0.26093004302E+04  0.26093004302E+04  0.00000000000E+00 0. -1.
         21    1    1    2  503  502 -0.29088216038E+02  0.25357275430E+02  0.22923653663E+02  0.44884402935E+02  0.00000000000E+00 0.  1.
         21    1    1    2  504  505  0.10204106706E+03 -0.72402738780E+01  0.20134226535E+03  0.22583956418E+03  0.00000000000E+00 0.  1.
         21    1    1    2  505  501  0.38470886049E+02 -0.11203914566E+03  0.20959095082E+03  0.24075121163E+03  0.00000000000E+00 0.  1.
          2    1    1    2  501    0 -0.11142373707E+03  0.93922144111E+02 -0.25684258517E+04  0.25725566998E+04  0.00000000000E+00 0. -1.
<scales pt_clust_3="38.58906" pt_clust_4="88.09180" pt_clust_5="14000.00000" pt_clust_6="145.32808"></scales>
<clustering>
<clus scale="   38.589">  1  3  2 -1</clus>
<clus scale="   88.092">  1  4  2 -1</clus>
<clus scale="  145.328">  2  6  1 -1</clus>
<clus scale="   38.589">  1  3  2 -1</clus>
</clustering>
</event>
<event>
 6    0  0.6525019E+002  0.8574724E+02  0.7546771E-02  0.1313490E+00
         21   -1    0    0  503  502  0.00000000000E+00  0.00000000000E+00  0.10689182491E+03  0.10689182491E+03  0.00000000000E+00 0.  1.
          2   -1    0    0  504    0 -0.00000000000E+00 -0.00000000000E+00 -0.16077437229E+04  0.16077437229E+04  0.00000000000E+00 0.  1.
         21    1    1    2  503  501 -0.63725526576E+02  0.18230528658E+02 -0.16089526996E+03  0.17401316849E+03  0.00000000000E+00 0.  1.
         21    1    1    2  504  505  0.92180174311E+02 -0.50889784503E+02 -0.82365168280E+02  0.13368236850E+03  0.00000000000E+00 0.  1.
         21    1    1    2  505  502  0.29542068507E+02 -0.29438176016E+02  0.67382259254E+02  0.79244614208E+02  0.00000000000E+00 0.  1.
          2    1    1    2  501    0 -0.57996716242E+02  0.62097431860E+02 -0.13249737190E+04  0.13276953967E+04  0.00000000000E+00 0.  1.
<scales pt_clust_3="59.28356" pt_clust_4="85.74724" pt_clust_5="41.70540" pt_clust_6="14000.00000"></scales>
<clustering>
<clus scale="   41.705">  1  5  2 -1</clus>
<clus scale="   59.284">  1  3  2 -1</clus>
<clus scale="   85.747">  1  4  2 -1</clus>
<clus scale="   41.705">  1  3  2 -1</clus>
</clustering>
</event>
<event>
 6    0  0.6525019E+002  0.2077711E+03  0.7546771E-02  0.1143343E+00
          2   -1    0    0  504    0 -0.00000000000E+00  0.00000000000E+00  0.33249825789E+04  0.33249825789E+04  0.00000000000E+00 0.  1.
         21   -1    0    0  503  502  0.00000000000E+00 -0.00000000000E+00 -0.38607190234E+03  0.38607190234E+03  0.00000000000E+00 0. -1.
         21    1    1    2  503  501 -0.25366916756E+03 -0.24863826577E+02  0.93160998746E+00  0.25488649306E+03  0.00000000000E+00 0. -1.
         21    1    1    2  504  505  0.71357631992E+02 -0.87977712911E+02  0.58277712293E+03  0.59368439817E+03  0.00000000000E+00 0.  1.
         21    1    1    2  505  502  0.46539941893E+02  0.16745282205E+02 -0.24855018634E+03  0.25342368831E+03  0.00000000000E+00 0. -1.
          2    1    1    2  501    0  0.13577159368E+03  0.96096257283E+02  0.26037521300E+04  0.26090599017E+04  0.00000000000E+00 0.  1.
<scales pt_clust_3="14000.00000" pt_clust_4="113.95250" pt_clust_5="49.46080" pt_clust_6="207.77115"></scales>
<clustering>
<clus scale="   49.461">  2  5  1 -1</clus>
<clus scale="  113.953">  1  4  2 -1</clus>
<clus scale="  207.771">  1  6  2 -1</clus>
<clus scale="   49.461">  2  3  1 -1</clus>
</clustering>
</event>
<event>
 6    0  0.6525019E+002  0.1568105E+03  0.7546771E-02  0.1192345E+00
          2   -1    0    0  505    0 -0.00000000000E+00  0.00000000000E+00  0.49162274987E+03  0.49162274987E+03  0.00000000000E+00 0. -1.
         21   -1    0    0  501  502  0.00000000000E+00 -0.00000000000E+00 -0.49200350411E+03  0.49200350411E+03  0.00000000000E+00 0. -1.
         21    1    1    2  503  502  0.76937480826E+02 -0.12794891228E+02 -0.22603632557E+03  0.23911400142E+03  0.00000000000E+00 0. -1.
         21    1    1    2  504  503  0.41900716285E+02 -0.10792819385E+03 -0.21400829451E+03  0.24331813573E+03  0.00000000000E+00 0. -1.
         21    1    1    2  505  504 -0.37477797781E+02  0.54935786383E+02  0.21127259114E+02  0.69777410598E+02  0.00000000000E+00 0. -1.
          2    1    1    2  501    0 -0.81360399329E+02  0.65787298695E+02  0.41853660673E+03  0.43141670624E+03  0.00000000000E+00 0. -1.
<scales pt_clust_3="77.32345" pt_clust_4="156.81053" pt_clust_5="66.50207" pt_clust_6="14000.00000"></scales>
<clustering>
<clus scale="   66.502">  1  5  2 -1</clus>
<clus scale="   77.323">  2  3  1 -1</clus>
<clus scale="  156.811">  2  4  1 -1</clus>
<clus scale="   77.323">  2  3  1 -1</clus>
</clustering>
</event>
<event>
 6    0  0.6525019E+002  0.1017121E+03  0.7546771E-02  0.1276736E+00
          1   -1    0    0  504    0 -0.00000000000E+00  0.00000000000E+00  0.68352367078E+03  0.68352367078E+03  0.00000000000E+00 0. -1.
         21   -1    0    0  503  502  0.00000000000E+00 -0.00000000000E+00 -0.32661788344E+03  0.32661788344E+03  0.00000000000E+00 0.  1.
         21    1    1    2  503  505  0.28309977402E+02  0.28441415111E+02 -0.83257360008E+02  0.92423789738E+02  0.00000000000E+00 0.  1.
         21    1    1    2  504  502 -0.14811987003E+02  0.35664734087E+02  0.41843325472E+01  0.38844264124E+02  0.00000000000E+00 0. -1.
         21    1    1    2  505  501  0.79391223214E+02 -0.20954143509E+02 -0.20965784267E+03  0.22516317071E+03  0.00000000000E+00 0.  1.
          1    1    1    2  501    0 -0.92889213612E+02 -0.43152005689E+02  0.64563665747E+03  0.65371032963E+03  0.00000000000E+00 0. -1.
<scales pt_clust_3="45.48243" pt_clust_4="38.61824" pt_clust_5="101.71214" pt_clust_6="14000.00000"></scales>
<clustering>
<clus scale="   38.618">  2  4  1 -1</clus>
<clus scale="   45.482">  2  3  1 -1</clus>
<clus scale="  101.712">  2  5  1 -1</clus>
<clus scale="   38.618">  2  3  1 -1</clus>
</clustering>
</event>
<event>
 6    0  0.6525019E+002  0.1169222E+03  0.7546771E-02  0.1248263E+00
         -3   -1    0    0    0  501 -0.00000000000E+00  0.00000000000E+00  0.16146325540E+03  0.16146325540E+03  0.00000000000E+00 0. -1.
         21   -1    0    0  503  502  0.00000000000E+00 -0.00000000000E+00 -0.36988535622E+03  0.36988535622E+03  0.00000000000E+00 0. -1.
         21    1    1    2  503  504 -0.56776431891E+01 -0.52239027318E+02 -0.84934720138E+02  0.99875213603E+02  0.00000000000E+00 0. -1.
         21    1    1    2  504  501 -0.28181359159E+01  0.15697345204E+03 -0.16004583400E+03  0.22419472678E+03  0.00000000000E+00 0. -1.
         21    1    1    2  505  502 -0.51071550349E+02 -0.80173786012E+01 -0.44111254333E+02  0.67958696084E+02  0.00000000000E+00 0. -1.
         -3    1    1    2    0  505  0.59567329454E+02 -0.96717046116E+02  0.80669707647E+02  0.13931997516E+03  0.00000000000E+00 0. -1.
<scales pt_clust_3="58.39685" pt_clust_4="116.92223" pt_clust_5="51.69702" pt_clust_6="14000.00000"></scales>
<clustering>
<clus scale="   51.697">  2  5  1 -1</clus>
<clus scale="   58.397">  2  3  1 -1</clus>
<clus scale="  116.922">  2  4  1 -1</clus>
<clus scale="   51.697">  2  3  1 -1</clus>
</clustering>
</event>
<event>
 6    0  0.6525019E+002  0.1201259E+03  0.7546771E-02  0.1242890E+00
         21   -1    0    0  505  502  0.00000000000E+00  0.00000000000E+00  0.12272042536E+04  0.12272042536E+04  0.00000000000E+00 0.  1.
         -1   -1    0    0    0  501 -0.00000000000E+00 -0.00000000000E+00 -0.11888693755E+03  0.11888693755E+03  0.00000000000E+00 0.  1.
         21    1    1    2  503  501  0.64913045456E+02 -0.57550901330E+02  0.19114879480E+03  0.20991348567E+03  0.00000000000E+00 0.  1.
         21    1    1    2  504  502 -0.96029867039E+02  0.13249822320E+03  0.19551835048E+03  0.25496066342E+03  0.00000000000E+00 0.  1.
         21    1    1    2  505  503  0.22214051489E+02 -0.39646071185E+02  0.79659875424E+03  0.79789400944E+03  0.00000000000E+00 0.  1.
         -1    1    1    2    0  504  0.89027700940E+01 -0.35301250688E+02 -0.74948583421E+02  0.83323032664E+02  0.00000000000E+00 0.  1.
<scales pt_clust_3="14000.00000" pt_clust_4="120.12586" pt_clust_5="46.01819" pt_clust_6="36.40656"></scales>
<clustering>
<clus scale="   36.407">  2  6  1 -1</clus>
<clus scale="   46.018">  1  5  2 -1</clus>
<clus scale="  120.126">  2  4  1 -1</clus>
<clus scale="   46.018">  1  3  2 -1</clus>
</clustering>
</event>
<event>
 6    0  0.8931934E+002  0.9452379E+02  0.7546771E-02  0.1292252E+00
         21   -1    0    0  503  502  0.00000000000E+00  0.00000000000E+00  0.19373882709E+04  0.19373882709E+04  0.00000000000E+00 0. -1.
          1   -1    0    0  504    0 -0.00000000000E+00 -0.00000000000E+00 -0.67139941510E+03  0.67139941510E+03  0.00000000000E+00 0. -1.
         21    1    1    2  503  501 -0.99668595268E+02 -0.43778893950E+02 -0.15367064014E+03  0.18832176210E+03  0.00000000000E+00 0.  1.
         21    1    1    2  504  505  0.53807523378E+02  0.20642750929E+02  0.79943285987E+02  0.98551010712E+02  0.00000000000E+00 0.  1.
         21    1    1    2  505  502  0.48316628922E+02 -0.17029468176E+02  0.18296320922E+04  0.18303491722E+04  0.00000000000E+00 0. -1.
          1    1    1    2  501    0 -0.24555570315E+01  0.40165611197E+02 -0.48991588222E+03  0.49156574101E+03  0.00000000000E+00 0. -1.
<scales pt_clust_3="14000.00000" pt_clust_4="94.52379" pt_clust_5="51.19883" pt_clust_6="40.24060"></scales>
<clustering>
<clus scale="   40.241">  2  6  1 -1</clus>
<clus scale="   51.199">  1  5  2 -1</clus>
<clus scale="   94.524">  1  4  2 -1</clus>
<clus scale="   51.199">  1  3  2 -1</clus>
</clustering>
</event>
<event>
 6    0  0.6525019E+002  0.1003462E+03  0.7546771E-02  0.1279570E+00
         21   -1    0    0  504  502  0.00000000000E+00  0.00000000000E+00  0.32830329480E+02  0.32830329480E+02  0.00000000000E+00 0.  1.
          2   -1    0    0  505    0 -0.00000000000E+00 -0.00000000000E+00 -0.41522521938E+04  0.41522521938E+04  0.00000000000E+00 0. -1.
         21    1    1    2  503  502  0.25983133845E+02 -0.27075624812E+02  0.14590914180E+02  0.40262979025E+02  0.00000000000E+00 0.  1.
         21    1    1    2  504  501  0.81592233331E+02 -0.16273862045E+02 -0.46511544435E+03  0.47249815630E+03  0.00000000000E+00 0. -1.
         21    1    1    2  505  503 -0.77158507142E+02  0.72957774086E+02 -0.19408751511E+04  0.19437779257E+04  0.00000000000E+00 0. -1.
          2    1    1    2  501    0 -0.30416860033E+02 -0.29608287229E+02 -0.17280221830E+04  0.17285434623E+04  0.00000000000E+00 0. -1.
<scales pt_clust_3="37.52616" pt_clust_4="100.34617" pt_clust_5="14000.00000" pt_clust_6="42.49949"></scales>
<clustering>
<clus scale="   37.526">  1  3  2 -1</clus>
<clus scale="   42.499">  2  6  1 -1</clus>
<clus scale="  100.346">  1  4  2 -1</clus>
<clus scale="   37.526">  1  3  2 -1</clus>
</clustering>
</event>
<event>
 6    0  0.6525019E+002  0.3158491E+03  0.7546771E-02  0.1077576E+00
          2   -1    0    0  502    0 -0.00000000000E+00  0.00000000000E+00  0.42391465505E+03  0.42391465505E+03  0.00000000000E+00 0. -1.
         21   -1    0    0  503  502  0.00000000000E+00 -0.00000000000E+00 -0.33398285388E+03  0.33398285388E+03  0.00000000000E+00 0.  1.
         21    1    1    2  503  504 -0.21509012891E+03 -0.62593828443E+00 -0.79547844674E+02  0.22932948991E+03  0.00000000000E+00 0.  1.
         21    1    1    2  504  505 -0.77897686197E+02 -0.28767605367E+02 -0.88054092958E+02  0.12103366441E+03  0.00000000000E+00 0.  1.
         21    1    1    2  505  501  0.51686593396E+02 -0.33241025409E+02  0.24107291270E+02  0.66012356416E+02  0.00000000000E+00 0. -1.
          2    1    1    2  501    0  0.24130122171E+03  0.62634569061E+02  0.23342644754E+03  0.34152199819E+03  0.00000000000E+00 0. -1.
<scales pt_clust_3="307.67504" pt_clust_4="55.42895" pt_clust_5="56.72796" pt_clust_6="56.72796"></scales>
<clustering>
<clus scale="   55.429">  3  4 -1 -1</clus>
<clus scale="   56.728">  5  6 -1 -1</clus>
<clus scale="  307.675">  2  3  1 -1</clus>
<clus scale="  307.675">  2  3  1 -1</clus>
</clustering>
</event>
<event>
 6    0  0.6525019E+002  0.1374964E+03  0.7546771E-02  0.1216738E+00
         21   -1    0    0  503  502  0.00000000000E+00  0.00000000000E+00  0.14309125162E+03  0.14309125162E+03  0.00000000000E+00 0. -1.
          2   -1    0    0  505    0 -0.00000000000E+00 -0.00000000000E+00 -0.17418424452E+04  0.17418424452E+04  0.00000000000E+00 0. -1.
         21    1    1    2  503  504  0.17469418283E+03 -0.50447302199E+02  0.45117489921E+02  0.18734613877E+03  0.00000000000E+00 0. -1.
         21    1    1    2  504  501 -0.65559697184E+02  0.68771945560E+02 -0.11447004427E+04  0.11486369130E+04  0.00000000000E+00 0. -1.
         21    1    1    2  505  502 -0.67769538357E+02 -0.17835082700E+02 -0.27196544040E+02  0.75169491895E+02  0.00000000000E+00 0. -1.
          2    1    1    2  501    0 -0.41364947290E+02 -0.48956066052E+00 -0.47197169678E+03  0.47378115317E+03  0.00000000000E+00 0. -1.
<scales pt_clust_3="128.01971" pt_clust_4="33.09872" pt_clust_5="70.07710" pt_clust_6="33.09872"></scales>
<clustering>
<clus scale="   33.099">  4  6 -1 -1</clus>
<clus scale="   70.077">  1  5  2 -1</clus>
<clus scale="  128.020">  1  3  2 -1</clus>
<clus scale="   70.077">  1  3  2 -1</clus>
</clustering>
</event>
<event>
 6    0  0.6525019E+002  0.1811974E+03  0.7546771E-02  0.1166649E+00
         21   -1    0    0  505  502  0.00000000000E+00  0.00000000000E+00  0.15303094732E+04  0.15303094732E+04  0.00000000000E+00 0. -1.
          2   -1    0    0  503    0 -0.00000000000E+00 -0.00000000000E+00 -0.78832086968E+03  0.78832086968E+03  0.00000000000E+00 0. -1.
         21    1    1    2  503  502 -0.15542020497E+02  0.18042637763E+03 -0.15988321947E+03  0.24157374860E+03  0.00000000000E+00 0. -1.
         21    1    1    2  504  501  0.48447535092E+02 -0.50552670943E+02  0.18591552168E+03  0.19866383012E+03  0.00000000000E+00 0. -1.
         21    1    1    2  505  504 -0.65469385016E+00  0.50128556361E+02  0.12822886028E+04  0.12832682344E+04  0.00000000000E+00 0. -1.
          2    1    1    2  501    0 -0.32250820745E+02 -0.18000226305E+03 -0.56633230148E+03  0.59512452969E+03  0.00000000000E+00 0. -1.
<scales pt_clust_3="181.19738" pt_clust_4="49.32509" pt_clust_5="50.13283" pt_clust_6="14000.00000"></scales>
<clustering>
<clus scale="   50.133">  1  5  2 -1</clus>
<clus scale="   49.325">  1  4  2 -1</clus>
<clus scale="  181.197">  1  3  2 -1</clus>
<clus scale="   50.133">  1  3  2 -1</clus>
</clustering>
</event>
<event>
 6    0  0.6525019E+002  0.7934793E+02  0.7546771E-02  0.1330912E+00
          2   -1    0    0  505    0 -0.00000000000E+00  0.00000000000E+00  0.50560815439E+04  0.50560815439E+04  0.00000000000E+00 0. -1.
         21   -1    0    0  503  502  0.00000000000E+00 -0.00000000000E+00 -0.10829976762E+03  0.10829976762E+03  0.00000000000E+00 0. -1.
         21    1    1    2  503  501  0.30418050585E+01 -0.43768126245E+02 -0.81541094341E+02  0.92595094467E+02  0.00000000000E+00 0. -1.
         21    1    1    2  504  502  0.71932049569E+02  0.39653884077E+02  0.81048997804E+02  0.11539319877E+03  0.00000000000E+00 0.  1.
         21    1    1    2  505  504 -0.13965326386E+03 -0.18063556563E+02  0.13227400130E+04  0.13302144445E+04  0.00000000000E+00 0. -1.
          2    1    1    2  501    0  0.64679409237E+02  0.22177798731E+02  0.36255338598E+04  0.36261785738E+04  0.00000000000E+00 0. -1.
<scales pt_clust_3="43.87370" pt_clust_4="14000.00000" pt_clust_5="79.34793" pt_clust_6="68.20721"></scales>
<clustering>
<clus scale="   43.874">  2  3  1 -1</clus>
<clus scale="   68.207">  1  6  2 -1</clus>
<clus scale="   79.348">  1  5  2 -1</clus>
<clus scale="   43.874">  2  3  1 -1</clus>
</clustering>
</event>
<event>
 6    0  0.6525019E+002  0.9217232E+02  0.7546771E-02  0.1297675E+00
         21   -1    0    0  504  502  0.00000000000E+00  0.00000000000E+00  0.47185961392E+03  0.47185961392E+03  0.00000000000E+00 0.  1.
          1   -1    0    0  503    0 -0.00000000000E+00 -0.00000000000E+00 -0.65690864794E+03  0.65690864794E+03  0.00000000000E+00 0.  1.
         21    1    1    2  503  505 -0.45939211802E+02 -0.49574400663E+02  0.60195989995E+02  0.90507400766E+02  0.00000000000E+00 0. -1.
         21    1    1    2  504  501  0.43805195792E+02  0.13199139173E+03  0.35647746785E+03  0.38264449265E+03  0.00000000000E+00 0.  1.
         21    1    1    2  505  502  0.33941242296E+02 -0.40323046157E+02 -0.11376725713E+01  0.52718595190E+02  0.00000000000E+00 0.  1.
          1    1    1    2  501    0 -0.31807226286E+02 -0.42093944906E+02 -0.60058481929E+03  0.60289777326E+03  0.00000000000E+00 0.  1.
<scales pt_clust_3="92.17232" pt_clust_4="14000.00000" pt_clust_5="52.70632" pt_clust_6="52.79036"></scales>
<clustering>
<clus scale="   52.706">  1  5  2 -1</clus>
<clus scale="   52.790">  2  6  1 -1</clus>
<clus scale="   92.172">  2  3  1 -1</clus>
<clus scale="   52.706">  1  3  2 -1</clus>
</clustering>
</event>
<event>
 6    0  0.6525019E+002  0.1607365E+03  0.7546771E-02  0.1187868E+00
          2   -1    0    0  503    0 -0.00000000000E+00  0.00000000000E+00  0.17446129047E+04  0.17446129047E+04  0.00000000000E+00 0.  1.
         21   -1    0    0  505  502  0.00000000000E+00 -0.00000000000E+00 -0.15215155298E+03  0.15215155298E+03  0.00000000000E+00 0.  1.
         21    1    1    2  503  502  0.21018403948E+02  0.22597565909E+02  0.53509920214E+03  0.53598841351E+03  0.00000000000E+00 0. -1.
         21    1    1    2  504  501  0.64538348265E+02 -0.12428447278E+03  0.18795547264E+03  0.23439088777E+03  0.00000000000E+00 0.  1.
         21    1    1    2  505  504  0.30951798770E+02 -0.15850936123E+02 -0.11912437402E+03  0.12409626307E+03  0.00000000000E+00 0.  1.
          2    1    1    2  501    0 -0.11650855098E+03  0.11753784300E+03  0.98853105091E+03  0.10022888933E+04  0.00000000000E+00 0.  1.
<scales pt_clust_3="30.86136" pt_clust_4="14000.00000" pt_clust_5="34.79184" pt_clust_6="160.73649"></scales>
<clustering>
<clus scale="   30.861">  1  3  2 -1</clus>
<clus scale="   34.792">  2  5  1 -1</clus>
<clus scale="  160.736">  1  6  2 -1</clus>
<clus scale="   34.792">  2  3  1 -1</clus>
</clustering>
</event>
<event>
 6    0  0.6525019E+002  0.2217576E+03  0.7546771E-02  0.1132579E+00
         21   -1    0    0  503  502  0.00000000000E+00  0.00000000000E+00  0.42124972104E+03  0.42124972104E+03  0.00000000000E+00 0. -1.
          1   -1    0    0  504    0 -0.00000000000E+00 -0.00000000000E+00 -0.78146506255E+03  0.78146506255E+03  0.00000000000E+00 0.  1.
         21    1    1    2  503  501  0.41509892948E+02 -0.39254626063E+01  0.50387873286E+02  0.65401974308E+02  0.00000000000E+00 0. -1.
         21    1    1    2  504  505  0.69892626179E+02  0.14285725426E+03 -0.22101436724E+03  0.27228757742E+03  0.00000000000E+00 0. -1.
         21    1    1    2  505  502 -0.91682073821E+02 -0.22464424008E+03  0.28961364705E+03  0.37781834500E+03  0.00000000000E+00 0. -1.
          1    1    1    2  501    0 -0.19720445306E+02  0.85712448423E+02 -0.47920249461E+03  0.48720688687E+03  0.00000000000E+00 0.  1.
<scales pt_clust_3="41.69509" pt_clust_4="221.75758" pt_clust_5="14000.00000" pt_clust_6="87.80823"></scales>
<clustering>
<clus scale="   41.695">  1  3  2 -1</clus>
<clus scale="   87.808">  2  6  1 -1</clus>
<clus scale="  221.758">  2  4  1 -1</clus>
<clus scale="   41.695">  1  3  2 -1</clus>
</clustering>
</event>
<event>
 6    0  0.6525019E+002  0.1194894E+03  0.7546771E-02  0.1243942E+00
         21   -1    0    0  505  502  0.00000000000E+00  0.00000000000E+00  0.38723216985E+03  0.38723216985E+03  0.00000000000E+00 0.  1.
          2   -1    0    0  504    0 -0.00000000000E+00 -0.00000000000E+00 -0.81615092917E+03  0.81615092917E+03  0.00000000000E+00 0. -1.
         21    1    1    2  503  501  0.45157254430E+02 -0.32307790528E+02 -0.30580804775E+03  0.31080787156E+03  0.00000000000E+00 0.  1.
         21    1    1    2  504  502  0.51663164885E+02  0.17017102851E+02 -0.29986003855E+03  0.30475351863E+03  0.00000000000E+00 0.  1.
         21    1    1    2  505  503 -0.10131501796E+03  0.52769457141E+02  0.37190263499E+03  0.38905130560E+03  0.00000000000E+00 0.  1.
          2    1    1    2  501    0  0.44945986461E+01 -0.37478769464E+02 -0.19515330801E+03  0.19877040324E+03  0.00000000000E+00 0. -1.
<scales pt_clust_3="30.54359" pt_clust_4="54.39361" pt_clust_5="113.60219" pt_clust_6="30.54359"></scales>
<clustering>
<clus scale="   30.544">  3  6 -1 -1</clus>
<clus scale="   54.394">  2  4  1 -1</clus>
<clus scale="  113.602">  1  5  2 -1</clus>
<clus scale="  113.602">  1  3  2 -1</clus>
</clustering>
</event>
<event>
 6    0  0.6525019E+002  0.9637743E+02  0.7546771E-02  0.1288104E+00
         21   -1    0    0  503  502  0.00000000000E+00  0.00000000000E+00  0.10653538605E+03  0.10653538605E+03  0.00000000000E+00 0. -1.
         -3   -1    0    0    0  501 -0.00000000000E+00 -0.00000000000E+00 -0.13607513732E+04  0.13607513732E+04  0.00000000000E+00 0.  1.
         21    1    1    2  503  504 -0.28597053504E+02 -0.14347482106E+02  0.52614095711E+02  0.61578281718E+02  0.00000000000E+00 0.  1.
         21    1    1    2  504  501  0.28735063081E+02  0.11694794358E+03 -0.35529468190E+03  0.37514908549E+03  0.00000000000E+00 0.  1.
         21    1    1    2  505  502  0.41007345014E+02 -0.20674434545E+02  0.23248711560E+02  0.51473655185E+02  0.00000000000E+00 0. -1.
         -3    1    1    2    0  505 -0.41145354591E+02 -0.81926026926E+02 -0.97478411253E+03  0.97908573687E+03  0.00000000000E+00 0.  1.
<scales pt_clust_3="31.99440" pt_clust_4="96.37743" pt_clust_5="37.00725" pt_clust_6="14000.00000"></scales>
<clustering>
<clus scale="   31.994">  1  3  2 -1</clus>
<clus scale="   37.007">  1  5  2 -1</clus>
<clus scale="   96.377">  1  4  2 -1</clus>
<clus scale="   31.994">  1  3  2 -1</clus>
</clustering>
</event>
<event>
 6    0  0.6525019E+002  0.7172240E+02  0.7546771E-02  0.1354332E+00
         21   -1    0    0  503  502  0.00000000000E+00  0.00000000000E+00  0.55627775100E+03  0.55627775100E+03  0.00000000000E+00 0.  1.
          2   -1    0    0  505    0 -0.00000000000E+00 -0.00000000000E+00 -0.46353529643E+03  0.46353529643E+03  0.00000000000E+00 0. -1.
         21    1    1    2  503  501 -0.37639009990E+02  0.11018227025E+03  0.26288256209E+03  0.28751359829E+03  0.00000000000E+00 0.  1.
         21    1    1    2  504  502  0.51960050421E+01 -0.46701275094E+02  0.19031840700E+03  0.19603342472E+03  0.00000000000E+00 0.  1.
         21    1    1    2  505  504 -0.27256493248E+02 -0.53010150544E+02  0.75455260537E+02  0.96158664860E+02  0.00000000000E+00 0.  1.
          2    1    1    2  501    0  0.59699498196E+02 -0.10470844611E+02 -0.43591377505E+03  0.44010735957E+03  0.00000000000E+00 0. -1.
<scales pt_clust_3="71.72240" pt_clust_4="46.98944" pt_clust_5="14000.00000" pt_clust_6="60.68750"></scales>
<clustering>
<clus scale="   46.989">  1  4  2 -1</clus>
<clus scale="   60.687">  2  6  1 -1</clus>
<clus scale="   71.722">  1  3  2 -1</clus>
<clus scale="   46.989">  1  3  2 -1</clus>
</clustering>
</event>
<event>
 6    0  0.6525019E+002  0.1472221E+03  0.7546771E-02  0.1203929E+00
         -3   -1    0    0    0  501 -0.00000000000E+00  0.00000000000E+00  0.66624721276E+03  0.66624721276E+03  0.00000000000E+00 0.  1.
         21   -1    0    0  505  502  0.00000000000E+00 -0.00000000000E+00 -0.66207308703E+03  0.66207308703E+03  0.00000000000E+00 0. -1.
         21    1    1    2  503  504  0.23390216903E+02 -0.65846050606E+02 -0.19992958859E+03  0.21178915227E+03  0.00000000000E+00 0. -1.
         21    1    1    2  504  502 -0.15623537400E+02 -0.64925052948E+02 -0.40695628613E+03  0.41239880727E+03  0.00000000000E+00 0. -1.
         21    1    1    2  505  501 -0.51304090726E+02  0.15275523772E+03  0.97667458897E+02  0.18842824868E+03  0.00000000000E+00 0. -1.
         -3    1    1    2    0  503  0.43537411223E+02 -0.21984134162E+02  0.51339254155E+03  0.51570409156E+03  0.00000000000E+00 0.  1.
<scales pt_clust_3="62.36948" pt_clust_4="62.36948" pt_clust_5="132.42206" pt_clust_6="48.77303"></scales>
<clustering>
<clus scale="   48.773">  1  6  2 -1</clus>
<clus scale="   62.369">  3  4 -1 -1</clus>
<clus scale="  132.422">  1  5  2 -1</clus>
<clus scale="  147.222">  2  3  1 -1</clus>
</clustering>
</event>
<event>
 6    0  0.6525019E+002  0.9525834E+02  0.7546771E-02  0.1290595E+00
          1   -1    0    0  503    0 -0.00000000000E+00  0.00000000000E+00  0.20215003086E+04  0.20215003086E+04  0.00000000000E+00 0.  1.
         21   -1    0    0  504  502  0.00000000000E+00 -0.00000000000E+00 -0.50551666453E+03  0.50551666453E+03  0.00000000000E+00 0.  1.
         21    1    1    2  503  502  0.13410431762E+02 -0.10262309224E+03 -0.61826729420E+02  0.12055655607E+03  0.00000000000E+00 0.  1.
         21    1    1    2  504  505 -0.67494275172E+02  0.24649532595E+02 -0.40413578054E+03  0.41047387950E+03  0.00000000000E+00 0.  1.
         21    1    1    2  505  501  0.97249464191E+02  0.77976694179E+02  0.57399696710E+03  0.58737580931E+03  0.00000000000E+00 0.  1.
          1    1    1    2  501    0 -0.43165620781E+02 -0.31345392722E-02  0.14079491869E+04  0.14086107282E+04  0.00000000000E+00 0.  1.
<scales pt_clust_3="14000.00000" pt_clust_4="72.06413" pt_clust_5="95.25834" pt_clust_6="43.16562"></scales>
<clustering>
<clus scale="   43.166">  1  6  2 -1</clus>
<clus scale="   72.064">  2  4  1 -1</clus>
<clus scale="   95.258">  1  5  2 -1</clus>
<clus scale="   72.064">  2  3  1 -1</clus>
</clustering>
</event>
<event>
 6    0  0.6525019E+002  0.7193380E+02  0.7546771E-02  0.1353638E+00
          2   -1    0    0  504    0 -0.00000000000E+00  0.00000000000E+00  0.28558411712E+04  0.28558411712E+04  0.00000000000E+00 0.  1.
         21   -1    0    0  505  502  0.00000000000E+00 -0.00000000000E+00 -0.20254507089E+03  0.20254507089E+03  0.00000000000E+00 0.  1.
         21    1    1    2  503  502 -0.36864694357E+02  0.15453043181E+02 -0.15432967754E+03  0.15942224313E+03  0.00000000000E+00 0.  1.
         21    1    1    2  504  503  0.11037008336E+03  0.62246945207E+02  0.86278617065E+02  0.15329787100E+03  0.00000000000E+00 0.  1.
         21    1    1    2  505  501 -0.82338817000E+01 -0.49329249600E+02  0.41816411281E+02  0.65190366822E+02  0.00000000000E+00 0.  1.
          2    1    1    2  501    0 -0.65271507308E+02 -0.28370738788E+02  0.26795307496E+04  0.26804757612E+04  0.00000000000E+00 0.  1.
<scales pt_clust_3="39.97252" pt_clust_4="71.93380" pt_clust_5="48.69308" pt_clust_6="14000.00000"></scales>
<clustering>
<clus scale="   39.973">  2  3  1 -1</clus>
<clus scale="   48.693">  2  5  1 -1</clus>
<clus scale="   71.934">  2  4  1 -1</clus>
<clus scale="   39.973">  2  3  1 -1</clus>
</clustering>
</event>
<event>
 6    0  0.6525019E+002  0.1885951E+03  0.7546771E-02  0.1159735E+00
          2   -1    0    0  505    0 -0.00000000000E+00  0.00000000000E+00  0.16940586141E+04  0.16940586141E+04  0.00000000000E+00 0.  1.
         21   -1    0    0  504  502  0.00000000000E+00 -0.00000000000E+00 -0.12622478830E+03  0.12622478830E+03  0.00000000000E+00 0.  1.
         21    1    1    2  503  502  0.16754555205E+03 -0.13668002685E+03  0.18012274087E+03  0.28141987054E+03  0.00000000000E+00 0.  1.
         21    1    1    2  504  501 -0.27937771506E+02  0.19986735858E+02 -0.61271273376E+02  0.70243559335E+02  0.00000000000E+00 0.  1.
         21    1    1    2  505  503 -0.16737824880E+03  0.10032971070E+03  0.13609992289E+04  0.13749183358E+04  0.00000000000E+00 0.  1.
          2    1    1    2  501    0  0.27770468256E+02  0.16363580293E+02  0.87983129382E+02  0.93701636715E+02  0.00000000000E+00 0.  1.
<scales pt_clust_3="188.59508" pt_clust_4="34.31450" pt_clust_5="14000.00000" pt_clust_6="32.23299"></scales>
<clustering>
<clus scale="   32.233">  1  6  2 -1</clus>
<clus scale="   34.315">  2  4  1 -1</clus>
<clus scale="  188.595">  2  3  1 -1</clus>
<clus scale="   34.315">  2  3  1 -1</clus>
</clustering>
</event>
<event>
 6    0  0.6525019E+002  0.6855936E+02  0.7546771E-02  0.1365062E+00
         21   -1    0    0  503  502  0.00000000000E+00  0.00000000000E+00  0.17285108402E+04  0.17285108402E+04  0.00000000000E+00 0. -1.
          3   -1    0    0  504    0 -0.00000000000E+00 -0.00000000000E+00 -0.60151957793E+02  0.60151957793E+02  0.00000000000E+00 0. -1.
         21    1    1    2  503  501 -0.86459755801E+01  0.11026725477E+03  0.10635083322E+04  0.10692444028E+04  0.00000000000E+00 0. -1.
         21    1    1    2  504  505  0.64401094080E+02 -0.30639770991E+02  0.54659607294E+03  0.55122913878E+03  0.00000000000E+00 0. -1.
         21    1    1    2  505  502 -0.26700047956E+02 -0.18169936296E+02  0.88184564603E+02  0.93912494271E+02  0.00000000000E+00 0. -1.
          3    1    1    2  501    0 -0.29055070544E+02 -0.61457547484E+02 -0.29930087298E+02  0.74276762131E+02  0.00000000000E+00 0. -1.
<scales pt_clust_3="68.55936" pt_clust_4="66.51257" pt_clust_5="32.29612" pt_clust_6="14000.00000"></scales>
<clustering>
<clus scale="   32.296">  1  5  2 -1</clus>
<clus scale="   66.513">  1  4  2 -1</clus>
<clus scale="   68.559">  1  3  2 -1</clus>
<clus scale="   32.296">  1  3  2 -1</clus>
</clustering>
</event>
<event>
 6    0  0.6525019E+002  0.9477281E+02  0.7546771E-02  0.1291689E+00
          2   -1    0    0  504    0 -0.00000000000E+00  0.00000000000E+00  0.29017216564E+04  0.29017216564E+04  0.00000000000E+00 0. -1.
         21   -1    0    0  505  502  0.00000000000E+00 -0.00000000000E+00 -0.38587908126E+02  0.38587908126E+02  0.00000000000E+00 0.  1.
         21    1    1    2  503  501  0.93753451422E+02  0.93753719491E+02  0.20380976313E+04  0.20424057933E+04  0.00000000000E+00 0. -1.
         21    1    1    2  504  502  0.30975664075E+02 -0.50004379672E+01  0.28792920323E+02  0.42585542212E+02  0.00000000000E+00 0.  1.
         21    1    1    2  505  503 -0.10221841765E+03 -0.51214467425E+02  0.84345933568E+02  0.14207660993E+03  0.00000000000E+00 0.  1.
          2    1    1    2  501    0 -0.22510697845E+02 -0.37538814098E+02  0.71189726311E+03  0.71324161916E+03  0.00000000000E+00 0. -1.
<scales pt_clust_3="94.77281" pt_clust_4="31.37668" pt_clust_5="14000.00000" pt_clust_6="43.52839"></scales>
<clustering>
<clus scale="   31.377">  2  4  1 -1</clus>
<clus scale="   43.528">  1  6  2 -1</clus>
<clus scale="   94.773">  1  3  2 -1</clus>
<clus scale="   31.377">  2  3  1 -1</clus>
</clustering>
</event>
<event>
 6    0  0.6525019E+002  0.6201452E+02  0.7546771E-02  0.1389567E+00
          1   -1    0    0  505    0 -0.00000000000E+00  0.00000000000E+00  0.30003230365E+03  0.30003230365E+03  0.00000000000E+00 0.  1.
         21   -1    0    0  501  502  0.00000000000E+00 -0.00000000000E+00 -0.80796454540E+03  0.80796454540E+03  0.00000000000E+00 0. -1.
         21    1    1    2  503  504 -0.10638845396E+03 -0.65593820302E+01 -0.36859047805E+01  0.10665418193E+03  0.00000000000E+00 0.  1.
         21    1    1    2  504  502  0.60409226422E+02  0.79925491999E+01 -0.73955370707E+03  0.74205986357E+03  0.00000000000E+00 0. -1.
         21    1    1    2  505  503  0.30214029216E+01  0.41056592491E+02  0.52298066684E+02  0.66557196767E+02  0.00000000000E+00 0.  1.
          1    1    1    2  501    0  0.42957824619E+02 -0.42489759660E+02  0.18300930341E+03  0.19272560678E+03  0.00000000000E+00 0.  1.
<scales pt_clust_3="62.01452" pt_clust_4="14000.00000" pt_clust_5="41.16762" pt_clust_6="46.50225"></scales>
<clustering>
<clus scale="   41.168">  1  5  2 -1</clus>
<clus scale="   46.502">  1  6  2 -1</clus>
<clus scale="   62.015">  1  3  2 -1</clus>
<clus scale="   62.015">  2  3  1 -1</clus>
</clustering>
</event>
<event>
 6    0  0.6525019E+002  0.1019474E+03  0.7546771E-02  0.1276253E+00
         21   -1    0    0  505  502  0.00000000000E+00  0.00000000000E+00  0.31779508992E+03  0.31779508992E+03  0.00000000000E+00 0. -1.
          2   -1    0    0  504    0 -0.00000000000E+00 -0.00000000000E+00 -0.16704535195E+04  0.16704535195E+04  0.00000000000E+00 0. -1.
         21    1    1    2  503  501 -0.18341473678E+02 -0.13522385796E+03  0.61061725906E+02  0.14950062136E+03  0.00000000000E+00 0. -1.
         21    1    1    2  504  502 -0.22548968434E+02  0.27940091346E+02  0.14901028553E+02  0.38873452815E+02  0.00000000000E+00 0.  1.
         21    1    1    2  505  503 -0.11365007154E+02  0.72074246897E+02  0.17781497782E+03  0.19220308735E+03  0.00000000000E+00 0. -1.
          2    1    1    2  501    0  0.52255449267E+02  0.35209519716E+02 -0.16064361619E+04  0.16076714479E+04  0.00000000000E+00 0. -1.
<scales pt_clust_3="14000.00000" pt_clust_4="35.90410" pt_clust_5="101.94742" pt_clust_6="63.00414"></scales>
<clustering>
<clus scale="   35.904">  1  4  2 -1</clus>
<clus scale="   63.004">  2  6  1 -1</clus>
<clus scale="  101.947">  1  5  2 -1</clus>
<clus scale="   35.904">  1  3  2 -1</clus>
</clustering>
</event>
<event>
 6    0  0.6525019E+002  0.9644246E+02  0.7546771E-02  0.1287960E+00
         21   -1    0    0  504  502  0.00000000000E+00  0.00000000000E+00  0.17357820438E+03  0.17357820438E+03  0.00000000000E+00 0.  1.
          2   -1    0    0  505    0 -0.00000000000E+00 -0.00000000000E+00 -0.69754584774E+03  0.69754584774E+03  0.00000000000E+00 0.  1.
         21    1    1    2  503  501 -0.69886429670E+01  0.10226926139E+03 -0.22961767243E+03  0.25145997385E+03  0.00000000000E+00 0.  1.
         21    1    1    2  504  503 -0.41052143452E+02 -0.20772633094E+02  0.11388051687E+03  0.12282325875E+03  0.00000000000E+00 0.  1.
         21    1    1    2  505  502  0.78904340005E+01 -0.78031502279E+02  0.78426711541E+01  0.78820567034E+02  0.00000000000E+00 0.  1.
          2    1    1    2  501    0  0.40150352419E+02 -0.34651260149E+01 -0.41607315895E+03  0.41802025250E+03  0.00000000000E+00 0.  1.
<scales pt_clust_3="14000.00000" pt_clust_4="45.46360" pt_clust_5="96.44246" pt_clust_6="40.29960"></scales>
<clustering>
<clus scale="   40.300">  2  6  1 -1</clus>
<clus scale="   45.464">  1  4  2 -1</clus>
<clus scale="   96.442">  1  5  2 -1</clus>
<clus scale="   45.464">  1  3  2 -1</clus>
</clustering>
</event>
<event>
 6    0  0.6525019E+002  0.2504876E+03  0.7546771E-02  0.1112997E+00
          3   -1    0    0  502    0 -0.00000000000E+00  0.00000000000E+00  0.13754867692E+04  0.13754867692E+04  0.00000000000E+00 0.  1.
         21   -1    0    0  504  502  0.00000000000E+00 -0.00000000000E+00 -0.31630873865E+03  0.31630873865E+03  0.00000000000E+00 0.  1.
         21    1    1    2  503  501 -0.64121828007E+02  0.14219947654E+03  0.69145814036E+03  0.70883471968E+03  0.00000000000E+00 0.  1.
         21    1    1    2  504  505  0.19081237204E+02 -0.23437537567E+02 -0.87598161561E+02  0.92665256107E+02  0.00000000000E+00 0.  1.
         21    1    1    2  505  503  0.74195632249E+02 -0.20508327477E+03 -0.15859389646E+03  0.26965935072E+03  0.00000000000E+00 0.  1.
          3    1    1    2  501    0 -0.29155041447E+02  0.86321335800E+02  0.61391194818E+03  0.62063618133E+03  0.00000000000E+00 0.  1.
<scales pt_clust_3="38.86598" pt_clust_4="30.22270" pt_clust_5="245.28464" pt_clust_6="38.86598"></scales>
<clustering>
<clus scale="   30.223">  2  4  1 -1</clus>
<clus scale="   38.866">  3  6 -1 -1</clus>
<clus scale="  245.285">  2  5  1 -1</clus>
<clus scale="   30.223">  2  3  1 -1</clus>
</clustering>
</event>
<event>
 6    0  0.6525019E+002  0.1402035E+03  0.7546771E-02  0.1213055E+00
         -1   -1    0    0    0  501 -0.00000000000E+00  0.00000000000E+00  0.20077964724E+03  0.20077964724E+03  0.00000000000E+00 0. -1.
         21   -1    0    0  505  502  0.00000000000E+00 -0.00000000000E+00 -0.99546677497E+03  0.99546677497E+03  0.00000000000E+00 0. -1.
         21    1    1    2  503  502  0.57633822128E+02 -0.12663494154E+03 -0.59723035307E+03  0.61322276580E+03  0.00000000000E+00 0. -1.
         21    1    1    2  504  501 -0.65690351594E+02  0.38099125048E+01  0.15738644965E+02  0.67656800628E+02  0.00000000000E+00 0. -1.
         21    1    1    2  505  504  0.73290844030E+01  0.15335657573E+03 -0.34629754863E+03  0.37880594899E+03  0.00000000000E+00 0. -1.
         -1    1    1    2    0  503  0.72744506268E+00 -0.30531546696E+02  0.13310212901E+03  0.13656090680E+03  0.00000000000E+00 0. -1.
<scales pt_clust_3="140.20350" pt_clust_4="67.04542" pt_clust_5="14000.00000" pt_clust_6="30.54021"></scales>
<clustering>
<clus scale="   30.540">  1  6  2 -1</clus>
<clus scale="   67.045">  1  4  2 -1</clus>
<clus scale="  140.203">  2  3  1 -1</clus>
<clus scale="  140.203">  2  3  1 -1</clus>
</clustering>
</event>
<event>
 6    0  0.6525019E+002  0.1441769E+03  0.7546771E-02  0.1207817E+00
          2   -1    0    0  503    0 -0.00000000000E+00  0.00000000000E+00  0.16737752028E+04  0.16737752028E+04  0.00000000000E+00 0. -1.
         21   -1    0    0  501  502  0.00000000000E+00 -0.00000000000E+00 -0.73590470026E+02  0.73590470026E+02  0.00000000000E+00 0.  1.
         21    1    1    2  503  504  0.39077719401E+02  0.13947080477E+00  0.26604711459E+03  0.26890175676E+03  0.00000000000E+00 0. -1.
         21    1    1    2  504  505  0.60117894667E+02 -0.21337614535E+02  0.17782199159E+03  0.18891827796E+03  0.00000000000E+00 0. -1.
         21    1    1    2  505  502  0.64378820842E+02  0.77153490493E+01 -0.43807559464E+02  0.78251271237E+02  0.00000000000E+00 0.  1.
          2    1    1    2  501    0 -0.16357443491E+03  0.13482794681E+02  0.12001231860E+04  0.12112943668E+04  0.00000000000E+00 0. -1.
<scales pt_clust_3="37.45633" pt_clust_4="37.45633" pt_clust_5="64.83949" pt_clust_6="136.00257"></scales>
<clustering>
<clus scale="   37.456">  3  4 -1 -1</clus>
<clus scale="   64.839">  2  5  1 -1</clus>
<clus scale="  136.003">  1  6  2 -1</clus>
<clus scale="   64.839">  2  3  1 -1</clus>
</clustering>
</event>
<event>
 6    0  0.6525019E+002  0.8462470E+02  0.7546771E-02  0.1316417E+00
          2   -1    0    0  503    0 -0.00000000000E+00  0.00000000000E+00  0.16886251330E+04  0.16886251330E+04  0.00000000000E+00 0.  1.
         21   -1    0    0  504  502  0.00000000000E+00 -0.00000000000E+00 -0.11472172084E+03  0.11472172084E+03  0.00000000000E+00 0. -1.
         21    1    1    2  503  502  0.62818370631E+02  0.13814285681E+02 -0.52277753129E+02  0.82885135276E+02  0.00000000000E+00 0. -1.
         21    1    1    2  504  505  0.16294080677E+02 -0.29860652785E+02  0.40358611200E+02  0.52782318515E+02  0.00000000000E+00 0. -1.
         21    1    1    2  505  501 -0.10330403686E+03  0.47226098819E+02  0.38619145536E+02  0.11997277542E+03  0.00000000000E+00 0. -1.
          2    1    1    2  501    0  0.24191585550E+02 -0.31179731715E+02  0.15472034085E+04  0.15477066246E+04  0.00000000000E+00 0.  1.
<scales pt_clust_3="84.62470" pt_clust_4="34.01699" pt_clust_5="14000.00000" pt_clust_6="39.54188"></scales>
<clustering>
<clus scale="   34.017">  2  4  1 -1</clus>
<clus scale="   39.542">  1  6  2 -1</clus>
<clus scale="   84.625">  2  3  1 -1</clus>
<clus scale="   34.017">  2  3  1 -1</clus>
</clustering>
</event>
<event>
 6    0  0.6525019E+002  0.1497999E+03  0.7546771E-02  0.1200719E+00
          1   -1    0    0  502    0 -0.00000000000E+00  0.00000000000E+00  0.12424047383E+04  0.12424047383E+04  0.00000000000E+00 0. -1.
         21   -1    0    0  504  502  0.00000000000E+00 -0.00000000000E+00 -0.29258175226E+03  0.29258175226E+03  0.00000000000E+00 0.  1.
         21    1    1    2  503  505 -0.13289015433E+03 -0.14864178838E+02 -0.25498854276E+02  0.13612835303E+03  0.00000000000E+00 0.  1.
         21    1    1    2  504  503 -0.35271635842E+02  0.55215300198E+02 -0.19278993977E+03  0.20361919985E+03  0.00000000000E+00 0.  1.
         21    1    1    2  505  501  0.11382471255E+03 -0.16338234411E+02  0.24967511930E+03  0.27488300837E+03  0.00000000000E+00 0. -1.
          1    1    1    2  501    0  0.54337077619E+02 -0.24012886949E+02  0.91843666075E+03  0.92035592928E+03  0.00000000000E+00 0. -1.
<scales pt_clust_3="149.79988" pt_clust_4="64.69237" pt_clust_5="14000.00000" pt_clust_6="59.40654"></scales>
<clustering>
<clus scale="   59.407">  1  6  2 -1</clus>
<clus scale="   64.692">  2  4  1 -1</clus>
<clus scale="  149.800">  2  3  1 -1</clus>
<clus scale="   64.692">  2  3  1 -1</clus>
</clustering>
</event>
<event>
 6    0  0.6525019E+002  0.2218897E+03  0.7546771E-02  0.1132482E+00
         21   -1    0    0  505  502  0.00000000000E+00  0.00000000000E+00  0.16714318942E+04  0.16714318942E+04  0.00000000000E+00 0. -1.
         -1   -1    0    0    0  501 -0.00000000000E+00 -0.00000000000E+00 -0.31544900416E+03  0.31544900416E+03  0.00000000000E+00 0.  1.
         21    1    1    2  503  502  0.53155314419E+02  0.14297289797E+03  0.67469201361E+03  0.69171963268E+03  0.00000000000E+00 0. -1.
         21    1    1    2  504  503 -0.19581854073E+02  0.43450409193E+02  0.10532860601E+03  0.11560926569E+03  0.00000000000E+00 0. -1.
         21    1    1    2  505  501 -0.54889552365E+02 -0.21276138050E+03  0.86299398283E+03  0.89052730581E+03  0.00000000000E+00 0. -1.
         -1    1    1    2    0  504  0.21316092019E+02  0.26338073342E+02 -0.28703171244E+03  0.28902469416E+03  0.00000000000E+00 0.  1.
<scales pt_clust_3="48.32555" pt_clust_4="48.32555" pt_clust_5="204.37244" pt_clust_6="33.88318"></scales>
<clustering>
<clus scale="   33.883">  2  6  1 -1</clus>
<clus scale="   48.326">  3  4 -1 -1</clus>
<clus scale="  204.372">  2  5  1 -1</clus>
<clus scale="  221.890">  1  3  2 -1</clus>
</clustering>
</event>
<event>
 6    0  0.6525019E+002  0.7431179E+02  0.7546771E-02  0.1346016E+00
         21   -1    0    0  503  502  0.00000000000E+00  0.00000000000E+00  0.35330037624E+03  0.35330037624E+03  0.00000000000E+00 0. -1.
          3   -1    0    0  505    0 -0.00000000000E+00 -0.00000000000E+00 -0.57106405196E+03  0.57106405196E+03  0.00000000000E+00 0. -1.
         21    1    1    2  503  504 -0.89218290030E+01  0.31120501976E+02  0.19416275871E+03  0.19684324105E+03  0.00000000000E+00 0. -1.
         21    1    1    2  504  501 -0.36753811571E+02  0.23996151497E+02  0.38203562581E+02  0.58190808085E+02  0.00000000000E+00 0. -1.
         21    1    1    2  505  502  0.10624966152E+03 -0.12326829442E+02  0.80294310015E+02  0.13374646731E+03  0.00000000000E+00 0. -1.
          3    1    1    2  501    0 -0.60574020943E+02 -0.42789824031E+02 -0.53042430703E+03  0.53558391176E+03  0.00000000000E+00 0. -1.
<scales pt_clust_3="32.37414" pt_clust_4="51.77772" pt_clust_5="74.31179" pt_clust_6="14000.00000"></scales>
<clustering>
<clus scale="   32.374">  1  3  2 -1</clus>
<clus scale="   51.778">  1  4  2 -1</clus>
<clus scale="   74.312">  1  5  2 -1</clus>
<clus scale="   32.374">  1  3  2 -1</clus>
</clustering>
</event>
<event>
 6    0  0.6525019E+002  0.9629512E+02  0.7546771E-02  0.1288286E+00
         21   -1    0    0  503  502  0.00000000000E+00  0.00000000000E+00  0.11829764450E+03  0.11829764450E+03  0.00000000000E+00 0.  1.
          2   -1    0    0  505    0 -0.00000000000E+00 -0.00000000000E+00 -0.89445909537E+03  0.89445909537E+03  0.00000000000E+00 0.  1.
         21    1    1    2  503  501  0.34062967022E+02 -0.27990532247E+02  0.72929647824E+02  0.85220239084E+02  0.00000000000E+00 0.  1.
         21    1    1    2  504  502  0.50249946206E+02 -0.34663636692E+02 -0.92218269158E+01  0.61738698513E+02  0.00000000000E+00 0.  1.
         21    1    1    2  505  504  0.50062249993E+02  0.26771724060E+02 -0.41194442968E+03  0.41583790980E+03  0.00000000000E+00 0.  1.
          2    1    1    2  501    0 -0.13437516322E+03  0.35882444878E+02 -0.42792484210E+03  0.44995989246E+03  0.00000000000E+00 0.  1.
<scales pt_clust_3="44.08804" pt_clust_4="14000.00000" pt_clust_5="57.64228" pt_clust_6="96.29512"></scales>
<clustering>
<clus scale="   44.088">  1  3  2 -1</clus>
<clus scale="   57.642">  2  5  1 -1</clus>
<clus scale="   96.295">  2  6  1 -1</clus>
<clus scale="   44.088">  1  3  2 -1</clus>
</clustering>
</event>
<event>
 6    0  0.6525019E+002  0.8673390E+02  0.7546771E-02  0.1310959E+00
          1   -1    0    0  503    0 -0.00000000000E+00  0.00000000000E+00  0.72214598291E+03  0.72214598291E+03  0.00000000000E+00 0.  1.
         21   -1    0    0  505  502  0.00000000000E+00 -0.00000000000E+00 -0.12614126097E+03  0.12614126097E+03  0.00000000000E+00 0. -1.
         21    1    1    2  503  504  0.98112850391E+02 -0.34534908798E+02 -0.30541755291E+02  0.10840475153E+03  0.00000000000E+00 0. -1.
         21    1    1    2  504  502  0.99492061873E+01  0.39765080253E+02 -0.34070438855E+02  0.53301436331E+02  0.00000000000E+00 0.  1.
         21    1    1    2  505  501 -0.24403059645E+02  0.17730627023E+02  0.12447242862E+02  0.32631553894E+02  0.00000000000E+00 0. -1.
          1    1    1    2  501    0 -0.83658996933E+02 -0.22960798478E+02  0.64816967323E+03  0.65394950213E+03  0.00000000000E+00 0.  1.
<scales pt_clust_3="14000.00000" pt_clust_4="46.44593" pt_clust_5="30.16429" pt_clust_6="86.73390"></scales>
<clustering>
<clus scale="   30.164">  2  5  1 -1</clus>
<clus scale="   46.446">  2  4  1 -1</clus>
<clus scale="   86.734">  1  6  2 -1</clus>
<clus scale="   30.164">  2  3  1 -1</clus>
</clustering>
</event>
<event>
 6    0  0.6525019E+002  0.8583643E+02  0.7546771E-02  0.1313260E+00
          2   -1    0    0  504    0 -0.00000000000E+00  0.00000000000E+00  0.16007549266E+04  0.16007549266E+04  0.00000000000E+00 0.  1.
         21   -1    0    0  503  502  0.00000000000E+00 -0.00000000000E+00 -0.28148434868E+03  0.28148434868E+03  0.00000000000E+00 0. -1.
         21    1    1    2  503  501  0.22220268132E+02  0.78585430233E+02 -0.17775452390E+03  0.19561717953E+03  0.00000000000E+00 0. -1.
         21    1    1    2  504  505  0.15598692193E+02 -0.26410243814E+02  0.41601958584E+02  0.51686972580E+02  0.00000000000E+00 0. -1.
         21    1    1    2  505  502 -0.52419850150E+02 -0.87454896402E+02 -0.60481001426E+02  0.11855020509E+03  0.00000000000E+00 0. -1.
          2    1    1    2  501    0  0.14600889825E+02  0.35279709982E+02  0.15159041446E+04  0.15163849180E+04  0.00000000000E+00 0.  1.
<scales pt_clust_3="14000.00000" pt_clust_4="30.67279" pt_clust_5="85.83643" pt_clust_6="31.29972"></scales>
<clustering>
<clus scale="   30.673">  1  4  2 -1</clus>
<clus scale="   31.300">  1  6  2 -1</clus>
<clus scale="   85.836">  1  5  2 -1</clus>
<clus scale="   85.836">  2  3  1 -1</clus>
</clustering>
</event>
<event>
 6    0  0.6525019E+002  0.1332837E+03  0.7546771E-02  0.1222663E+00
          2   -1    0    0  505    0 -0.00000000000E+00  0.00000000000E+00  0.91872352328E+02  0.91872352328E+02  0.00000000000E+00 0.  1.
         21   -1    0    0  504  502  0.00000000000E+00 -0.00000000000E+00 -0.10785301724E+04  0.10785301724E+04  0.00000000000E+00 0. -1.
         21    1    1    2  503  501  0.11335645825E+01 -0.10880289359E+03 -0.47999270994E+02  0.11892554241E+03  0.00000000000E+00 0. -1.
         21    1    1    2  504  503  0.24147532515E+01  0.10998292142E+03 -0.89296573841E+03  0.89971655760E+03  0.00000000000E+00 0. -1.
         21    1    1    2  505  502 -0.43026988864E+01  0.32827607621E+02 -0.90002829181E+02  0.95899292492E+02  0.00000000000E+00 0. -1.
          2    1    1    2  501    0  0.75438105237E+00 -0.34007635453E+02  0.44310018482E+02  0.55861132263E+02  0.00000000000E+00 0.  1.
<scales pt_clust_3="14000.00000" pt_clust_4="133.28365" pt_clust_5="33.10838" pt_clust_6="33.82312"></scales>
<clustering>
<clus scale="   33.108">  2  5  1 -1</clus>
<clus scale="   33.823">  1  6  2 -1</clus>
<clus scale="  133.284">  2  4  1 -1</clus>
<clus scale="   33.108">  2  3  1 -1</clus>
</clustering>
</event>
<event>
 6    0  0.6525019E+002  0.7487428E+02  0.7546771E-02  0.1344261E+00
          1   -1    0    0  504    0 -0.00000000000E+00  0.00000000000E+00  0.12500884725E+04  0.12500884725E+04  0.00000000000E+00 0. -1.
         21   -1    0    0  503  502  0.00000000000E+00 -0.00000000000E+00 -0.24216364894E+02  0.24216364894E+02  0.00000000000E+00 0. -1.
         21    1    1    2  503  505  0.17979442708E+02 -0.33200144177E+02  0.10539816499E+03  0.11195661265E+03  0.00000000000E+00 0.  1.
         21    1    1    2  504  502  0.50368539347E+02  0.96582223162E+02  0.24642717520E+03  0.26942803912E+03  0.00000000000E+00 0. -1.
         21    1    1    2  505  501 -0.58912333448E+02 -0.18316193760E+02  0.99961511600E+02  0.11746680292E+03  0.00000000000E+00 0. -1.
          1    1    1    2  501    0 -0.94356486073E+01 -0.45065885225E+02  0.77408525580E+03  0.77545338269E+03  0.00000000000E+00 0. -1.
<scales pt_clust_3="37.75593" pt_clust_4="74.87428" pt_clust_5="14000.00000" pt_clust_6="46.99117"></scales>
<clustering>
<clus scale="   37.756">  2  3  1 -1</clus>
<clus scale="   46.991">  1  6  2 -1</clus>
<clus scale="   74.874">  1  4  2 -1</clus>
<clus scale="   37.756">  2  3  1 -1</clus>
</clustering>
</event>
<event>
 6    0  0.6525019E+002  0.1343581E+03  0.7546771E-02  0.1221129E+00
          1   -1    0    0  504    0 -0.00000000000E+00  0.00000000000E+00  0.79558531178E+03  0.79558531178E+03  0.00000000000E+00 0.  1.
         21   -1    0    0  503  502  0.00000000000E+00 -0.00000000000E+00 -0.24486428380E+03  0.24486428380E+03  0.00000000000E+00 0.  1.
         21    1    1    2  503  505  0.13410483667E+03  0.12557499208E+02 -0.19867254999E+03  0.24002620716E+03  0.00000000000E+00 0.  1.
         21    1    1    2  504  502  0.12046727649E+02 -0.31676435484E+02  0.45020416350E+02  0.56350315886E+02  0.00000000000E+00 0. -1.
         21    1    1    2  505  501 -0.13457130180E+03  0.59479977097E+02  0.26839099410E+03  0.30607356740E+03  0.00000000000E+00 0. -1.
          1    1    1    2  501    0 -0.11580262511E+02 -0.40361040821E+02  0.43598216753E+03  0.43799950513E+03  0.00000000000E+00 0.  1.
<scales pt_clust_3="14000.00000" pt_clust_4="33.88982" pt_clust_5="134.35813" pt_clust_6="59.11635"></scales>
<clustering>
<clus scale="   33.890">  1  4  2 -1</clus>
<clus scale="   59.116">  1  6  2 -1</clus>
<clus scale="  134.358">  1  5  2 -1</clus>
<clus scale="  134.358">  2  3  1 -1</clus>
</clustering>
</event>
<event>
 6    0  0.6525019E+002  0.6403841E+02  0.7546771E-02  0.1381626E+00
          2   -1    0    0  503    0 -0.00000000000E+00  0.00000000000E+00  0.10849895282E+04  0.10849895282E+04  0.00000000000E+00 0.  1.
         21   -1    0    0  504  502  0.00000000000E+00 -0.00000000000E+00 -0.25686856736E+03  0.25686856736E+03  0.00000000000E+00 0. -1.
         21    1    1    2  503  505 -0.61743569122E+01 -0.77654903105E+02 -0.66936295888E+02  0.10270771328E+03  0.00000000000E+00 0. -1.
         21    1    1    2  504  501  0.70486923567E+02 -0.19549004441E+02 -0.32782961830E+02  0.80157922596E+02  0.00000000000E+00 0. -1.
         21    1    1    2  505  502 -0.32797623635E+02  0.52767438391E+02 -0.10645749868E+03  0.12326104695E+03  0.00000000000E+00 0. -1.
          2    1    1    2  501    0 -0.31514943019E+02  0.44436469154E+02  0.10342977173E+04  0.10357314128E+04  0.00000000000E+00 0.  1.
<scales pt_clust_3="64.03841" pt_clust_4="55.56986" pt_clust_5="14000.00000" pt_clust_6="54.47744"></scales>
<clustering>
<clus scale="   54.477">  1  6  2 -1</clus>
<clus scale="   55.570">  1  4  2 -1</clus>
<clus scale="   64.038">  1  3  2 -1</clus>
<clus scale="   64.038">  2  3  1 -1</clus>
</clustering>
</event>
<event>
 6    0  0.6525019E+002  0.1441557E+03  0.7546771E-02  0.1207844E+00
         -4   -1    0    0    0  501 -0.00000000000E+00  0.00000000000E+00  0.20062440986E+04  0.20062440986E+04  0.00000000000E+00 0. -1.
         21   -1    0    0  505  502  0.00000000000E+00 -0.00000000000E+00 -0.85598593289E+03  0.85598593289E+03  0.00000000000E+00 0. -1.
         21    1    1    2  503  504  0.20748644283E+02  0.51679981494E+02  0.30884553249E+03  0.31382620933E+03  0.00000000000E+00 0. -1.
         21    1    1    2  504  502  0.97074733371E+02 -0.53721093189E+01  0.37390560603E+03  0.38633892587E+03  0.00000000000E+00 0.  1.
         21    1    1    2  505  501 -0.14282753380E+03 -0.24783218830E+02 -0.84086904347E+03  0.85327291098E+03  0.00000000000E+00 0. -1.
         -4    1    1    2    0  503  0.25004156147E+02 -0.21524653345E+02  0.13083760707E+04  0.13087919853E+04  0.00000000000E+00 0. -1.
<scales pt_clust_3="52.80446" pt_clust_4="144.15574" pt_clust_5="14000.00000" pt_clust_6="32.99270"></scales>
<clustering>
<clus scale="   32.993">  1  6  2 -1</clus>
<clus scale="   52.804">  1  3  2 -1</clus>
<clus scale="  144.156">  1  4  2 -1</clus>
<clus scale="  144.156">  2  3  1 -1</clus>
</clustering>
</event>
<event>
 6    0  0.6525019E+002  0.8456828E+02  0.7546771E-02  0.1316565E+00
          1   -1    0    0  503    0 -0.00000000000E+00  0.00000000000E+00  0.25081178861E+04  0.25081178861E+04  0.00000000000E+00 0.  1.
         21   -1    0    0  505  502  0.00000000000E+00 -0.00000000000E+00 -0.17781599955E+04  0.17781599955E+04  0.00000000000E+00 0.  1.
         21    1    1    2  503  504 -0.49219969529E+00 -0.10541689143E+03  0.35486673839E+02  0.11123069396E+03  0.00000000000E+00 0. -1.
         21    1    1    2  504  502  0.44496093129E+02  0.27097694919E+02 -0.23220341956E+02  0.57038334953E+02  0.00000000000E+00 0. -1.
         21    1    1    2  505  501 -0.30865115634E+02 -0.48399276382E+01 -0.16992821243E+04  0.16995693038E+04  0.00000000000E+00 0.  1.
          1    1    1    2  501    0 -0.13138777800E+02  0.83159124148E+02  0.24169736830E+04  0.24184395489E+04  0.00000000000E+00 0.  1.
<scales pt_clust_3="14000.00000" pt_clust_4="37.86939" pt_clust_5="31.24228" pt_clust_6="84.56828"></scales>
<clustering>
<clus scale="   31.242">  2  5  1 -1</clus>
<clus scale="   37.869">  2  4  1 -1</clus>
<clus scale="   84.568">  1  6  2 -1</clus>
<clus scale="   31.242">  2  3  1 -1</clus>
</clustering>
</event>
<event>
 6    0  0.6525019E+002  0.7574927E+02  0.7546771E-02  0.1341566E+00
         21   -1    0    0  505  502  0.00000000000E+00  0.00000000000E+00  0.30730216905E+02  0.30730216905E+02  0.00000000000E+00 0.  1.
          2   -1    0    0  504    0 -0.00000000000E+00 -0.00000000000E+00 -0.15046261609E+04  0.15046261609E+04  0.00000000000E+00 0. -1.
         21    1    1    2  503  502 -0.32284380896E+02 -0.27815221791E+02 -0.19327931867E+02  0.46792486185E+02  0.00000000000E+00 0.  1.
         21    1    1    2  504  503 -0.79220482119E+01 -0.71712792153E+02 -0.67478021777E+03  0.67862642573E+03  0.00000000000E+00 0.  1.
         21    1    1    2  505  501  0.96213723608E+02  0.48866242731E+02 -0.21959766509E+03  0.24467963708E+03  0.00000000000E+00 0.  1.
          2    1    1    2  501    0 -0.56007294501E+02  0.50661771213E+02 -0.56019012923E+03  0.56525782877E+03  0.00000000000E+00 0. -1.
<scales pt_clust_3="42.61417" pt_clust_4="75.74927" pt_clust_5="71.00904" pt_clust_6="14000.00000"></scales>
<clustering>
<clus scale="   42.614">  1  3  2 -1</clus>
<clus scale="   75.749">  2  4  1 -1</clus>
<clus scale="   71.009">  1  5  2 -1</clus>
<clus scale="   42.614">  1  3  2 -1</clus>
</clustering>
</event>
<event>
 6    0  0.6525019E+002  0.7765293E+02  0.7546771E-02  0.1335847E+00
         21   -1    0    0  501  502  0.00000000000E+00  0.00000000000E+00  0.73089462738E+02  0.73089462738E+02  0.00000000000E+00 0.  1.
          2   -1    0    0  503    0 -0.00000000000E+00 -0.00000000000E+00 -0.40719717395E+04  0.40719717395E+04  0.00000000000E+00 0.  1.
         21    1    1    2  503  505 -0.31830125447E+02  0.57020577676E+02 -0.31623303873E+04  0.31630045813E+04  0.00000000000E+00 0.  1.
         21    1    1    2  504  502 -0.14623458666E+02  0.44419753797E+02  0.34791212737E+02  0.58287121686E+02  0.00000000000E+00 0.  1.
         21    1    1    2  505  504  0.20175304271E+02 -0.12117739147E+03 -0.12007158100E+03  0.17177947395E+03  0.00000000000E+00 0.  1.
          2    1    1    2  501    0  0.26278279842E+02  0.19737059994E+02 -0.75127152122E+03  0.75199002528E+03  0.00000000000E+00 0.  1.
<scales pt_clust_3="77.65293" pt_clust_4="46.80233" pt_clust_5="14000.00000" pt_clust_6="32.86487"></scales>
<clustering>
<clus scale="   32.865">  2  6  1 -1</clus>
<clus scale="   46.802">  1  4  2 -1</clus>
<clus scale="   77.653">  2  3  1 -1</clus>
<clus scale="   46.802">  1  3  2 -1</clus>
</clustering>
</event>
<event>
 6    0  0.6525019E+002  0.8215502E+02  0.7546771E-02  0.1323045E+00
          2   -1    0    0  505    0 -0.00000000000E+00  0.00000000000E+00  0.14640046683E+04  0.14640046683E+04  0.00000000000E+00 0. -1.
         21   -1    0    0  501  502  0.00000000000E+00 -0.00000000000E+00 -0.16774738515E+03  0.16774738515E+03  0.00000000000E+00 0. -1.
         21    1    1    2  503  504  0.51969152872E+02 -0.24755584212E+02 -0.58136843623E+02  0.81813962050E+02  0.00000000000E+00 0.  1.
         21    1    1    2  504  502  0.76683287994E+01 -0.36885634187E+02 -0.89328133977E+02  0.96947763232E+02  0.00000000000E+00 0. -1.
         21    1    1    2  505  503 -0.83668625200E+02 -0.94780275662E+01  0.59073004709E+03  0.59670114831E+03  0.00000000000E+00 0. -1.
          2    1    1    2  501    0  0.24031143529E+02  0.71119245965E+02  0.85299221363E+03  0.85628917984E+03  0.00000000000E+00 0. -1.
<scales pt_clust_3="14000.00000" pt_clust_4="37.67431" pt_clust_5="82.15502" pt_clust_6="74.35292"></scales>
<clustering>
<clus scale="   37.674">  2  4  1 -1</clus>
<clus scale="   74.353">  1  6  2 -1</clus>
<clus scale="   82.155">  1  5  2 -1</clus>
<clus scale="   37.674">  2  3  1 -1</clus>
</clustering>
</event>
<event>
 6    0  0.6525019E+002  0.1003137E+03  0.7546771E-02  0.1279638E+00
         21   -1    0    0  501  502  0.00000000000E+00  0.00000000000E+00  0.78631000009E+03  0.78631000009E+03  0.00000000000E+00 0.  1.
          2   -1    0    0  504    0 -0.00000000000E+00 -0.00000000000E+00 -0.18997402799E+04  0.18997402799E+04  0.00000000000E+00 0. -1.
         21    1    1    2  503  502 -0.13928116737E+02 -0.94824492524E+02  0.60084424354E+03  0.60844020398E+03  0.00000000000E+00 0.  1.
         21    1    1    2  504  505 -0.35394073026E+02 -0.16812411203E+02 -0.18989936203E+03  0.19389988467E+03  0.00000000000E+00 0. -1.
         21    1    1    2  505  503  0.86879907053E+02  0.12429653006E+03  0.14739032857E+03  0.21147495027E+03  0.00000000000E+00 0.  1.
          2    1    1    2  501    0 -0.37557717290E+02 -0.12659626334E+02 -0.16717654899E+04  0.16722352411E+04  0.00000000000E+00 0. -1.
<scales pt_clust_3="100.31372" pt_clust_4="39.18415" pt_clust_5="14000.00000" pt_clust_6="77.85930"></scales>
<clustering>
<clus scale="   39.184">  2  4  1 -1</clus>
<clus scale="   77.859">  2  6  1 -1</clus>
<clus scale="  100.314">  1  3  2 -1</clus>
<clus scale="  100.314">  1  3  2 -1</clus>
</clustering>
</event>
<event>
 6    0  0.6525019E+002  0.1164952E+03  0.7546771E-02  0.1248994E+00
          2   -1    0    0  504    0 -0.00000000000E+00  0.00000000000E+00  0.14905909162E+04  0.14905909162E+04  0.00000000000E+00 0.  1.
         21   -1    0    0  503  502  0.00000000000E+00 -0.00000000000E+00 -0.15174637795E+04  0.15174637795E+04  0.00000000000E+00 0.  1.
         21    1    1    2  503  501  0.62043986685E+02  0.95694006943E+02 -0.39211119503E+03  0.40836012112E+03  0.00000000000E+00 0.  1.
         21    1    1    2  504  505 -0.27983773626E+02 -0.11570674293E+03 -0.21173507141E+03  0.24290508930E+03  0.00000000000E+00 0.  1.
         21    1    1    2  505  502  0.41749730319E+02 -0.12690256078E+02 -0.88821025136E+03  0.88928147018E+03  0.00000000000E+00 0.  1.
          2    1    1    2  501    0 -0.75809943379E+02  0.32702992063E+02  0.14651836545E+04  0.14675080151E+04  0.00000000000E+00 0.  1.
<scales pt_clust_3="14000.00000" pt_clust_4="116.49516" pt_clust_5="43.63579" pt_clust_6="82.48275"></scales>
<clustering>
<clus scale="   43.636">  2  5  1 -1</clus>
<clus scale="   82.483">  1  6  2 -1</clus>
<clus scale="  116.495">  1  4  2 -1</clus>
<clus scale="   43.636">  2  3  1 -1</clus>
</clustering>
</event>
<event>
 6    0  0.6525019E+002  0.7798917E+02  0.7546771E-02  0.1334857E+00
         21   -1    0    0  505  502  0.00000000000E+00  0.00000000000E+00  0.20784154991E+03  0.20784154991E+03  0.00000000000E+00 0. -1.
         -2   -1    0    0    0  501 -0.00000000000E+00 -0.00000000000E+00 -0.10988125463E+04  0.10988125463E+04  0.00000000000E+00 0.  1.
         21    1    1    2  503  501  0.28913669081E+02 -0.59708861341E+02 -0.41444534764E+03  0.41972144878E+03  0.00000000000E+00 0.  1.
         21    1    1    2  504  502 -0.90708249345E+02 -0.47523149665E+02 -0.11837959277E+03  0.15652528306E+03  0.00000000000E+00 0.  1.
         21    1    1    2  505  503  0.18413377268E+02  0.34559398703E+02  0.18073088499E+03  0.18492446375E+03  0.00000000000E+00 0. -1.
         -2    1    1    2    0  504  0.43381202996E+02  0.72672612302E+02 -0.53887694093E+03  0.54548290057E+03  0.00000000000E+00 0.  1.
<scales pt_clust_3="63.99416" pt_clust_4="77.98917" pt_clust_5="39.15871" pt_clust_6="14000.00000"></scales>
<clustering>
<clus scale="   39.159">  1  5  2 -1</clus>
<clus scale="   63.994">  2  3  1 -1</clus>
<clus scale="   77.989">  1  4  2 -1</clus>
<clus scale="   39.159">  1  3  2 -1</clus>
</clustering>
</event>
<event>
 6    0  0.6525019E+002  0.8708044E+02  0.7546771E-02  0.1310080E+00
          2   -1    0    0  505    0 -0.00000000000E+00  0.00000000000E+00  0.51404898615E+03  0.51404898615E+03  0.00000000000E+00 0.  1.
         21   -1    0    0  503  502  0.00000000000E+00 -0.00000000000E+00 -0.18513811062E+03  0.18513811062E+03  0.00000000000E+00 0. -1.
         21    1    1    2  503  501 -0.56641402201E+02  0.10627548601E+03 -0.12033861604E+02  0.12102702671E+03  0.00000000000E+00 0. -1.
         21    1    1    2  504  502  0.88500598069E+02 -0.84195826040E+01 -0.83394002619E+02  0.12189259577E+03  0.00000000000E+00 0. -1.
         21    1    1    2  505  504 -0.26143850814E+02 -0.51520421594E+02  0.42844382999E+02  0.71927018089E+02  0.00000000000E+00 0. -1.
          2    1    1    2  501    0 -0.57153450540E+01 -0.46335481811E+02  0.38149435675E+03  0.38434045620E+03  0.00000000000E+00 0.  1.
<scales pt_clust_3="14000.00000" pt_clust_4="87.08044" pt_clust_5="77.30102" pt_clust_6="46.68664"></scales>
<clustering>
<clus scale="   46.687">  1  6  2 -1</clus>
<clus scale="   77.301">  1  5  2 -1</clus>
<clus scale="   87.080">  2  4  1 -1</clus>
<clus scale="   87.080">  2  3  1 -1</clus>
</clustering>
</event>
<event>
 6    0  0.6525019E+002  0.6003462E+02  0.7546771E-02  0.1397687E+00
         21   -1    0    0  503  502  0.00000000000E+00  0.00000000000E+00  0.36342222158E+02  0.36342222158E+02  0.00000000000E+00 0.  1.
          2   -1    0    0  504    0 -0.00000000000E+00 -0.00000000000E+00 -0.11741459560E+04  0.11741459560E+04  0.00000000000E+00 0.  1.
         21    1    1    2  503  501  0.48927530984E+02  0.60756752430E+01 -0.65256332145E+02  0.81787566310E+02  0.00000000000E+00 0.  1.
         21    1    1    2  504  505 -0.13412571114E+02 -0.34919432567E+02 -0.20811849399E+03  0.21145347331E+03  0.00000000000E+00 0.  1.
         21    1    1    2  505  502 -0.10161657988E+03 -0.46124312508E+01 -0.80221699679E+02  0.12954815679E+03  0.00000000000E+00 0.  1.
          2    1    1    2  501    0  0.66101620010E+02  0.33456188575E+02 -0.78420720802E+03  0.78769898174E+03  0.00000000000E+00 0.  1.
<scales pt_clust_3="48.02643" pt_clust_4="37.40674" pt_clust_5="14000.00000" pt_clust_6="60.03462"></scales>
<clustering>
<clus scale="   37.407">  2  4  1 -1</clus>
<clus scale="   48.026">  1  3  2 -1</clus>
<clus scale="   60.035">  2  6  1 -1</clus>
<clus scale="   48.026">  1  3  2 -1</clus>
</clustering>
</event>
<event>
 6    0  0.6525019E+002  0.1032970E+03  0.7546771E-02  0.1273512E+00
          1   -1    0    0  504    0 -0.00000000000E+00  0.00000000000E+00  0.34808424435E+02  0.34808424435E+02  0.00000000000E+00 0.  1.
         21   -1    0    0  505  502  0.00000000000E+00 -0.00000000000E+00 -0.20944030676E+04  0.20944030676E+04  0.00000000000E+00 0.  1.
         21    1    1    2  503  502 -0.16713439559E+02  0.41857138617E+02 -0.21751762707E+03  0.22213796884E+03  0.00000000000E+00 0. -1.
         21    1    1    2  504  503 -0.10651066324E+03 -0.17376746604E+02 -0.80941959597E+03  0.81658224022E+03  0.00000000000E+00 0.  1.
         21    1    1    2  505  501  0.49282309021E+02 -0.99189463551E+02 -0.95089190462E+03  0.95732058890E+03  0.00000000000E+00 0.  1.
          1    1    1    2  501    0  0.73941793774E+02  0.74709071538E+02 -0.81765515537E+02  0.13317069410E+03  0.00000000000E+00 0.  1.
<scales pt_clust_3="45.07060" pt_clust_4="14000.00000" pt_clust_5="87.91349" pt_clust_6="103.29697"></scales>
<clustering>
<clus scale="   45.071">  2  3  1 -1</clus>
<clus scale="   87.913">  2  5  1 -1</clus>
<clus scale="  103.297">  1  6  2 -1</clus>
<clus scale="   45.071">  2  3  1 -1</clus>
</clustering>
</event>
<event>
 6    0  0.6525019E+002  0.1099547E+03  0.7546771E-02  0.1260654E+00
         21   -1    0    0  504  502  0.00000000000E+00  0.00000000000E+00  0.19206892554E+04  0.19206892554E+04  0.00000000000E+00 0.  1.
         -1   -1    0    0    0  501 -0.00000000000E+00 -0.00000000000E+00 -0.19768175722E+02  0.19768175722E+02  0.00000000000E+00 0.  1.
         21    1    1    2  503  505 -0.13326665634E+03  0.87398812666E+02  0.99298964092E+03  0.10056972612E+04  0.00000000000E+00 0.  1.
         21    1    1    2  504  501  0.26395590223E+02  0.30914964243E+02  0.15132581045E+03  0.15669066056E+03  0.00000000000E+00 0.  1.
         21    1    1    2  505  502  0.44761008842E+02 -0.75978132202E+02  0.57184162749E+03  0.57860096043E+03  0.00000000000E+00 0.  1.
         -1    1    1    2    0  503  0.62110057272E+02 -0.42335644708E+02  0.18476400082E+03  0.19946854896E+03  0.00000000000E+00 0.  1.
<scales pt_clust_3="14000.00000" pt_clust_4="40.65049" pt_clust_5="109.95467" pt_clust_6="78.99686"></scales>
<clustering>
<clus scale="   40.650">  2  4  1 -1</clus>
<clus scale="   78.997">  2  6  1 -1</clus>
<clus scale="  109.955">  1  5  2 -1</clus>
<clus scale="  109.955">  1  3  2 -1</clus>
</clustering>
</event>
<event>
 6    0  0.6525019E+002  0.1266903E+03  0.7546771E-02  0.1232451E+00
         21   -1    0    0  504  502  0.00000000000E+00  0.00000000000E+00  0.27223544312E+03  0.27223544312E+03  0.00000000000E+00 0.  1.
          2   -1    0    0  503    0 -0.00000000000E+00 -0.00000000000E+00 -0.69356799776E+03  0.69356799776E+03  0.00000000000E+00 0.  1.
         21    1    1    2  503  505  0.54218113457E+02 -0.39196107159E+02 -0.94266952159E+02  0.11559496924E+03  0.00000000000E+00 0. -1.
         21    1    1    2  504  501 -0.18328693633E+03  0.62135035904E+01  0.49558667707E+02  0.18997044560E+03  0.00000000000E+00 0.  1.
         21    1    1    2  505  502  0.59774998263E+02  0.23545403423E+02  0.13201292347E+03  0.14681569536E+03  0.00000000000E+00 0. -1.
          2    1    1    2  501    0  0.69293824606E+02  0.94372001458E+01 -0.50863719366E+03  0.51342233069E+03  0.00000000000E+00 0.  1.
<scales pt_clust_3="69.81950" pt_clust_4="14000.00000" pt_clust_5="64.24513" pt_clust_6="126.69025"></scales>
<clustering>
<clus scale="   64.245">  1  5  2 -1</clus>
<clus scale="   69.819">  2  3  1 -1</clus>
<clus scale="  126.690">  2  6  1 -1</clus>
<clus scale="   64.245">  1  3  2 -1</clus>
</clustering>
</event>
<event>
 6    0  0.6525019E+002  0.9120271E+02  0.7546771E-02  0.1299965E+00
         21   -1    0    0  504  502  0.00000000000E+00  0.00000000000E+00  0.59116297122E+02  0.59116297122E+02  0.00000000000E+00 0.  1.
          2   -1    0    0  503    0 -0.00000000000E+00 -0.00000000000E+00 -0.12212759430E+04  0.12212759430E+04  0.00000000000E+00 0. -1.
         21    1    1    2  503  505 -0.70821433423E+02 -0.72859585556E+02 -0.37956591928E+03  0.39293063220E+03  0.00000000000E+00 0. -1.
         21    1    1    2  504  501  0.52944132882E+02  0.10248663504E+03 -0.44837461642E+02  0.12376182584E+03  0.00000000000E+00 0.  1.
         21    1    1    2  505  502 -0.15990956653E+02 -0.26203788193E+02 -0.61570908639E+01  0.31309087790E+02  0.00000000000E+00 0.  1.
          2    1    1    2  501    0  0.33868257194E+02 -0.34232612884E+01 -0.73159917408E+03  0.73239069429E+03  0.00000000000E+00 0. -1.
<scales pt_clust_3="91.20271" pt_clust_4="14000.00000" pt_clust_5="30.69771" pt_clust_6="33.92876"></scales>
<clustering>
<clus scale="   30.698">  1  5  2 -1</clus>
<clus scale="   33.929">  2  6  1 -1</clus>
<clus scale="   91.203">  2  3  1 -1</clus>
<clus scale="   30.698">  1  3  2 -1</clus>
</clustering>
</event>
<event>
 6    0  0.6525019E+002  0.1123817E+03  0.7546771E-02  0.1256222E+00
         21   -1    0    0  505  502  0.00000000000E+00  0.00000000000E+00  0.20382013211E+02  0.20382013211E+02  0.00000000000E+00 0. -1.
          2   -1    0    0  503    0 -0.00000000000E+00 -0.00000000000E+00 -0.53036060877E+04  0.53036060877E+04  0.00000000000E+00 0. -1.
         21    1    1    2  503  504 -0.13547638068E+03 -0.27299448070E+01 -0.92198908610E+03  0.93189332930E+03  0.00000000000E+00 0. -1.
         21    1    1    2  504  502 -0.32523248147E+02 -0.48067215847E+02 -0.12285557544E+03  0.13587388022E+03  0.00000000000E+00 0. -1.
         21    1    1    2  505  501  0.64595286469E+02  0.88131444201E+02 -0.35846077651E+03  0.37474502103E+03  0.00000000000E+00 0. -1.
          2    1    1    2  501    0  0.10340434236E+03 -0.37334283547E+02 -0.38799186364E+04  0.38814758703E+04  0.00000000000E+00 0. -1.
<scales pt_clust_3="14000.00000" pt_clust_4="58.03636" pt_clust_5="75.24185" pt_clust_6="112.38171"></scales>
<clustering>
<clus scale="   58.036">  1  4  2 -1</clus>
<clus scale="   75.242">  1  5  2 -1</clus>
<clus scale="  112.382">  2  6  1 -1</clus>
<clus scale="   58.036">  1  3  2 -1</clus>
</clustering>
</event>
<event>
 6    0  0.6525019E+002  0.5269957E+02  0.7546771E-02  0.1431302E+00
         21   -1    0    0  504  502  0.00000000000E+00  0.00000000000E+00  0.11191986785E+03  0.11191986785E+03  0.00000000000E+00 0.  1.
          2   -1    0    0  503    0 -0.00000000000E+00 -0.00000000000E+00 -0.22500473405E+04  0.22500473405E+04  0.00000000000E+00 0.  1.
         21    1    1    2  503  505 -0.42715899281E+02 -0.90964976739E+01 -0.48070213387E+03  0.48268202352E+03  0.00000000000E+00 0.  1.
         21    1    1    2  504  501 -0.16669605106E+02 -0.45317103527E+02  0.85421312743E+02  0.98123984210E+02  0.00000000000E+00 0.  1.
         21    1    1    2  505  502 -0.33035567458E+02  0.58589030808E+02 -0.45295083072E+02  0.81090491420E+02  0.00000000000E+00 0.  1.
          2    1    1    2  501    0  0.92421071845E+02 -0.41754296065E+01 -0.16975515685E+04  0.17000707092E+04  0.00000000000E+00 0.  1.
<scales pt_clust_3="43.67373" pt_clust_4="48.36958" pt_clust_5="52.69957" pt_clust_6="14000.00000"></scales>
<clustering>
<clus scale="   43.674">  2  3  1 -1</clus>
<clus scale="   48.370">  1  4  2 -1</clus>
<clus scale="   52.700">  1  5  2 -1</clus>
<clus scale="   48.370">  1  3  2 -1</clus>
</clustering>
</event>
<event>
 6    0  0.6525019E+002  0.7592695E+02  0.7546771E-02  0.1341024E+00
         21   -1    0    0  505  502  0.00000000000E+00  0.00000000000E+00  0.12627464103E+03  0.12627464103E+03  0.00000000000E+00 0. -1.
          1   -1    0    0  504    0 -0.00000000000E+00 -0.00000000000E+00 -0.19743410048E+04  0.19743410048E+04  0.00000000000E+00 0. -1.
         21    1    1    2  503  501  0.41765357095E+02  0.13642899992E+03  0.54308548960E+02  0.15266510918E+03  0.00000000000E+00 0. -1.
         21    1    1    2  504  502 -0.14466315459E+02 -0.39559715423E+02 -0.39422520242E+03  0.39646911052E+03  0.00000000000E+00 0. -1.
         21    1    1    2  505  503 -0.27801391458E+02 -0.56774879460E+02 -0.25302221354E+02  0.68091899005E+02  0.00000000000E+00 0.  1.
          1    1    1    2  501    0  0.50234982134E+00 -0.40094405036E+02 -0.14828474890E+04  0.14833895271E+04  0.00000000000E+00 0. -1.
<scales pt_clust_3="75.92695" pt_clust_4="14000.00000" pt_clust_5="66.64062" pt_clust_6="40.09755"></scales>
<clustering>
<clus scale="   40.098">  2  6  1 -1</clus>
<clus scale="   66.641">  1  5  2 -1</clus>
<clus scale="   75.927">  1  3  2 -1</clus>
<clus scale="   66.641">  1  3  2 -1</clus>
</clustering>
</event>
<event>
 6    0  0.6525019E+002  0.1342470E+03  0.7546771E-02  0.1221287E+00
         21   -1    0    0  505  502  0.00000000000E+00  0.00000000000E+00  0.57395822107E+02  0.57395822107E+02  0.00000000000E+00 0. -1.
          2   -1    0    0  503    0 -0.00000000000E+00 -0.00000000000E+00 -0.17253334398E+04  0.17253334398E+04  0.00000000000E+00 0.  1.
         21    1    1    2  503  502 -0.52614396266E+01  0.10859385396E+03 -0.13269263501E+04  0.13313729178E+04  0.00000000000E+00 0.  1.
         21    1    1    2  504  501  0.42090673557E+02 -0.74813385704E+02 -0.20685945892E+01  0.85865863791E+02  0.00000000000E+00 0. -1.
         21    1    1    2  505  504  0.76780407921E+01 -0.62936743369E+02 -0.85049506764E+02  0.10608206529E+03  0.00000000000E+00 0. -1.
          2    1    1    2  501    0 -0.44507274723E+02  0.29156275111E+02 -0.25389316624E+03  0.25940841494E+03  0.00000000000E+00 0.  1.
<scales pt_clust_3="14000.00000" pt_clust_4="134.24700" pt_clust_5="61.22660" pt_clust_6="53.20701"></scales>
<clustering>
<clus scale="   53.207">  2  6  1 -1</clus>
<clus scale="   61.227">  1  5  2 -1</clus>
<clus scale="  134.247">  1  4  2 -1</clus>
<clus scale="   61.227">  1  3  2 -1</clus>
</clustering>
</event>
<event>
 6    0  0.6525019E+002  0.8026931E+02  0.7546771E-02  0.1328289E+00
         21   -1    0    0  504  502  0.00000000000E+00  0.00000000000E+00  0.15808240790E+03  0.15808240790E+03  0.00000000000E+00 0. -1.
         -1   -1    0    0    0  501 -0.00000000000E+00 -0.00000000000E+00 -0.10396589803E+04  0.10396589803E+04  0.00000000000E+00 0.  1.
         21    1    1    2  503  501 -0.43082660336E+02 -0.46332508523E+02 -0.64278913874E+02  0.90191993750E+02  0.00000000000E+00 0. -1.
         21    1    1    2  504  503 -0.24482769434E+02  0.32610958647E+02  0.14632099353E+02  0.43324115161E+02  0.00000000000E+00 0.  1.
         21    1    1    2  505  502  0.10602768254E+03 -0.79485040281E-01  0.91403996543E+02  0.13998773649E+03  0.00000000000E+00 0. -1.
         -1    1    1    2    0  505 -0.38462252773E+02  0.13801034917E+02 -0.92333375443E+03  0.92423754281E+03  0.00000000000E+00 0.  1.
<scales pt_clust_3="80.26931" pt_clust_4="40.77843" pt_clust_5="14000.00000" pt_clust_6="40.98264"></scales>
<clustering>
<clus scale="   40.778">  1  4  2 -1</clus>
<clus scale="   40.983">  2  6  1 -1</clus>
<clus scale="   80.269">  2  3  1 -1</clus>
<clus scale="   40.778">  1  3  2 -1</clus>
</clustering>
</event>
<event>
 6    0  0.6525019E+002  0.1332099E+03  0.7546771E-02  0.1222769E+00
         21   -1    0    0  503  502  0.00000000000E+00  0.00000000000E+00  0.10138215124E+03  0.10138215124E+03  0.00000000000E+00 0.  1.
          1   -1    0    0  504    0 -0.00000000000E+00 -0.00000000000E+00 -0.10448780679E+04  0.10448780679E+04  0.00000000000E+00 0.  1.
         21    1    1    2  503  505 -0.16632930685E+02 -0.25108940517E+02  0.49445928197E+02  0.57896572371E+02  0.00000000000E+00 0.  1.
         21    1    1    2  504  502 -0.27312098730E+02 -0.14821338492E+03 -0.31513307878E+03  0.34931649768E+03  0.00000000000E+00 0.  1.
         21    1    1    2  505  501  0.39592287928E+01  0.13983130883E+03 -0.13723897892E+03  0.19596685372E+03  0.00000000000E+00 0.  1.
          1    1    1    2  501    0  0.39985800622E+02  0.33491016614E+02 -0.54056978711E+03  0.54308029533E+03  0.00000000000E+00 0.  1.
<scales pt_clust_3="30.11832" pt_clust_4="14000.00000" pt_clust_5="133.20986" pt_clust_6="51.39937"></scales>
<clustering>
<clus scale="   30.118">  1  3  2 -1</clus>
<clus scale="   51.399">  2  6  1 -1</clus>
<clus scale="  133.210">  1  5  2 -1</clus>
<clus scale="   30.118">  1  3  2 -1</clus>
</clustering>
</event>
<event>
 6    0  0.6525019E+002  0.8847149E+02  0.7546771E-02  0.1306596E+00
         21   -1    0    0  504  502  0.00000000000E+00  0.00000000000E+00  0.17089501171E+03  0.17089501171E+03  0.00000000000E+00 0. -1.
          2   -1    0    0  503    0 -0.00000000000E+00 -0.00000000000E+00 -0.23853483266E+04  0.23853483266E+04  0.00000000000E+00 0. -1.
         21    1    1    2  503  502  0.10987591405E+03  0.17839421520E+02  0.49897572203E+02  0.12198659419E+03  0.00000000000E+00 0. -1.
         21    1    1    2  504  505 -0.29609562082E+02  0.34034356948E+02  0.39893092065E+02  0.60220614527E+02  0.00000000000E+00 0. -1.
         21    1    1    2  505  501 -0.69012332169E+02 -0.18762831785E+02 -0.20194002819E+01  0.71545956038E+02  0.00000000000E+00 0. -1.
          2    1    1    2  501    0 -0.11254019804E+02 -0.33110946684E+02 -0.23022245789E+04  0.23024901736E+04  0.00000000000E+00 0. -1.
<scales pt_clust_3="88.47149" pt_clust_4="43.11617" pt_clust_5="14000.00000" pt_clust_6="34.97124"></scales>
<clustering>
<clus scale="   34.971">  2  6  1 -1</clus>
<clus scale="   43.116">  1  4  2 -1</clus>
<clus scale="   88.471">  1  3  2 -1</clus>
<clus scale="   43.116">  1  3  2 -1</clus>
</clustering>
</event>
<event>
 6    0  0.6525019E+002  0.1727048E+03  0.7546771E-02  0.1175056E+00
         21   -1    0    0  504  502  0.00000000000E+00  0.00000000000E+00  0.97487089141E+03  0.97487089141E+03  0.00000000000E+00 0. -1.
          2   -1    0    0  503    0 -0.00000000000E+00 -0.00000000000E+00 -0.32159595172E+03  0.32159595172E+03  0.00000000000E+00 0. -1.
         21    1    1    2  503  505  0.12252791799E+03  0.49277604667E+02  0.39751575996E+03  0.41887963955E+03  0.00000000000E+00 0. -1.
         21    1    1    2  504  501 -0.14531973689E+03 -0.77688343696E+02  0.45466020389E+03  0.48360025400E+03  0.00000000000E+00 0. -1.
         21    1    1    2  505  502  0.39786082376E+02 -0.11921379817E+02  0.91405815745E+02  0.10039957569E+03  0.00000000000E+00 0.  1.
          2    1    1    2  501    0 -0.16994263482E+02  0.40332118846E+02 -0.29030683991E+03  0.29358737388E+03  0.00000000000E+00 0. -1.
<scales pt_clust_3="30.01846" pt_clust_4="164.20014" pt_clust_5="30.01846" pt_clust_6="43.76625"></scales>
<clustering>
<clus scale="   30.018">  3  5 -1 -1</clus>
<clus scale="   43.766">  2  6  1 -1</clus>
<clus scale="  164.200">  2  4  1 -1</clus>
<clus scale="  172.705">  1  3  2 -1</clus>
</clustering>
</event>
<event>
 6    0  0.6525019E+002  0.1350097E+03  0.7546771E-02  0.1220206E+00
          1   -1    0    0  503    0 -0.00000000000E+00  0.00000000000E+00  0.26138520049E+03  0.26138520049E+03  0.00000000000E+00 0. -1.
         21   -1    0    0  504  502  0.00000000000E+00 -0.00000000000E+00 -0.25049325639E+03  0.25049325639E+03  0.00000000000E+00 0. -1.
         21    1    1    2  503  502  0.95291867347E+02 -0.85978314077E+02 -0.90859328743E+02  0.15725211634E+03  0.00000000000E+00 0.  1.
         21    1    1    2  504  505  0.27287879148E+02  0.61705973957E+02 -0.94115269851E+02  0.11580129356E+03  0.00000000000E+00 0. -1.
         21    1    1    2  505  501 -0.93215482589E+02  0.96127428685E+01  0.97961783405E+02  0.13556563734E+03  0.00000000000E+00 0. -1.
          1    1    1    2  501    0 -0.29364263906E+02  0.14659597251E+02  0.97904759294E+02  0.10325940964E+03  0.00000000000E+00 0. -1.
<scales pt_clust_3="123.16189" pt_clust_4="67.47041" pt_clust_5="32.73034" pt_clust_6="32.73034"></scales>
<clustering>
<clus scale="   32.730">  5  6 -1 -1</clus>
<clus scale="   67.470">  2  4  1 -1</clus>
<clus scale="  123.162">  2  3  1 -1</clus>
<clus scale="   67.470">  2  3  1 -1</clus>
</clustering>
</event>
<event>
 6    0  0.6525019E+002  0.1028222E+03  0.7546771E-02  0.1274471E+00
         21   -1    0    0  503  502  0.00000000000E+00  0.00000000000E+00  0.87692997576E+02  0.87692997576E+02  0.00000000000E+00 0. -1.
          1   -1    0    0  505    0 -0.00000000000E+00 -0.00000000000E+00 -0.45546440716E+04  0.45546440716E+04  0.00000000000E+00 0. -1.
         21    1    1    2  503  501 -0.10762181446E+03 -0.11024082404E+02 -0.16018865863E+02  0.10936447963E+03  0.00000000000E+00 0. -1.
         21    1    1    2  504  502  0.52136986067E+01  0.44063655737E+02  0.25075570386E+02  0.50966387358E+02  0.00000000000E+00 0. -1.
         21    1    1    2  505  504  0.68730770630E+02  0.53579612783E+02 -0.36052198259E+04  0.36062729634E+04  0.00000000000E+00 0. -1.
          1    1    1    2  501    0  0.33677345225E+02 -0.86619186116E+02 -0.87078795262E+03  0.87573323873E+03  0.00000000000E+00 0. -1.
<scales pt_clust_3="102.82224" pt_clust_4="44.37103" pt_clust_5="87.47896" pt_clust_6="14000.00000"></scales>
<clustering>
<clus scale="   44.371">  1  4  2 -1</clus>
<clus scale="   87.479">  2  5  1 -1</clus>
<clus scale="  102.822">  1  3  2 -1</clus>
<clus scale="   44.371">  1  3  2 -1</clus>
</clustering>
</event>
<event>
 6    0  0.6525019E+002  0.6850983E+02  0.7546771E-02  0.1365235E+00
         21   -1    0    0  503  502  0.00000000000E+00  0.00000000000E+00  0.58112287994E+02  0.58112287994E+02  0.00000000000E+00 0. -1.
          4   -1    0    0  504    0 -0.00000000000E+00 -0.00000000000E+00 -0.91640236864E+03  0.91640236864E+03  0.00000000000E+00 0. -1.
         21    1    1    2  503  501 -0.30443942203E+02 -0.12491209574E+02 -0.47166980509E+02  0.57511633465E+02  0.00000000000E+00 0.  1.
         21    1    1    2  504  505  0.66355156442E+02 -0.37381568563E+02 -0.15397170944E+03  0.17177798393E+03  0.00000000000E+00 0. -1.
         21    1    1    2  505  502  0.24682442331E+02  0.79483187474E+02  0.13902816206E+01  0.83239010887E+02  0.00000000000E+00 0. -1.
          4    1    1    2  501    0 -0.60593656570E+02 -0.29610409338E+02 -0.65854167231E+03  0.66198602835E+03  0.00000000000E+00 0. -1.
<scales pt_clust_3="32.90690" pt_clust_4="63.01578" pt_clust_5="14000.00000" pt_clust_6="68.50983"></scales>
<clustering>
<clus scale="   32.907">  1  3  2 -1</clus>
<clus scale="   68.510">  2  6  1 -1</clus>
<clus scale="   63.016">  2  4  1 -1</clus>
<clus scale="   32.907">  1  3  2 -1</clus>
</clustering>
</event>
<event>
 6    0  0.6525019E+002  0.6626795E+02  0.7546771E-02  0.1373264E+00
          2   -1    0    0  505    0 -0.00000000000E+00  0.00000000000E+00  0.11552958276E+04  0.11552958276E+04  0.00000000000E+00 0.  1.
         21   -1    0    0  504  502  0.00000000000E+00 -0.00000000000E+00 -0.24418460816E+03  0.24418460816E+03  0.00000000000E+00 0. -1.
         21    1    1    2  503  502 -0.29516939308E+02 -0.14932566779E+02 -0.22039821889E+03  0.22286679014E+03  0.00000000000E+00 0. -1.
         21    1    1    2  504  501  0.59816667107E+02  0.66836179667E+02  0.92607226736E+02  0.12892326020E+03  0.00000000000E+00 0. -1.
         21    1    1    2  505  503  0.45842181826E+02 -0.18557693525E+02  0.28971175340E+03  0.29390269424E+03  0.00000000000E+00 0. -1.
          2    1    1    2  501    0 -0.76141909625E+02 -0.33345919363E+02  0.74919045821E+03  0.75378769121E+03  0.00000000000E+00 0.  1.
<scales pt_clust_3="33.07917" pt_clust_4="66.26795" pt_clust_5="47.49087" pt_clust_6="14000.00000"></scales>
<clustering>
<clus scale="   33.079">  2  3  1 -1</clus>
<clus scale="   47.491">  1  5  2 -1</clus>
<clus scale="   66.268">  2  4  1 -1</clus>
<clus scale="   33.079">  2  3  1 -1</clus>
</clustering>
</event>
<event>
 6    0  0.6525019E+002  0.1934211E+03  0.7546771E-02  0.1155411E+00
          2   -1    0    0  505    0 -0.00000000000E+00  0.00000000000E+00  0.36271811528E+04  0.36271811528E+04  0.00000000000E+00 0.  1.
         21   -1    0    0  503  502  0.00000000000E+00 -0.00000000000E+00 -0.40731963276E+03  0.40731963276E+03  0.00000000000E+00 0.  1.
         21    1    1    2  503  501  0.73610807500E+02  0.11772627505E+03  0.90398106147E+03  0.91458175486E+03  0.00000000000E+00 0.  1.
         21    1    1    2  504  502 -0.34364293088E+02  0.57199905102E+01 -0.27917106831E+03  0.28133629043E+03  0.00000000000E+00 0.  1.
         21    1    1    2  505  504 -0.42532190304E+02 -0.18936441095E+03 -0.43753188702E+02  0.19895278050E+03  0.00000000000E+00 0. -1.
          2    1    1    2  501    0  0.32856758921E+01  0.65918145387E+02  0.26388047156E+04  0.26396299598E+04  0.00000000000E+00 0.  1.
<scales pt_clust_3="193.42113" pt_clust_4="34.83709" pt_clust_5="14000.00000" pt_clust_6="66.01307"></scales>
<clustering>
<clus scale="   34.837">  2  4  1 -1</clus>
<clus scale="   66.013">  1  6  2 -1</clus>
<clus scale="  193.421">  1  3  2 -1</clus>
<clus scale="   34.837">  2  3  1 -1</clus>
</clustering>
</event>
<event>
 6    0  0.6525019E+002  0.1369584E+03  0.7546771E-02  0.1217481E+00
         21   -1    0    0  504  502  0.00000000000E+00  0.00000000000E+00  0.15508744088E+03  0.15508744088E+03  0.00000000000E+00 0.  1.
          1   -1    0    0  505    0 -0.00000000000E+00 -0.00000000000E+00 -0.94898637137E+03  0.94898637137E+03  0.00000000000E+00 0.  1.
         21    1    1    2  503  502  0.18328087459E+03 -0.56289483377E+02 -0.48439712657E+02  0.19775436959E+03  0.00000000000E+00 0.  1.
         21    1    1    2  504  501 -0.44208449280E+02  0.70027473149E+02  0.48165953262E+02  0.95802886371E+02  0.00000000000E+00 0. -1.
         21    1    1    2  505  503 -0.49323487605E+02  0.48982250503E+01 -0.10848594546E+03  0.11927279405E+03  0.00000000000E+00 0.  1.
          1    1    1    2  501    0 -0.89748937706E+02 -0.18636214822E+02 -0.68513922563E+03  0.69124376223E+03  0.00000000000E+00 0.  1.
<scales pt_clust_3="136.95845" pt_clust_4="83.69099" pt_clust_5="49.56611" pt_clust_6="14000.00000"></scales>
<clustering>
<clus scale="   49.566">  2  5  1 -1</clus>
<clus scale="   83.691">  1  4  2 -1</clus>
<clus scale="  136.958">  1  3  2 -1</clus>
<clus scale="   83.691">  1  3  2 -1</clus>
</clustering>
</event>
<event>
 6    0  0.6525019E+002  0.1061858E+03  0.7546771E-02  0.1267801E+00
         21   -1    0    0  505  502  0.00000000000E+00  0.00000000000E+00  0.65707833739E+02  0.65707833739E+02  0.00000000000E+00 0.  1.
          3   -1    0    0  504    0 -0.00000000000E+00 -0.00000000000E+00 -0.10373060986E+04  0.10373060986E+04  0.00000000000E+00 0.  1.
         21    1    1    2  503  501  0.84401806075E+02 -0.54667391438E+02 -0.59887783173E+03  0.60726176060E+03  0.00000000000E+00 0.  1.
         21    1    1    2  504  502 -0.66235399883E+02  0.12482677036E+03 -0.76655008089E+02  0.16076330757E+03  0.00000000000E+00 0.  1.
         21    1    1    2  505  503  0.74984580193E+01 -0.39819358574E+02 -0.45461312650E+01  0.40773465628E+02  0.00000000000E+00 0.  1.
          3    1    1    2  501    0 -0.25664864212E+02 -0.30340020349E+02 -0.29151929374E+03  0.29421539849E+03  0.00000000000E+00 0.  1.
<scales pt_clust_3="14000.00000" pt_clust_4="106.18585" pt_clust_5="41.29289" pt_clust_6="39.73918"></scales>
<clustering>
<clus scale="   39.739">  2  6  1 -1</clus>
<clus scale="   41.293">  1  5  2 -1</clus>
<clus scale="  106.186">  1  4  2 -1</clus>
<clus scale="   41.293">  1  3  2 -1</clus>
</clustering>
</event>
<event>
 6    0  0.6525019E+002  0.1369200E+03  0.7546771E-02  0.1217534E+00
          2   -1    0    0  505    0 -0.00000000000E+00  0.00000000000E+00  0.71556662589E+03  0.71556662589E+03  0.00000000000E+00 0. -1.
         21   -1    0    0  504  502  0.00000000000E+00 -0.00000000000E+00 -0.21077100864E+03  0.21077100864E+03  0.00000000000E+00 0.  1.
         21    1    1    2  503  501 -0.20472163515E+02 -0.44746504305E+02  0.85205525835E+02  0.98393804477E+02  0.00000000000E+00 0. -1.
         21    1    1    2  504  503  0.17312431314E+02 -0.36536868524E+02 -0.18170362369E+03  0.18614744130E+03  0.00000000000E+00 0.  1.
         21    1    1    2  505  502  0.35832869374E+02  0.13906693814E+03  0.29130978842E+03  0.32478454496E+03  0.00000000000E+00 0.  1.
          2    1    1    2  501    0 -0.32673137173E+02 -0.57783565310E+02  0.30998392667E+03  0.31701184380E+03  0.00000000000E+00 0. -1.
<scales pt_clust_3="49.60500" pt_clust_4="40.43097" pt_clust_5="125.28676" pt_clust_6="49.60500"></scales>
<clustering>
<clus scale="   40.431">  2  4  1 -1</clus>
<clus scale="   49.605">  3  6 -1 -1</clus>
<clus scale="  125.287">  2  5  1 -1</clus>
<clus scale="   40.431">  2  3  1 -1</clus>
</clustering>
</event>
<event>
 6    0  0.6525019E+002  0.1444440E+03  0.7546771E-02  0.1207471E+00
         21   -1    0    0  503  502  0.00000000000E+00  0.00000000000E+00  0.66510023211E+03  0.66510023211E+03  0.00000000000E+00 0. -1.
          2   -1    0    0  505    0 -0.00000000000E+00 -0.00000000000E+00 -0.12622579789E+04  0.12622579789E+04  0.00000000000E+00 0.  1.
         21    1    1    2  503  501  0.42398442557E+02 -0.42017859831E+02  0.17121258424E+02  0.62098840296E+02  0.00000000000E+00 0. -1.
         21    1    1    2  504  502 -0.11861028804E+03  0.17139776203E+03  0.59887729709E+03  0.63411324717E+03  0.00000000000E+00 0. -1.
         21    1    1    2  505  504  0.53758686330E+02 -0.73360885790E+02 -0.24878527412E+03  0.26488852097E+03  0.00000000000E+00 0.  1.
          2    1    1    2  501    0  0.22453159156E+02 -0.56019016413E+02 -0.96437102817E+03  0.96625760257E+03  0.00000000000E+00 0.  1.
<scales pt_clust_3="59.69195" pt_clust_4="14000.00000" pt_clust_5="144.44396" pt_clust_6="60.43388"></scales>
<clustering>
<clus scale="   59.692">  1  3  2 -1</clus>
<clus scale="   60.434">  2  6  1 -1</clus>
<clus scale="  144.444">  2  5  1 -1</clus>
<clus scale="   59.692">  1  3  2 -1</clus>
</clustering>
</event>
<event>
 6    0  0.6525019E+002  0.1676478E+03  0.7546771E-02  0.1180323E+00
         21   -1    0    0  504  502  0.00000000000E+00  0.00000000000E+00  0.32788154134E+03  0.32788154134E+03  0.00000000000E+00 0.  1.
          2   -1    0    0  505    0 -0.00000000000E+00 -0.00000000000E+00 -0.11922878732E+04  0.11922878732E+04  0.00000000000E+00 0.  1.
         21    1    1    2  503  502  0.17311181204E+03 -0.45594374631E+02  0.24973311210E+03  0.30726726761E+03  0.00000000000E+00 0.  1.
         21    1    1    2  504  501 -0.26327955965E+02  0.63848630986E+02 -0.32072854152E+03  0.32808018271E+03  0.00000000000E+00 0.  1.
         21    1    1    2  505  503 -0.13541839818E+03 -0.48193537355E+02 -0.68539087117E+02  0.15924310369E+03  0.00000000000E+00 0.  1.
          2    1    1    2  501    0 -0.11365457890E+02  0.29939281000E+02 -0.72487181529E+03  0.72557886049E+03  0.00000000000E+00 0.  1.
<scales pt_clust_3="14000.00000" pt_clust_4="91.29973" pt_clust_5="167.64783" pt_clust_6="32.02396"></scales>
<clustering>
<clus scale="   32.024">  2  6  1 -1</clus>
<clus scale="   91.300">  2  4  1 -1</clus>
<clus scale="  167.648">  2  5  1 -1</clus>
<clus scale="  167.648">  1  3  2 -1</clus>
</clustering>
</event>
<event>
 6    0  0.6525019E+002  0.1047884E+03  0.7546771E-02  0.1270537E+00
         21   -1    0    0  503  502  0.00000000000E+00  0.00000000000E+00  0.68086158011E+02  0.68086158011E+02  0.00000000000E+00 0. -1.
          1   -1    0    0  504    0 -0.00000000000E+00 -0.00000000000E+00 -0.11518342288E+04  0.11518342288E+04  0.00000000000E+00 0. -1.
         21    1    1    2  503  501 -0.84082271141E+02  0.54546001595E+02 -0.38491290552E+03  0.39774745687E+03  0.00000000000E+00 0. -1.
         21    1    1    2  504  505  0.13257226275E+03 -0.13287903482E+02 -0.21253848611E+03  0.25084772534E+03  0.00000000000E+00 0. -1.
         21    1    1    2  505  502 -0.36812915352E+02  0.65824296125E+02 -0.22654697879E+01  0.75453038709E+02  0.00000000000E+00 0. -1.
          1    1    1    2  501    0 -0.11677076256E+02 -0.10708239424E+03 -0.48403120937E+03  0.49587216590E+03  0.00000000000E+00 0. -1.
<scales pt_clust_3="14000.00000" pt_clust_4="104.78842" pt_clust_5="75.41902" pt_clust_6="96.51637"></scales>
<clustering>
<clus scale="   75.419">  1  5  2 -1</clus>
<clus scale="   96.516">  2  6  1 -1</clus>
<clus scale="  104.788">  1  4  2 -1</clus>
<clus scale="   75.419">  1  3  2 -1</clus>
</clustering>
</event>
<event>
 6    0  0.6525019E+002  0.2487033E+03  0.7546771E-02  0.1114127E+00
          2   -1    0    0  505    0 -0.00000000000E+00  0.00000000000E+00  0.23856506763E+04  0.23856506763E+04  0.00000000000E+00 0.  1.
         21   -1    0    0  503  502  0.00000000000E+00 -0.00000000000E+00 -0.48765064451E+03  0.48765064451E+03  0.00000000000E+00 0.  1.
         21    1    1    2  503  501  0.48446731637E+01  0.34319544882E+02 -0.14132120513E+03  0.14550939845E+03  0.00000000000E+00 0.  1.
         21    1    1    2  504  502 -0.68634989456E+02 -0.97950703809E+02 -0.30577265819E+03  0.32833218035E+03  0.00000000000E+00 0.  1.
         21    1    1    2  505  504  0.20152421895E+03 -0.14980875666E+03  0.10411619782E+04  0.10710149108E+04  0.00000000000E+00 0.  1.
          2    1    1    2  501    0 -0.13773390266E+03  0.21343991559E+03  0.13039319169E+04  0.13284448312E+04  0.00000000000E+00 0.  1.
<scales pt_clust_3="34.65980" pt_clust_4="92.30016" pt_clust_5="14000.00000" pt_clust_6="248.70327"></scales>
<clustering>
<clus scale="   34.660">  2  3  1 -1</clus>
<clus scale="   92.300">  2  4  1 -1</clus>
<clus scale="  248.703">  1  6  2 -1</clus>
<clus scale="   34.660">  2  3  1 -1</clus>
</clustering>
</event>
<event>
 6    0  0.6525019E+002  0.1260317E+03  0.7546771E-02  0.1233466E+00
         21   -1    0    0  504  502  0.00000000000E+00  0.00000000000E+00  0.69192492245E+03  0.69192492245E+03  0.00000000000E+00 0. -1.
         -1   -1    0    0    0  501 -0.00000000000E+00 -0.00000000000E+00 -0.13629147618E+03  0.13629147618E+03  0.00000000000E+00 0. -1.
         21    1    1    2  503  501 -0.19699146438E+03  0.45664746853E+01  0.43659154220E+02  0.20182321838E+03  0.00000000000E+00 0. -1.
         21    1    1    2  504  503  0.57348140314E+02 -0.58024966713E+02  0.38746688978E+03  0.39596249397E+03  0.00000000000E+00 0. -1.
         21    1    1    2  505  502  0.44049945529E+02  0.53223208354E+02  0.11527419929E+03  0.13439214497E+03  0.00000000000E+00 0. -1.
         -1    1    1    2    0  505  0.95593378535E+02  0.23528367359E+00  0.92332029893E+01  0.96038541303E+02  0.00000000000E+00 0. -1.
<scales pt_clust_3="126.03173" pt_clust_4="90.31366" pt_clust_5="69.08768" pt_clust_6="14000.00000"></scales>
<clustering>
<clus scale="   69.088">  1  5  2 -1</clus>
<clus scale="   90.314">  1  4  2 -1</clus>
<clus scale="  126.032">  1  3  2 -1</clus>
<clus scale="   69.088">  1  3  2 -1</clus>
</clustering>
</event>
<event>
 6    0  0.1111185E+003  0.1021855E+03  0.7546771E-02  0.1275766E+00
          2   -1    0    0  505    0 -0.00000000000E+00  0.00000000000E+00  0.27405088055E+04  0.27405088055E+04  0.00000000000E+00 0.  1.
         21   -1    0    0  504  502  0.00000000000E+00 -0.00000000000E+00 -0.39566088290E+03  0.39566088290E+03  0.00000000000E+00 0. -1.
         21    1    1    2  503  502  0.12372950278E+03  0.41837414152E+02 -0.32183556790E+03  0.34732908293E+03  0.00000000000E+00 0. -1.
         21    1    1    2  504  501 -0.38353960633E+02  0.42799522039E+02  0.61540952276E+01  0.57798773958E+02  0.00000000000E+00 0. -1.
         21    1    1    2  505  503 -0.78764067947E+02 -0.22345812418E+02  0.13150497951E+02  0.82921947207E+02  0.00000000000E+00 0.  1.
          2    1    1    2  501    0 -0.66114742041E+01 -0.62291123772E+02  0.26473788973E+04  0.26481198843E+04  0.00000000000E+00 0.  1.
<scales pt_clust_3="14000.00000" pt_clust_4="57.47021" pt_clust_5="102.18553" pt_clust_6="62.60244"></scales>
<clustering>
<clus scale="   57.470">  2  4  1 -1</clus>
<clus scale="   62.602">  1  6  2 -1</clus>
<clus scale="  102.186">  1  5  2 -1</clus>
<clus scale="   57.470">  2  3  1 -1</clus>
</clustering>
</event>
<event>
 6    0  0.6525019E+002  0.1175931E+03  0.7546771E-02  0.1247121E+00
         -4   -1    0    0    0  501 -0.00000000000E+00  0.00000000000E+00  0.50986909111E+03  0.50986909111E+03  0.00000000000E+00 0. -1.
         21   -1    0    0  505  502  0.00000000000E+00 -0.00000000000E+00 -0.25420866729E+03  0.25420866729E+03  0.00000000000E+00 0.  1.
         21    1    1    2  503  504  0.47674181335E+01  0.37486806029E+02 -0.15587022665E+03  0.16038552447E+03  0.00000000000E+00 0.  1.
         21    1    1    2  504  501 -0.14517020770E+03 -0.61316807891E+02  0.15543385987E+03  0.22134548770E+03  0.00000000000E+00 0. -1.
         21    1    1    2  505  503  0.33332248259E+02  0.12242927947E+02 -0.48020563282E+02  0.59723551105E+02  0.00000000000E+00 0.  1.
         -4    1    1    2    0  502  0.10707054131E+03  0.11587073915E+02  0.30411735389E+03  0.32262319512E+03  0.00000000000E+00 0. -1.
<scales pt_clust_3="56.47056" pt_clust_4="117.59310" pt_clust_5="35.50955" pt_clust_6="14000.00000"></scales>
<clustering>
<clus scale="   35.510">  2  5  1 -1</clus>
<clus scale="   56.471">  2  3  1 -1</clus>
<clus scale="  117.593">  2  4  1 -1</clus>
<clus scale="   35.510">  2  3  1 -1</clus>
</clustering>
</event>
<event>
 6    0  0.6525019E+002  0.9590418E+02  0.7546771E-02  0.1289153E+00
          2   -1    0    0  505    0 -0.00000000000E+00  0.00000000000E+00  0.40252190680E+04  0.40252190680E+04  0.00000000000E+00 0. -1.
         21   -1    0    0  504  502  0.00000000000E+00 -0.00000000000E+00 -0.42402996132E+02  0.42402996132E+02  0.00000000000E+00 0.  1.
         21    1    1    2  503  501 -0.10565517592E+03 -0.41595148477E+01  0.48714972705E+03  0.49849290298E+03  0.00000000000E+00 0.  1.
         21    1    1    2  504  503 -0.77783028243E+02 -0.18528752405E+02  0.59798156168E+02  0.99846550413E+02  0.00000000000E+00 0.  1.
         21    1    1    2  505  502  0.92361014129E+02  0.50932036921E+02  0.15765716117E+03  0.18968502783E+03  0.00000000000E+00 0.  1.
          2    1    1    2  501    0  0.91077190036E+02 -0.28243769668E+02  0.32782110275E+04  0.32795975829E+04  0.00000000000E+00 0. -1.
<scales pt_clust_3="95.90418" pt_clust_4="79.95945" pt_clust_5="52.59470" pt_clust_6="14000.00000"></scales>
<clustering>
<clus scale="   79.959">  2  4  1 -1</clus>
<clus scale="   52.595">  2  5  1 -1</clus>
<clus scale="   95.904">  2  3  1 -1</clus>
<clus scale="   79.959">  2  3  1 -1</clus>
</clustering>
</event>
<event>
 6    0  0.6525019E+002  0.8326674E+02  0.7546771E-02  0.1320028E+00
         21   -1    0    0  505  502  0.00000000000E+00  0.00000000000E+00  0.40309048160E+03  0.40309048160E+03  0.00000000000E+00 0.  1.
          2   -1    0    0  504    0 -0.00000000000E+00 -0.00000000000E+00 -0.17246021593E+04  0.17246021593E+04  0.00000000000E+00 0.  1.
         21    1    1    2  503  502  0.15884448896E+02  0.84633412733E+02  0.23831648719E+03  0.25339668177E+03  0.00000000000E+00 0.  1.
         21    1    1    2  504  503  0.44896454335E+02 -0.78500940988E+02  0.54011126191E+02  0.10533418771E+03  0.00000000000E+00 0.  1.
         21    1    1    2  505  501 -0.40833082227E+02  0.48062514308E+02  0.64161864304E+02  0.89967164659E+02  0.00000000000E+00 0. -1.
          2    1    1    2  501    0 -0.19947821004E+02 -0.54194986054E+02 -0.16780011554E+04  0.16789946068E+04  0.00000000000E+00 0.  1.
<scales pt_clust_3="83.26674" pt_clust_4="14000.00000" pt_clust_5="56.89054" pt_clust_6="57.74956"></scales>
<clustering>
<clus scale="   57.750">  2  6  1 -1</clus>
<clus scale="   56.891">  2  5  1 -1</clus>
<clus scale="   83.267">  1  3  2 -1</clus>
<clus scale="   83.267">  1  3  2 -1</clus>
</clustering>
</event>
<event>
 6    0  0.6525019E+002  0.2655171E+03  0.7546771E-02  0.1103873E+00
          2   -1    0    0  504    0 -0.00000000000E+00  0.00000000000E+00  0.16484829334E+04  0.16484829334E+04  0.00000000000E+00 0. -1.
         21   -1    0    0  503  502  0.00000000000E+00 -0.00000000000E+00 -0.15051181005E+03  0.15051181005E+03  0.00000000000E+00 0. -1.
         21    1    1    2  503  505 -0.16906190272E+02  0.24009825072E+03  0.11216624905E+03  0.26554520650E+03  0.00000000000E+00 0. -1.
         21    1    1    2  504  502  0.40118420701E+02 -0.28041872202E+02  0.86070587924E+02  0.99015051289E+02  0.00000000000E+00 0.  1.
         21    1    1    2  505  501 -0.15019928597E+03 -0.35794602799E+03  0.65575445359E+03  0.76203614603E+03  0.00000000000E+00 0. -1.
          2    1    1    2  501    0  0.12698705554E+03  0.14588964947E+03  0.64397983283E+03  0.67239833966E+03  0.00000000000E+00 0. -1.
<scales pt_clust_3="14000.00000" pt_clust_4="48.94726" pt_clust_5="265.51707" pt_clust_6="196.69066"></scales>
<clustering>
<clus scale="   48.947">  1  4  2 -1</clus>
<clus scale="  196.691">  1  6  2 -1</clus>
<clus scale="  265.517">  1  5  2 -1</clus>
<clus scale="  265.517">  2  3  1 -1</clus>
</clustering>
</event>
<event>
 6    0  0.6525019E+002  0.1040404E+03  0.7546771E-02  0.1272022E+00
          2   -1    0    0  505    0 -0.00000000000E+00  0.00000000000E+00  0.96938470417E+03  0.96938470417E+03  0.00000000000E+00 0.  1.
         21   -1    0    0  504  502  0.00000000000E+00 -0.00000000000E+00 -0.26328633807E+03  0.26328633807E+03  0.00000000000E+00 0. -1.
         21    1    1    2  503  501  0.33995013935E+02 -0.26457042041E+02  0.25908815805E+03  0.26264483564E+03  0.00000000000E+00 0. -1.
         21    1    1    2  504  503 -0.74306000124E+02  0.90744887018E+02 -0.21194860290E+03  0.24223589009E+03  0.00000000000E+00 0. -1.
         21    1    1    2  505  502  0.63584166654E+02 -0.36460764858E+02  0.56918269021E+01  0.73516872325E+02  0.00000000000E+00 0. -1.
          2    1    1    2  501    0 -0.23273180465E+02 -0.27827080119E+02  0.65326698405E+03  0.65427344418E+03  0.00000000000E+00 0.  1.
<scales pt_clust_3="51.61231" pt_clust_4="14000.00000" pt_clust_5="104.04038" pt_clust_6="36.27654"></scales>
<clustering>
<clus scale="   36.277">  1  6  2 -1</clus>
<clus scale="   51.612">  1  3  2 -1</clus>
<clus scale="  104.040">  1  5  2 -1</clus>
<clus scale="  104.040">  2  3  1 -1</clus>
</clustering>
</event>
<event>
 6    0  0.6525019E+002  0.7891476E+02  0.7546771E-02  0.1332160E+00
         21   -1    0    0  504  502  0.00000000000E+00  0.00000000000E+00  0.48915812861E+03  0.48915812861E+03  0.00000000000E+00 0.  1.
          1   -1    0    0  503    0 -0.00000000000E+00 -0.00000000000E+00 -0.10680516870E+04  0.10680516870E+04  0.00000000000E+00 0.  1.
         21    1    1    2  503  505  0.10264819082E+03  0.47804942167E+02 -0.32872259407E+03  0.34767874169E+03  0.00000000000E+00 0.  1.
         21    1    1    2  504  501 -0.12517460853E+03  0.88670830559E+01  0.40548699852E+03  0.42446085067E+03  0.00000000000E+00 0.  1.
         21    1    1    2  505  502  0.52083521945E+02 -0.29704453187E+02  0.50126925612E+02  0.78152136687E+02  0.00000000000E+00 0.  1.
          1    1    1    2  501    0 -0.29557104237E+02 -0.26967572036E+02 -0.70578488843E+03  0.70691808655E+03  0.00000000000E+00 0.  1.
<scales pt_clust_3="78.91476" pt_clust_4="14000.00000" pt_clust_5="59.49991" pt_clust_6="40.01090"></scales>
<clustering>
<clus scale="   40.011">  2  6  1 -1</clus>
<clus scale="   59.500">  1  5  2 -1</clus>
<clus scale="   78.915">  2  3  1 -1</clus>
<clus scale="   59.500">  1  3  2 -1</clus>
</clustering>
</event>
<event>
 6    0  0.6525019E+002  0.6025348E+02  0.7546771E-02  0.1396771E+00
         21   -1    0    0  505  502  0.00000000000E+00  0.00000000000E+00  0.13905344288E+03  0.13905344288E+03  0.00000000000E+00 0. -1.
          1   -1    0    0  504    0 -0.00000000000E+00 -0.00000000000E+00 -0.18714091198E+04  0.18714091198E+04  0.00000000000E+00 0. -1.
         21    1    1    2  503  501  0.30516043178E+02  0.66646715667E+02 -0.85393062706E+03  0.85707090106E+03  0.00000000000E+00 0. -1.
         21    1    1    2  504  502  0.42267003931E+02  0.28888719408E+02 -0.82231510685E+02  0.96866294860E+02  0.00000000000E+00 0.  1.
         21    1    1    2  505  503 -0.82538535285E+02 -0.39243361846E+02  0.11311585121E+03  0.14542299354E+03  0.00000000000E+00 0. -1.
          1    1    1    2  501    0  0.97554881761E+01 -0.56292073230E+02 -0.90930939042E+03  0.91110237327E+03  0.00000000000E+00 0. -1.
<scales pt_clust_3="14000.00000" pt_clust_4="51.19627" pt_clust_5="42.48386" pt_clust_6="60.25348"></scales>
<clustering>
<clus scale="   51.196">  1  4  2 -1</clus>
<clus scale="   42.484">  1  5  2 -1</clus>
<clus scale="   60.253">  2  6  1 -1</clus>
<clus scale="   51.196">  1  3  2 -1</clus>
</clustering>
</event>
<event>
 6    0  0.6525019E+002  0.1268530E+03  0.7546771E-02  0.1232201E+00
          2   -1    0    0  503    0 -0.00000000000E+00  0.00000000000E+00  0.31801452229E+04  0.31801452229E+04  0.00000000000E+00 0.  1.
         21   -1    0    0  505  502  0.00000000000E+00 -0.00000000000E+00 -0.15520513970E+03  0.15520513970E+03  0.00000000000E+00 0. -1.
         21    1    1    2  503  502 -0.21793908823E+02  0.23599835215E+02  0.16127323853E+01  0.32164072965E+02  0.00000000000E+00 0.  1.
         21    1    1    2  504  501  0.10018988789E+03  0.30038072793E+02  0.56433844380E+02  0.11884897242E+03  0.00000000000E+00 0. -1.
         21    1    1    2  505  504  0.54450291211E+01  0.43740325065E+02 -0.10285433909E+03  0.11190120396E+03  0.00000000000E+00 0. -1.
          2    1    1    2  501    0 -0.83841008192E+02 -0.97378233073E+02  0.30697478456E+04  0.30724361133E+04  0.00000000000E+00 0.  1.
<scales pt_clust_3="32.12362" pt_clust_4="14000.00000" pt_clust_5="62.87015" pt_clust_6="126.85297"></scales>
<clustering>
<clus scale="   32.124">  2  3  1 -1</clus>
<clus scale="   62.870">  2  5  1 -1</clus>
<clus scale="  126.853">  1  6  2 -1</clus>
<clus scale="   32.124">  2  3  1 -1</clus>
</clustering>
</event>
<event>
 6    0  0.6525019E+002  0.1076986E+03  0.7546771E-02  0.1264892E+00
          1   -1    0    0  505    0 -0.00000000000E+00  0.00000000000E+00  0.65034258715E+03  0.65034258715E+03  0.00000000000E+00 0.  1.
         21   -1    0    0  504  502  0.00000000000E+00 -0.00000000000E+00 -0.96127929182E+02  0.96127929182E+02  0.00000000000E+00 0.  1.
         21    1    1    2  503  501 -0.51734462717E+02 -0.66181641518E+02  0.19534078360E+03  0.21263698183E+03  0.00000000000E+00 0. -1.
         21    1    1    2  504  503 -0.72727527564E+01  0.66330573649E+02  0.98292720439E+01  0.67448146915E+02  0.00000000000E+00 0.  1.
         21    1    1    2  505  502  0.81197360286E+02  0.43270904850E+02 -0.19981023292E+02  0.94152131233E+02  0.00000000000E+00 0.  1.
          1    1    1    2  501    0 -0.22190144813E+02 -0.43419836981E+02  0.36902562562E+03  0.37223325635E+03  0.00000000000E+00 0.  1.
<scales pt_clust_3="14000.00000" pt_clust_4="61.21200" pt_clust_5="107.69862" pt_clust_6="48.76151"></scales>
<clustering>
<clus scale="   48.762">  1  6  2 -1</clus>
<clus scale="   61.212">  2  4  1 -1</clus>
<clus scale="  107.699">  2  5  1 -1</clus>
<clus scale="   61.212">  2  3  1 -1</clus>
</clustering>
</event>
<event>
 6    0  0.6525019E+002  0.1339561E+03  0.7546771E-02  0.1221701E+00
         -4   -1    0    0    0  501 -0.00000000000E+00  0.00000000000E+00  0.12860618029E+03  0.12860618029E+03  0.00000000000E+00 0. -1.
         21   -1    0    0  503  502  0.00000000000E+00 -0.00000000000E+00 -0.84399602043E+03  0.84399602043E+03  0.00000000000E+00 0.  1.
         21    1    1    2  503  504  0.28303213760E+02  0.20809298214E+02 -0.53261931617E+03  0.53377657757E+03  0.00000000000E+00 0.  1.
         21    1    1    2  504  501  0.41318445465E+02 -0.98181292822E+02 -0.41029091642E+02  0.11414975496E+03  0.00000000000E+00 0. -1.
         21    1    1    2  505  502 -0.10792163559E+03  0.11611504344E+03 -0.19307976783E+03  0.24981909352E+03  0.00000000000E+00 0. -1.
         -4    1    1    2    0  505  0.38299976361E+02 -0.38743048833E+02  0.51338335502E+02  0.74856774672E+02  0.00000000000E+00 0. -1.
<scales pt_clust_3="35.12974" pt_clust_4="133.95607" pt_clust_5="14000.00000" pt_clust_6="54.68729"></scales>
<clustering>
<clus scale="   35.130">  2  3  1 -1</clus>
<clus scale="   54.687">  1  6  2 -1</clus>
<clus scale="  133.956">  1  4  2 -1</clus>
<clus scale="   35.130">  2  3  1 -1</clus>
</clustering>
</event>
<event>
 6    0  0.6525019E+002  0.9719798E+02  0.7546771E-02  0.1286301E+00
          1   -1    0    0  505    0 -0.00000000000E+00  0.00000000000E+00  0.34464539364E+03  0.34464539364E+03  0.00000000000E+00 0. -1.
         21   -1    0    0  503  502  0.00000000000E+00 -0.00000000000E+00 -0.76254729428E+03  0.76254729428E+03  0.00000000000E+00 0.  1.
         21    1    1    2  503  501 -0.44766136511E+02  0.37684348568E+02  0.17504035599E+03  0.18456230203E+03  0.00000000000E+00 0.  1.
         21    1    1    2  504  502  0.86218104671E+01  0.95051401465E+02 -0.52061321636E+03  0.52928935903E+03  0.00000000000E+00 0.  1.
         21    1    1    2  505  504  0.44419146410E+02 -0.10363707845E+03 -0.21753305092E+03  0.24501904587E+03  0.00000000000E+00 0.  1.
          1    1    1    2  501    0 -0.82748203660E+01 -0.29098671579E+02  0.14520401064E+03  0.14832198100E+03  0.00000000000E+00 0. -1.
<scales pt_clust_3="53.48033" pt_clust_4="97.19798" pt_clust_5="14000.00000" pt_clust_6="30.25236"></scales>
<clustering>
<clus scale="   30.252">  1  6  2 -1</clus>
<clus scale="   53.480">  1  3  2 -1</clus>
<clus scale="   97.198">  2  4  1 -1</clus>
<clus scale="   97.198">  2  3  1 -1</clus>
</clustering>
</event>
<event>
 6    0  0.6525019E+002  0.7687207E+02  0.7546771E-02  0.1338170E+00
         -3   -1    0    0    0  501 -0.00000000000E+00  0.00000000000E+00  0.19197329291E+03  0.19197329291E+03  0.00000000000E+00 0.  1.
         21   -1    0    0  504  502  0.00000000000E+00 -0.00000000000E+00 -0.44848334853E+03  0.44848334853E+03  0.00000000000E+00 0.  1.
         21    1    1    2  503  502 -0.27822801056E+02  0.54558969185E+02 -0.53205839861E+02  0.81127373755E+02  0.00000000000E+00 0.  1.
         21    1    1    2  504  505  0.34179246073E+02  0.82198661906E+01 -0.33336353846E+03  0.33521192676E+03  0.00000000000E+00 0.  1.
         21    1    1    2  505  501  0.69705928292E+02 -0.25442927462E+02  0.67611659534E+01  0.74511558579E+02  0.00000000000E+00 0.  1.
         -3    1    1    2    0  503 -0.76062373309E+02 -0.37335907914E+02  0.12329815675E+03  0.14960578234E+03  0.00000000000E+00 0.  1.
<scales pt_clust_3="59.89322" pt_clust_4="35.15376" pt_clust_5="76.87207" pt_clust_6="14000.00000"></scales>
<clustering>
<clus scale="   35.154">  2  4  1 -1</clus>
<clus scale="   59.893">  2  3  1 -1</clus>
<clus scale="   76.872">  2  5  1 -1</clus>
<clus scale="   35.154">  2  3  1 -1</clus>
</clustering>
</event>
<event>
 6    0  0.6525019E+002  0.6939259E+02  0.7546771E-02  0.1362171E+00
          3   -1    0    0  503    0 -0.00000000000E+00  0.00000000000E+00  0.86748912001E+03  0.86748912001E+03  0.00000000000E+00 0. -1.
         21   -1    0    0  504  502  0.00000000000E+00 -0.00000000000E+00 -0.34406859618E+02  0.34406859618E+02  0.00000000000E+00 0. -1.
         21    1    1    2  503  505  0.37691525750E+02 -0.30897414140E+02  0.15544563512E+03  0.16290686539E+03  0.00000000000E+00 0. -1.
         21    1    1    2  504  501 -0.84141275387E+02  0.10352498758E+03  0.37211351131E+03  0.39530449349E+03  0.00000000000E+00 0. -1.
         21    1    1    2  505  502  0.57851507882E+02 -0.21843511995E+02  0.41247297742E+02  0.74332197273E+02  0.00000000000E+00 0. -1.
          3    1    1    2  501    0 -0.11401758245E+02 -0.50784061450E+02  0.26427581622E+03  0.26935242347E+03  0.00000000000E+00 0. -1.
<scales pt_clust_3="48.73706" pt_clust_4="14000.00000" pt_clust_5="69.39259" pt_clust_6="62.48540"></scales>
<clustering>
<clus scale="   48.737">  1  3  2 -1</clus>
<clus scale="   62.485">  1  6  2 -1</clus>
<clus scale="   69.393">  2  5  1 -1</clus>
<clus scale="   69.393">  2  3  1 -1</clus>
</clustering>
</event>
<event>
 6    0  0.6525019E+002  0.7182972E+02  0.7546771E-02  0.1353979E+00
         -4   -1    0    0    0  501 -0.00000000000E+00  0.00000000000E+00  0.82650321285E+03  0.82650321285E+03  0.00000000000E+00 0.  1.
         21   -1    0    0  505  502  0.00000000000E+00 -0.00000000000E+00 -0.12010280473E+04  0.12010280473E+04  0.00000000000E+00 0. -1.
         21    1    1    2  503  501  0.27276844887E+02 -0.81054674123E+02  0.14464820640E+03  0.16803865650E+03  0.00000000000E+00 0. -1.
         21    1    1    2  504  502 -0.20466866070E+02  0.10030052799E+03 -0.13670588660E+02  0.10327620014E+03  0.00000000000E+00 0. -1.
         21    1    1    2  505  503  0.23886399704E+02 -0.66958940361E+02 -0.11284517543E+04  0.11306889146E+04  0.00000000000E+00 0. -1.
         -4    1    1    2    0  504 -0.30696378521E+02  0.47713086498E+02  0.62294930216E+03  0.62552748887E+03  0.00000000000E+00 0.  1.
<scales pt_clust_3="44.31656" pt_clust_4="71.82972" pt_clust_5="14000.00000" pt_clust_6="56.73452"></scales>
<clustering>
<clus scale="   56.735">  1  6  2 -1</clus>
<clus scale="   44.317">  1  3  2 -1</clus>
<clus scale="   71.830">  1  4  2 -1</clus>
<clus scale="   71.830">  2  3  1 -1</clus>
</clustering>
</event>
<event>
 6    0  0.6525019E+002  0.1776358E+03  0.7546771E-02  0.1170111E+00
         -1   -1    0    0    0  501 -0.00000000000E+00  0.00000000000E+00  0.13210365397E+03  0.13210365397E+03  0.00000000000E+00 0.  1.
         21   -1    0    0  505  502  0.00000000000E+00 -0.00000000000E+00 -0.70929037369E+03  0.70929037369E+03  0.00000000000E+00 0. -1.
         21    1    1    2  503  502  0.11064518881E+03  0.10401023811E+03 -0.29618589253E+03  0.33284616622E+03  0.00000000000E+00 0. -1.
         21    1    1    2  504  501 -0.10083558930E+03 -0.11319142013E+03 -0.25169104490E+03  0.29381711275E+03  0.00000000000E+00 0. -1.
         21    1    1    2  505  504 -0.29227068176E-01 -0.43663159075E+02 -0.10967797397E+03  0.11804969415E+03  0.00000000000E+00 0. -1.
         -1    1    1    2    0  503 -0.97803724372E+01  0.52844341095E+02  0.80368191682E+02  0.96681054530E+02  0.00000000000E+00 0.  1.
<scales pt_clust_3="165.18127" pt_clust_4="35.06829" pt_clust_5="35.06829" pt_clust_6="53.74179"></scales>
<clustering>
<clus scale="   35.068">  4  5 -1 -1</clus>
<clus scale="   53.742">  1  6  2 -1</clus>
<clus scale="  165.181">  2  3  1 -1</clus>
<clus scale="  165.181">  2  3  1 -1</clus>
</clustering>
</event>
<event>
 6    0  0.6525019E+002  0.7217126E+02  0.7546771E-02  0.1352861E+00
          1   -1    0    0  505    0 -0.00000000000E+00  0.00000000000E+00  0.47984364254E+03  0.47984364254E+03  0.00000000000E+00 0. -1.
         21   -1    0    0  503  502  0.00000000000E+00 -0.00000000000E+00 -0.99806211969E+02  0.99806211969E+02  0.00000000000E+00 0. -1.
         21    1    1    2  503  501 -0.68834613481E+02  0.11276871192E+02  0.10118716515E+03  0.12289920353E+03  0.00000000000E+00 0. -1.
         21    1    1    2  504  502  0.33299775819E+02  0.35859561393E+02 -0.47265310507E+02  0.68035231977E+02  0.00000000000E+00 0. -1.
         21    1    1    2  505  504  0.17737440868E+02 -0.10310989393E+03  0.69834456079E+02  0.12578997691E+03  0.00000000000E+00 0. -1.
          1    1    1    2  501    0  0.17797396794E+02  0.55973461350E+02  0.25628111985E+03  0.26292544209E+03  0.00000000000E+00 0. -1.
<scales pt_clust_3="72.17126" pt_clust_4="48.93652" pt_clust_5="14000.00000" pt_clust_6="62.24481"></scales>
<clustering>
<clus scale="   48.937">  2  4  1 -1</clus>
<clus scale="   62.245">  1  6  2 -1</clus>
<clus scale="   72.171">  1  3  2 -1</clus>
<clus scale="   48.937">  2  3  1 -1</clus>
</clustering>
</event>
<event>
 6    0  0.6525019E+002  0.8148635E+02  0.7546771E-02  0.1324886E+00
          1   -1    0    0  503    0 -0.00000000000E+00  0.00000000000E+00  0.31592425163E+04  0.31592425163E+04  0.00000000000E+00 0. -1.
         21   -1    0    0  504  502  0.00000000000E+00 -0.00000000000E+00 -0.10005235371E+03  0.10005235371E+03  0.00000000000E+00 0. -1.
         21    1    1    2  503  505 -0.76270655569E+02 -0.79711360423E+02  0.95383342462E+03  0.96019233271E+03  0.00000000000E+00 0.  1.
         21    1    1    2  504  501  0.86339573052E+02  0.46111016147E+02  0.14133133147E+03  0.17191652899E+03  0.00000000000E+00 0.  1.
         21    1    1    2  505  502 -0.36895116777E+02  0.93666419155E+01 -0.76971140550E+02  0.85869319901E+02  0.00000000000E+00 0. -1.
          1    1    1    2  501    0  0.26826199294E+02  0.24233702361E+02  0.20409965470E+04  0.20413166884E+04  0.00000000000E+00 0. -1.
<scales pt_clust_3="81.48635" pt_clust_4="14000.00000" pt_clust_5="37.98597" pt_clust_6="36.15131"></scales>
<clustering>
<clus scale="   36.151">  1  6  2 -1</clus>
<clus scale="   37.986">  2  5  1 -1</clus>
<clus scale="   81.486">  1  3  2 -1</clus>
<clus scale="   37.986">  2  3  1 -1</clus>
</clustering>
</event>
<event>
 6    0  0.6525019E+002  0.1527998E+03  0.7546771E-02  0.1197074E+00
         21   -1    0    0  504  502  0.00000000000E+00  0.00000000000E+00  0.27536802096E+03  0.27536802096E+03  0.00000000000E+00 0. -1.
         -1   -1    0    0    0  501 -0.00000000000E+00 -0.00000000000E+00 -0.11225619372E+04  0.11225619372E+04  0.00000000000E+00 0. -1.
         21    1    1    2  503  505  0.45365609973E+02  0.10971695140E+03  0.11967982159E+03  0.16857967756E+03  0.00000000000E+00 0. -1.
         21    1    1    2  504  501 -0.64725610552E+02 -0.56251513379E+01 -0.96533130724E+02  0.11636018355E+03  0.00000000000E+00 0. -1.
         21    1    1    2  505  502  0.71712242712E+02 -0.94069118621E+00  0.10700862487E+03  0.12881916181E+03  0.00000000000E+00 0. -1.
         -1    1    1    2    0  503 -0.52352242133E+02 -0.10315110887E+03 -0.97734923198E+03  0.98417093524E+03  0.00000000000E+00 0. -1.
<scales pt_clust_3="14000.00000" pt_clust_4="64.96959" pt_clust_5="71.02464" pt_clust_6="152.79978"></scales>
<clustering>
<clus scale="   64.970">  2  4  1 -1</clus>
<clus scale="   71.025">  1  5  2 -1</clus>
<clus scale="  152.800">  2  6  1 -1</clus>
<clus scale="   71.025">  1  3  2 -1</clus>
</clustering>
</event>
<event>
 6    0  0.6525019E+002  0.1147022E+03  0.7546771E-02  0.1252102E+00
          2   -1    0    0  505    0 -0.00000000000E+00  0.00000000000E+00  0.24793455274E+04  0.24793455274E+04  0.00000000000E+00 0.  1.
         21   -1    0    0  503  502  0.00000000000E+00 -0.00000000000E+00 -0.20857946813E+03  0.20857946813E+03  0.00000000000E+00 0. -1.
         21    1    1    2  503  501  0.78669390104E+02  0.85885596613E+02 -0.13378277830E+03  0.17737824110E+03  0.00000000000E+00 0. -1.
         21    1    1    2  504  502 -0.37718280368E+02 -0.11051110323E+03  0.14421832829E+02  0.11765781688E+03  0.00000000000E+00 0.  1.
         21    1    1    2  505  504 -0.53821864490E+02 -0.12694294747E+02  0.66029581461E+03  0.66260735056E+03  0.00000000000E+00 0. -1.
          2    1    1    2  501    0  0.12870754754E+02  0.37319801366E+02  0.17298311901E+04  0.17302815870E+04  0.00000000000E+00 0.  1.
<scales pt_clust_3="14000.00000" pt_clust_4="114.70218" pt_clust_5="47.04180" pt_clust_6="39.47688"></scales>
<clustering>
<clus scale="   39.477">  1  6  2 -1</clus>
<clus scale="   47.042">  1  5  2 -1</clus>
<clus scale="  114.702">  1  4  2 -1</clus>
<clus scale="  114.702">  2  3  1 -1</clus>
</clustering>
</event>
<event>
 6    0  0.6525019E+002  0.9947004E+02  0.7546771E-02  0.1281414E+00
         21   -1    0    0  504  502  0.00000000000E+00  0.00000000000E+00  0.32569990539E+03  0.32569990539E+03  0.00000000000E+00 0. -1.
          2   -1    0    0  505    0 -0.00000000000E+00 -0.00000000000E+00 -0.21651851879E+03  0.21651851879E+03  0.00000000000E+00 0.  1.
         21    1    1    2  503  502  0.42209073240E+02  0.26800319598E+02  0.46780609090E+02  0.68471076969E+02  0.00000000000E+00 0. -1.
         21    1    1    2  504  501 -0.58734935830E+02  0.52519158361E+02  0.20630932772E+03  0.22084291563E+03  0.00000000000E+00 0. -1.
         21    1    1    2  505  503 -0.62888808913E+02 -0.17049422963E+02  0.12904993952E+02  0.66424573606E+02  0.00000000000E+00 0. -1.
          2    1    1    2  501    0  0.79414671503E+02 -0.62270054997E+02 -0.15681354416E+03  0.18647985797E+03  0.00000000000E+00 0.  1.
<scales pt_clust_3="49.99863" pt_clust_4="99.47004" pt_clust_5="58.13496" pt_clust_6="14000.00000"></scales>
<clustering>
<clus scale="   49.999">  1  3  2 -1</clus>
<clus scale="   58.135">  1  5  2 -1</clus>
<clus scale="   99.470">  1  4  2 -1</clus>
<clus scale="   49.999">  1  3  2 -1</clus>
</clustering>
</event>
<event>
 6    0  0.6525019E+002  0.1044506E+03  0.7546771E-02  0.1271206E+00
         21   -1    0    0  501  502  0.00000000000E+00  0.00000000000E+00  0.26821886798E+03  0.26821886798E+03  0.00000000000E+00 0.  1.
          1   -1    0    0  503    0 -0.00000000000E+00 -0.00000000000E+00 -0.18650962437E+04  0.18650962437E+04  0.00000000000E+00 0. -1.
         21    1    1    2  503  505 -0.77843782543E+02 -0.27882619492E+02  0.21746362697E+02  0.85498533560E+02  0.00000000000E+00 0. -1.
         21    1    1    2  504  502  0.37761150540E+02  0.27846733861E+02  0.92488675233E+02  0.10370872732E+03  0.00000000000E+00 0.  1.
         21    1    1    2  505  504  0.14566818176E+02  0.68422460245E+02  0.10519621331E+03  0.12633316490E+03  0.00000000000E+00 0.  1.
          1    1    1    2  501    0  0.25515813826E+02 -0.68386574614E+02 -0.18163086269E+04  0.18177746859E+04  0.00000000000E+00 0. -1.
<scales pt_clust_3="95.26781" pt_clust_4="35.07176" pt_clust_5="35.07176" pt_clust_6="72.99165"></scales>
<clustering>
<clus scale="   35.072">  4  5 -1 -1</clus>
<clus scale="   72.992">  2  6  1 -1</clus>
<clus scale="   95.268">  2  3  1 -1</clus>
<clus scale="  104.451">  1  3  2 -1</clus>
</clustering>
</event>
<event>
 6    0  0.6525019E+002  0.1839206E+03  0.7546771E-02  0.1164062E+00
         21   -1    0    0  501  502  0.00000000000E+00  0.00000000000E+00  0.15364517533E+03  0.15364517533E+03  0.00000000000E+00 0.  1.
          2   -1    0    0  503    0 -0.00000000000E+00 -0.00000000000E+00 -0.19457979400E+04  0.19457979400E+04  0.00000000000E+00 0.  1.
         21    1    1    2  503  505 -0.11151407493E+03 -0.84254831847E+02 -0.45297094676E+03  0.47404318812E+03  0.00000000000E+00 0.  1.
         21    1    1    2  504  502  0.27383537342E+02  0.16632276870E+02  0.75618385533E+02  0.82125702322E+02  0.00000000000E+00 0.  1.
         21    1    1    2  505  504  0.18095933586E+03  0.28645965611E+02 -0.72681394407E+02  0.19710265771E+03  0.00000000000E+00 0.  1.
          2    1    1    2  501    0 -0.96828798276E+02  0.38976589366E+02 -0.13421188090E+04  0.13461715672E+04  0.00000000000E+00 0.  1.
<scales pt_clust_3="183.92061" pt_clust_4="32.03889" pt_clust_5="14000.00000" pt_clust_6="103.86129"></scales>
<clustering>
<clus scale="   32.039">  1  4  2 -1</clus>
<clus scale="  103.861">  2  6  1 -1</clus>
<clus scale="  183.921">  2  3  1 -1</clus>
<clus scale="   32.039">  1  3  2 -1</clus>
</clustering>
</event>
<event>
 6    0  0.6525019E+002  0.1108532E+03  0.7546771E-02  0.1258998E+00
         21   -1    0    0  504  502  0.00000000000E+00  0.00000000000E+00  0.37233089091E+03  0.37233089091E+03  0.00000000000E+00 0.  1.
          2   -1    0    0  505    0 -0.00000000000E+00 -0.00000000000E+00 -0.26780511543E+04  0.26780511543E+04  0.00000000000E+00 0.  1.
         21    1    1    2  503  502  0.33856653211E+02 -0.49267608043E+01  0.33492910188E+03  0.33667202026E+03  0.00000000000E+00 0.  1.
         21    1    1    2  504  501 -0.14465135192E+03 -0.25054956923E+02 -0.14144268190E+03  0.20385729504E+03  0.00000000000E+00 0. -1.
         21    1    1    2  505  503  0.77348286571E+02  0.25359357533E+02 -0.31381102672E+03  0.32419625991E+03  0.00000000000E+00 0. -1.
          2    1    1    2  501    0  0.33446412140E+02  0.46223601934E+01 -0.21853956566E+04  0.21856564700E+04  0.00000000000E+00 0.  1.
<scales pt_clust_3="34.27063" pt_clust_4="110.85319" pt_clust_5="14000.00000" pt_clust_6="33.76431"></scales>
<clustering>
<clus scale="   33.764">  2  6  1 -1</clus>
<clus scale="   34.271">  1  3  2 -1</clus>
<clus scale="  110.853">  1  4  2 -1</clus>
<clus scale="   34.271">  1  3  2 -1</clus>
</clustering>
</event>
<event>
 6    0  0.6525019E+002  0.1160169E+03  0.7546771E-02  0.1249816E+00
          2   -1    0    0  504    0 -0.00000000000E+00  0.00000000000E+00  0.81190255685E+03  0.81190255685E+03  0.00000000000E+00 0.  1.
         21   -1    0    0  501  502  0.00000000000E+00 -0.00000000000E+00 -0.42849983827E+02  0.42849983827E+02  0.00000000000E+00 0.  1.
         21    1    1    2  503  502  0.18566544395E+02  0.25774682809E+02  0.30035626469E+01  0.31907244213E+02  0.00000000000E+00 0.  1.
         21    1    1    2  504  505  0.32946669625E+02 -0.10377288007E+03  0.18403602522E+03  0.21383066257E+03  0.00000000000E+00 0.  1.
         21    1    1    2  505  503  0.45227275153E+02 -0.28791541181E+01  0.85825006251E+02  0.97055281382E+02  0.00000000000E+00 0.  1.
          2    1    1    2  501    0 -0.96740489173E+02  0.80877351379E+02  0.49618797891E+03  0.51195935251E+03  0.00000000000E+00 0.  1.
<scales pt_clust_3="31.76556" pt_clust_4="116.01690" pt_clust_5="48.94866" pt_clust_6="14000.00000"></scales>
<clustering>
<clus scale="   31.766">  2  3  1 -1</clus>
<clus scale="   48.949">  2  5  1 -1</clus>
<clus scale="  116.017">  2  4  1 -1</clus>
<clus scale="   31.766">  2  3  1 -1</clus>
</clustering>
</event>
<event>
 6    0  0.6525019E+002  0.8231200E+02  0.7546771E-02  0.1322615E+00
         21   -1    0    0  504  502  0.00000000000E+00  0.00000000000E+00  0.20059660942E+04  0.20059660942E+04  0.00000000000E+00 0.  1.
          1   -1    0    0  505    0 -0.00000000000E+00 -0.00000000000E+00 -0.74933307690E+03  0.74933307690E+03  0.00000000000E+00 0. -1.
         21    1    1    2  503  501 -0.33020693031E+02  0.81206949833E+02  0.19510967648E+03  0.21389885630E+03  0.00000000000E+00 0.  1.
         21    1    1    2  504  503  0.24848267820E+02 -0.99956680994E+02  0.17593577987E+04  0.17623701763E+04  0.00000000000E+00 0.  1.
         21    1    1    2  505  502 -0.41040326886E+02  0.25429478727E+02  0.25084182774E+02  0.54407564223E+02  0.00000000000E+00 0.  1.
          1    1    1    2  501    0  0.49212752097E+02 -0.66797475656E+01 -0.72291864070E+03  0.72462257422E+03  0.00000000000E+00 0. -1.
<scales pt_clust_3="14000.00000" pt_clust_4="82.31200" pt_clust_5="48.28009" pt_clust_6="49.64491"></scales>
<clustering>
<clus scale="   48.280">  1  5  2 -1</clus>
<clus scale="   49.645">  2  6  1 -1</clus>
<clus scale="   82.312">  1  4  2 -1</clus>
<clus scale="   48.280">  1  3  2 -1</clus>
</clustering>
</event>
<event>
 6    0  0.6525019E+002  0.8629032E+02  0.7546771E-02  0.1312092E+00
         21   -1    0    0  504  502  0.00000000000E+00  0.00000000000E+00  0.55670508776E+03  0.55670508776E+03  0.00000000000E+00 0. -1.
         -3   -1    0    0    0  501 -0.00000000000E+00 -0.00000000000E+00 -0.30496706465E+03  0.30496706465E+03  0.00000000000E+00 0.  1.
         21    1    1    2  503  502  0.37253518395E+02  0.17035545321E+01  0.38344370349E+03  0.38525290457E+03  0.00000000000E+00 0. -1.
         21    1    1    2  504  501 -0.51355835140E+02 -0.11305564911E+02 -0.42306998228E+02  0.67491626888E+02  0.00000000000E+00 0.  1.
         21    1    1    2  505  503  0.13951273810E+00 -0.81787645468E+02  0.13969886465E+03  0.16187961947E+03  0.00000000000E+00 0. -1.
         -3    1    1    2    0  505  0.13962804007E+02  0.91389655847E+02 -0.22909754680E+03  0.24704800149E+03  0.00000000000E+00 0.  1.
<scales pt_clust_3="37.29245" pt_clust_4="49.90284" pt_clust_5="86.29032" pt_clust_6="14000.00000"></scales>
<clustering>
<clus scale="   37.292">  1  3  2 -1</clus>
<clus scale="   49.903">  2  4  1 -1</clus>
<clus scale="   86.290">  1  5  2 -1</clus>
<clus scale="   37.292">  1  3  2 -1</clus>
</clustering>
</event>
<event>
 6    0  0.6525019E+002  0.1154968E+03  0.7546771E-02  0.1250716E+00
         21   -1    0    0  503  502  0.00000000000E+00  0.00000000000E+00  0.22803508186E+04  0.22803508186E+04  0.00000000000E+00 0. -1.
          4   -1    0    0  502    0 -0.00000000000E+00 -0.00000000000E+00 -0.24072030178E+02  0.24072030178E+02  0.00000000000E+00 0. -1.
         21    1    1    2  503  505  0.25708598494E+02 -0.37339734809E+02  0.10693874139E+04  0.10703479008E+04  0.00000000000E+00 0. -1.
         21    1    1    2  504  501 -0.36467264605E+02 -0.60905223064E+02  0.71998498537E+03  0.72347611346E+03  0.00000000000E+00 0. -1.
         21    1    1    2  505  504 -0.33023602154E+02 -0.62372919946E+00  0.34922662630E+03  0.35078509640E+03  0.00000000000E+00 0.  1.
          4    1    1    2  501    0  0.43782268265E+02  0.98868687072E+02  0.11767976289E+03  0.15981373812E+03  0.00000000000E+00 0. -1.
<scales pt_clust_3="45.33418" pt_clust_4="32.05861" pt_clust_5="32.05861" pt_clust_6="105.50183"></scales>
<clustering>
<clus scale="   32.059">  4  5 -1 -1</clus>
<clus scale="   45.334">  1  3  2 -1</clus>
<clus scale="  105.502">  2  6  1 -1</clus>
<clus scale="   45.334">  1  3  2 -1</clus>
</clustering>
</event>
<event>
 6    0  0.6525019E+002  0.8957600E+02  0.7546771E-02  0.1303882E+00
          1   -1    0    0  504    0 -0.00000000000E+00  0.00000000000E+00  0.31379561459E+04  0.31379561459E+04  0.00000000000E+00 0. -1.
         21   -1    0    0  505  502  0.00000000000E+00 -0.00000000000E+00 -0.54300386752E+03  0.54300386752E+03  0.00000000000E+00 0.  1.
         21    1    1    2  503  501 -0.10335882388E+03 -0.45013734592E+02  0.95041484710E+02  0.14745225190E+03  0.00000000000E+00 0.  1.
         21    1    1    2  504  502 -0.30337831897E+02 -0.76427476707E+02 -0.35754709743E+03  0.36688073011E+03  0.00000000000E+00 0.  1.
         21    1    1    2  505  503  0.92205728909E+02  0.42021416053E+02 -0.13723684938E+03  0.17059205338E+03  0.00000000000E+00 0.  1.
          1    1    1    2  501    0  0.41490926869E+02  0.79419795246E+02  0.29946947405E+04  0.29960349781E+04  0.00000000000E+00 0. -1.
<scales pt_clust_3="14000.00000" pt_clust_4="82.22860" pt_clust_5="70.26427" pt_clust_6="89.57600"></scales>
<clustering>
<clus scale="   82.229">  2  4  1 -1</clus>
<clus scale="   70.264">  2  5  1 -1</clus>
<clus scale="   89.576">  1  6  2 -1</clus>
<clus scale="   82.229">  2  3  1 -1</clus>
</clustering>
</event>
<event>
 6    0  0.6525019E+002  0.8001106E+02  0.7546771E-02  0.1329020E+00
          2   -1    0    0  503    0 -0.00000000000E+00  0.00000000000E+00  0.21258694467E+03  0.21258694467E+03  0.00000000000E+00 0.  1.
         21   -1    0    0  505  502  0.00000000000E+00 -0.00000000000E+00 -0.88990669399E+03  0.88990669399E+03  0.00000000000E+00 0. -1.
         21    1    1    2  503  502 -0.87258466400E+02 -0.10913962156E+01  0.13804436552E+02  0.88350402222E+02  0.00000000000E+00 0.  1.
         21    1    1    2  504  501  0.28850258532E+02 -0.75448338919E+02 -0.18196028031E+03  0.19908373332E+03  0.00000000000E+00 0.  1.
         21    1    1    2  505  504  0.47190993251E+02  0.33514254489E+02 -0.65758187422E+03  0.66012431890E+03  0.00000000000E+00 0. -1.
          2    1    1    2  501    0  0.11217214618E+02  0.43025480645E+02  0.14841796866E+03  0.15493518422E+03  0.00000000000E+00 0.  1.
<scales pt_clust_3="14000.00000" pt_clust_4="80.01106" pt_clust_5="58.59471" pt_clust_6="44.46367"></scales>
<clustering>
<clus scale="   44.464">  1  6  2 -1</clus>
<clus scale="   58.595">  2  5  1 -1</clus>
<clus scale="   80.011">  2  4  1 -1</clus>
<clus scale="   58.595">  2  3  1 -1</clus>
</clustering>
</event>
<event>
 6    0  0.6525019E+002  0.7505626E+02  0.7546771E-02  0.1343697E+00
          3   -1    0    0  505    0 -0.00000000000E+00  0.00000000000E+00  0.91920596409E+03  0.91920596409E+03  0.00000000000E+00 0.  1.
         21   -1    0    0  503  502  0.00000000000E+00 -0.00000000000E+00 -0.16172573396E+03  0.16172573396E+03  0.00000000000E+00 0. -1.
         21    1    1    2  503  501  0.79499735827E+01  0.56554597418E+02 -0.88076373052E+02  0.10497176791E+03  0.00000000000E+00 0. -1.
         21    1    1    2  504  502  0.58196721438E+02 -0.13411176182E+02 -0.44261620157E+02  0.74335785808E+02  0.00000000000E+00 0. -1.
         21    1    1    2  505  504  0.16208796012E+02 -0.53629649580E+02  0.23615053840E+03  0.24270546176E+03  0.00000000000E+00 0. -1.
          3    1    1    2  501    0 -0.82355491032E+02  0.10486228344E+02  0.65366768494E+03  0.65891868256E+03  0.00000000000E+00 0.  1.
<scales pt_clust_3="56.47946" pt_clust_4="75.05626" pt_clust_5="56.02557" pt_clust_6="14000.00000"></scales>
<clustering>
<clus scale="   56.026">  1  5  2 -1</clus>
<clus scale="   56.479">  2  3  1 -1</clus>
<clus scale="   75.056">  2  4  1 -1</clus>
<clus scale="   56.479">  2  3  1 -1</clus>
</clustering>
</event>
<event>
 6    0  0.6525019E+002  0.8677489E+02  0.7546771E-02  0.1310855E+00
         -3   -1    0    0    0  501 -0.00000000000E+00  0.00000000000E+00  0.14119448509E+04  0.14119448509E+04  0.00000000000E+00 0.  1.
         21   -1    0    0  503  502  0.00000000000E+00 -0.00000000000E+00 -0.20691818101E+03  0.20691818101E+03  0.00000000000E+00 0.  1.
         21    1    1    2  503  501  0.10466408683E+02 -0.28365826116E+02  0.11421251716E+01  0.30256738950E+02  0.00000000000E+00 0.  1.
         21    1    1    2  504  502 -0.69111835452E+02 -0.21310412562E+02 -0.90638974188E+02  0.11595690202E+03  0.00000000000E+00 0.  1.
         21    1    1    2  505  504  0.84838453103E+02  0.74459888469E+02 -0.52958217093E+02  0.12468524722E+03  0.00000000000E+00 0.  1.
         -3    1    1    2    0  505 -0.26193026333E+02 -0.24783649791E+02  0.13474817360E+04  0.13479641437E+04  0.00000000000E+00 0.  1.
<scales pt_clust_3="30.23517" pt_clust_4="86.77489" pt_clust_5="14000.00000" pt_clust_6="36.07466"></scales>
<clustering>
<clus scale="   30.235">  2  3  1 -1</clus>
<clus scale="   36.075">  1  6  2 -1</clus>
<clus scale="   86.775">  2  4  1 -1</clus>
<clus scale="   30.235">  2  3  1 -1</clus>
</clustering>
</event>
<event>
 6    0  0.6525019E+002  0.6824572E+02  0.7546771E-02  0.1366162E+00
         21   -1    0    0  505  502  0.00000000000E+00  0.00000000000E+00  0.11804794752E+03  0.11804794752E+03  0.00000000000E+00 0. -1.
          2   -1    0    0  504    0 -0.00000000000E+00 -0.00000000000E+00 -0.16490595711E+04  0.16490595711E+04  0.00000000000E+00 0. -1.
         21    1    1    2  503  502  0.78208685820E+01  0.46161812175E+02 -0.26478365600E+02  0.53788314099E+02  0.00000000000E+00 0.  1.
         21    1    1    2  504  503 -0.10157268294E+03 -0.60139594613E+01 -0.11916621359E+04  0.11959982541E+04  0.00000000000E+00 0. -1.
         21    1    1    2  505  501  0.58205220728E+02 -0.56369144576E+02  0.85060279321E+02  0.11747586688E+03  0.00000000000E+00 0. -1.
          2    1    1    2  501    0  0.35546593626E+02  0.16221291862E+02 -0.39793140136E+03  0.39984508352E+03  0.00000000000E+00 0. -1.
<scales pt_clust_3="47.53502" pt_clust_4="14000.00000" pt_clust_5="68.24572" pt_clust_6="39.07289"></scales>
<clustering>
<clus scale="   39.073">  2  6  1 -1</clus>
<clus scale="   47.535">  1  3  2 -1</clus>
<clus scale="   68.246">  1  5  2 -1</clus>
<clus scale="   47.535">  1  3  2 -1</clus>
</clustering>
</event>
<event>
 6    0  0.6525019E+002  0.1151579E+03  0.7546771E-02  0.1251306E+00
          2   -1    0    0  503    0 -0.00000000000E+00  0.00000000000E+00  0.17190899402E+04  0.17190899402E+04  0.00000000000E+00 0.  1.
         21   -1    0    0  504  502  0.00000000000E+00 -0.00000000000E+00 -0.87337976642E+02  0.87337976642E+02  0.00000000000E+00 0.  1.
         21    1    1    2  503  505  0.10438833595E+03  0.21319989555E+01  0.22940779497E+03  0.25205040467E+03  0.00000000000E+00 0.  1.
         21    1    1    2  504  501 -0.11569480325E+03 -0.80686251833E+01  0.12201305843E+03  0.16833768633E+03  0.00000000000E+00 0.  1.
         21    1    1    2  505  502 -0.27334820259E+02 -0.20775226113E+02 -0.46818914169E+02  0.58058704280E+02  0.00000000000E+00 0.  1.
          2    1    1    2  501    0  0.38641287562E+02  0.26711852341E+02  0.13271500243E+04  0.13279811215E+04  0.00000000000E+00 0.  1.
<scales pt_clust_3="115.15792" pt_clust_4="14000.00000" pt_clust_5="34.33369" pt_clust_6="46.56683"></scales>
<clustering>
<clus scale="   34.334">  2  5  1 -1</clus>
<clus scale="   46.567">  1  6  2 -1</clus>
<clus scale="  115.158">  1  3  2 -1</clus>
<clus scale="   34.334">  2  3  1 -1</clus>
</clustering>
</event>
<event>
 6    0  0.6525019E+002  0.1298611E+03  0.7546771E-02  0.1227662E+00
         21   -1    0    0  503  502  0.00000000000E+00  0.00000000000E+00  0.41267169916E+03  0.41267169916E+03  0.00000000000E+00 0.  1.
         -2   -1    0    0    0  501 -0.00000000000E+00 -0.00000000000E+00 -0.64557301333E+03  0.64557301333E+03  0.00000000000E+00 0. -1.
         21    1    1    2  503  501  0.24899464609E+02 -0.40732165095E+02  0.94709495930E+01  0.48670232148E+02  0.00000000000E+00 0.  1.
         21    1    1    2  504  502  0.11686757812E+03 -0.54279197623E+02  0.32319520490E+03  0.34793591735E+03  0.00000000000E+00 0.  1.
         21    1    1    2  505  504 -0.11987560593E+03  0.69498064697E+02 -0.53602598715E+02  0.14857112937E+03  0.00000000000E+00 0.  1.
         -2    1    1    2    0  505 -0.21891436799E+02  0.25513298021E+02 -0.51196486995E+03  0.51306743362E+03  0.00000000000E+00 0. -1.
<scales pt_clust_3="42.85875" pt_clust_4="129.86114" pt_clust_5="14000.00000" pt_clust_6="33.61790"></scales>
<clustering>
<clus scale="   33.618">  2  6  1 -1</clus>
<clus scale="   42.859">  2  3  1 -1</clus>
<clus scale="  129.861">  1  4  2 -1</clus>
<clus scale="  129.861">  1  3  2 -1</clus>
</clustering>
</event>
<event>
 6    0  0.6525019E+002  0.7158671E+02  0.7546771E-02  0.1354779E+00
          2   -1    0    0  505    0 -0.00000000000E+00  0.00000000000E+00  0.14742548660E+04  0.14742548660E+04  0.00000000000E+00 0.  1.
         21   -1    0    0  504  502  0.00000000000E+00 -0.00000000000E+00 -0.51769105473E+02  0.51769105473E+02  0.00000000000E+00 0.  1.
         21    1    1    2  503  502  0.21700166315E+02 -0.35386282817E+02 -0.10579396627E+02  0.42837015100E+02  0.00000000000E+00 0.  1.
         21    1    1    2  504  501 -0.78045693933E+02  0.72717213948E+01  0.11014187621E+03  0.13518595034E+03  0.00000000000E+00 0.  1.
         21    1    1    2  505  503  0.50101610486E+02  0.79335011303E+02  0.17206186629E+03  0.19598342079E+03  0.00000000000E+00 0.  1.
          2    1    1    2  501    0  0.62439171314E+01 -0.51220449881E+02  0.11508614146E+04  0.11520175852E+04  0.00000000000E+00 0.  1.
<scales pt_clust_3="41.51007" pt_clust_4="14000.00000" pt_clust_5="71.58671" pt_clust_6="52.47197"></scales>
<clustering>
<clus scale="   41.510">  2  3  1 -1</clus>
<clus scale="   52.472">  1  6  2 -1</clus>
<clus scale="   71.587">  1  5  2 -1</clus>
<clus scale="   41.510">  2  3  1 -1</clus>
</clustering>
</event>
<event>
 6    0  0.6525019E+002  0.9460521E+02  0.7546771E-02  0.1292068E+00
         21   -1    0    0  503  502  0.00000000000E+00  0.00000000000E+00  0.79713276458E+03  0.79713276458E+03  0.00000000000E+00 0.  1.
         -2   -1    0    0    0  501 -0.00000000000E+00 -0.00000000000E+00 -0.15249618713E+04  0.15249618713E+04  0.00000000000E+00 0. -1.
         21    1    1    2  503  505 -0.40874922280E+02  0.36166025646E+02  0.35063442350E+03  0.35485664659E+03  0.00000000000E+00 0.  1.
         21    1    1    2  504  502  0.60446486454E+02  0.42456196534E+02  0.37030368902E+01  0.73959575655E+02  0.00000000000E+00 0.  1.
         21    1    1    2  505  501 -0.62487011953E+02 -0.55575724201E+02  0.40084083821E+03  0.40947120212E+03  0.00000000000E+00 0.  1.
         -2    1    1    2    0  504  0.42915447778E+02 -0.23046497978E+02 -0.14830074054E+04  0.14838072116E+04  0.00000000000E+00 0. -1.
<scales pt_clust_3="52.17222" pt_clust_4="14000.00000" pt_clust_5="94.60521" pt_clust_6="48.71218"></scales>
<clustering>
<clus scale="   48.712">  2  6  1 -1</clus>
<clus scale="   52.172">  1  3  2 -1</clus>
<clus scale="   94.605">  1  5  2 -1</clus>
<clus scale="   52.172">  1  3  2 -1</clus>
</clustering>
</event>
<event>
 6    0  0.6525019E+002  0.6439314E+02  0.7546771E-02  0.1380269E+00
          2   -1    0    0  505    0 -0.00000000000E+00  0.00000000000E+00  0.40227468904E+03  0.40227468904E+03  0.00000000000E+00 0. -1.
         21   -1    0    0  503  502  0.00000000000E+00 -0.00000000000E+00 -0.61203361553E+02  0.61203361553E+02  0.00000000000E+00 0. -1.
         21    1    1    2  503  501  0.55552871635E+02  0.29063586355E+02  0.10490458413E+02  0.63567785209E+02  0.00000000000E+00 0. -1.
         21    1    1    2  504  502 -0.17304064015E+02 -0.38239843540E+02  0.24992057392E+02  0.48849966204E+02  0.00000000000E+00 0. -1.
         21    1    1    2  505  504 -0.94281166969E+02  0.21557486613E+02  0.10647396197E+03  0.14384146916E+03  0.00000000000E+00 0. -1.
          2    1    1    2  501    0  0.56032359349E+02 -0.12381229428E+02  0.19911484971E+03  0.20721883001E+03  0.00000000000E+00 0. -1.
<scales pt_clust_3="47.00219" pt_clust_4="41.97280" pt_clust_5="14000.00000" pt_clust_6="64.39314"></scales>
<clustering>
<clus scale="   41.973">  2  4  1 -1</clus>
<clus scale="   47.002">  2  3  1 -1</clus>
<clus scale="   64.393">  1  6  2 -1</clus>
<clus scale="   41.973">  2  3  1 -1</clus>
</clustering>
</event>
<event>
 6    0  0.6525019E+002  0.1990990E+03  0.7546771E-02  0.1150501E+00
          2   -1    0    0  505    0 -0.00000000000E+00  0.00000000000E+00  0.15703066482E+04  0.15703066482E+04  0.00000000000E+00 0.  1.
         21   -1    0    0  503  502  0.00000000000E+00 -0.00000000000E+00 -0.20468769018E+03  0.20468769018E+03  0.00000000000E+00 0. -1.
         21    1    1    2  503  501 -0.18508869114E+03  0.29803859496E+03  0.19617723137E+03  0.40195812442E+03  0.00000000000E+00 0. -1.
         21    1    1    2  504  502  0.30321794617E+02 -0.17109487653E+03 -0.81426768904E+01  0.17395163463E+03  0.00000000000E+00 0. -1.
         21    1    1    2  505  504  0.12502154043E+03 -0.81603939037E+02  0.57503366009E+03  0.59409872805E+03  0.00000000000E+00 0.  1.
          2    1    1    2  501    0  0.29745356090E+02 -0.45339779394E+02  0.60255074345E+03  0.60498585127E+03  0.00000000000E+00 0.  1.
<scales pt_clust_3="14000.00000" pt_clust_4="178.04495" pt_clust_5="199.09903" pt_clust_6="54.22621"></scales>
<clustering>
<clus scale="   54.226">  1  6  2 -1</clus>
<clus scale="  178.045">  2  4  1 -1</clus>
<clus scale="  199.099">  1  5  2 -1</clus>
<clus scale="  178.045">  2  3  1 -1</clus>
</clustering>
</event>
<event>
 6    0  0.6525019E+002  0.1684899E+03  0.7546771E-02  0.1179432E+00
          2   -1    0    0  503    0 -0.00000000000E+00  0.00000000000E+00  0.20766580634E+04  0.20766580634E+04  0.00000000000E+00 0.  1.
         21   -1    0    0  504  502  0.00000000000E+00 -0.00000000000E+00 -0.56838699004E+02  0.56838699004E+02  0.00000000000E+00 0. -1.
         21    1    1    2  503  502 -0.19342139685E+03 -0.41977454426E+02  0.22676370065E+03  0.30099122807E+03  0.00000000000E+00 0. -1.
         21    1    1    2  504  505  0.36569036672E+02  0.43396024974E+02  0.34933306341E+02  0.66639667756E+02  0.00000000000E+00 0. -1.
         21    1    1    2  505  501  0.10102690172E+03  0.13245802781E+02  0.13254418673E+04  0.13293524851E+04  0.00000000000E+00 0.  1.
          2    1    1    2  501    0  0.55825458466E+02 -0.14664373330E+02  0.43268049009E+03  0.43651338142E+03  0.00000000000E+00 0.  1.
<scales pt_clust_3="160.32932" pt_clust_4="56.74953" pt_clust_5="38.98802" pt_clust_6="38.98802"></scales>
<clustering>
<clus scale="   38.988">  5  6 -1 -1</clus>
<clus scale="   56.750">  2  4  1 -1</clus>
<clus scale="  160.329">  2  3  1 -1</clus>
<clus scale="   56.750">  2  3  1 -1</clus>
</clustering>
</event>
<event>
 6    0  0.6525019E+002  0.8426597E+02  0.7546771E-02  0.1317363E+00
          1   -1    0    0  505    0 -0.00000000000E+00  0.00000000000E+00  0.12566040194E+04  0.12566040194E+04  0.00000000000E+00 0.  1.
         21   -1    0    0  501  502  0.00000000000E+00 -0.00000000000E+00 -0.56268785189E+02  0.56268785189E+02  0.00000000000E+00 0. -1.
         21    1    1    2  503  502  0.40529018292E+02  0.14002326863E+01 -0.21298164785E+02  0.45805827124E+02  0.00000000000E+00 0. -1.
         21    1    1    2  504  503  0.46729427299E+02 -0.23234683396E+02  0.36856270322E+02  0.63889549617E+02  0.00000000000E+00 0. -1.
         21    1    1    2  505  504 -0.13306064379E+03  0.19097282061E+02  0.52953136513E+03  0.54632710692E+03  0.00000000000E+00 0. -1.
          1    1    1    2  501    0  0.45802198197E+02  0.27371686493E+01  0.65524576353E+03  0.65685032091E+03  0.00000000000E+00 0.  1.
<scales pt_clust_3="40.55320" pt_clust_4="14000.00000" pt_clust_5="84.26597" pt_clust_6="47.31567"></scales>
<clustering>
<clus scale="   40.553">  2  3  1 -1</clus>
<clus scale="   47.316">  1  6  2 -1</clus>
<clus scale="   84.266">  1  5  2 -1</clus>
<clus scale="   40.553">  2  3  1 -1</clus>
</clustering>
</event>
<event>
 6    0  0.6525019E+002  0.1224234E+03  0.7546771E-02  0.1239152E+00
         21   -1    0    0  501  502  0.00000000000E+00  0.00000000000E+00  0.28978746056E+03  0.28978746056E+03  0.00000000000E+00 0.  1.
          2   -1    0    0  505    0 -0.00000000000E+00 -0.00000000000E+00 -0.31693587879E+04  0.31693587879E+04  0.00000000000E+00 0.  1.
         21    1    1    2  503  502  0.18117565929E+02 -0.28191037764E+02  0.53653985360E+02  0.63259236088E+02  0.00000000000E+00 0.  1.
         21    1    1    2  504  503  0.11406890634E+03  0.63342695107E+02  0.19610126595E+03  0.23554133167E+03  0.00000000000E+00 0.  1.
         21    1    1    2  505  504 -0.72390372895E+02 -0.19580745756E+02 -0.77318667177E+02  0.10771233906E+03  0.00000000000E+00 0.  1.
          2    1    1    2  501    0 -0.59796099378E+02 -0.15570911587E+02 -0.30520079115E+04  0.30526333416E+04  0.00000000000E+00 0.  1.
<scales pt_clust_3="33.51091" pt_clust_4="14000.00000" pt_clust_5="122.42341" pt_clust_6="61.77610"></scales>
<clustering>
<clus scale="   33.511">  1  3  2 -1</clus>
<clus scale="   61.776">  2  6  1 -1</clus>
<clus scale="  122.423">  2  5  1 -1</clus>
<clus scale="   33.511">  1  3  2 -1</clus>
</clustering>
</event>
<event>
 6    0  0.6525019E+002  0.2333842E+03  0.7546771E-02  0.1124280E+00
          2   -1    0    0  504    0 -0.00000000000E+00  0.00000000000E+00  0.29574659406E+04  0.29574659406E+04  0.00000000000E+00 0.  1.
         21   -1    0    0  503  502  0.00000000000E+00 -0.00000000000E+00 -0.78557275367E+03  0.78557275367E+03  0.00000000000E+00 0. -1.
         21    1    1    2  503  505 -0.52017782921E+02 -0.33096736691E+02 -0.53812476883E+03  0.54164518879E+03  0.00000000000E+00 0. -1.
         21    1    1    2  504  502 -0.16997586872E+03  0.10695083378E+03 -0.18176805923E+03  0.27086879508E+03  0.00000000000E+00 0. -1.
         21    1    1    2  505  501  0.27130488530E+03 -0.54046944344E+02  0.98801593799E+03  0.10260131123E+04  0.00000000000E+00 0.  1.
          2    1    1    2  501    0 -0.49311233662E+02 -0.19807152742E+02  0.19037700770E+04  0.19045115981E+04  0.00000000000E+00 0.  1.
<scales pt_clust_3="61.74152" pt_clust_4="14000.00000" pt_clust_5="233.38425" pt_clust_6="53.14058"></scales>
<clustering>
<clus scale="   53.141">  1  6  2 -1</clus>
<clus scale="   61.742">  2  3  1 -1</clus>
<clus scale="  233.384">  1  5  2 -1</clus>
<clus scale="   61.742">  2  3  1 -1</clus>
</clustering>
</event>
<event>
 6    0  0.6525019E+002  0.8566479E+02  0.7546771E-02  0.1313703E+00
         21   -1    0    0  505  502  0.00000000000E+00  0.00000000000E+00  0.11584457525E+03  0.11584457525E+03  0.00000000000E+00 0. -1.
          1   -1    0    0  504    0 -0.00000000000E+00 -0.00000000000E+00 -0.73635261109E+03  0.73635261109E+03  0.00000000000E+00 0. -1.
         21    1    1    2  503  502  0.21930945245E+02 -0.30761710990E+02  0.10823685669E+02  0.39298872679E+02  0.00000000000E+00 0. -1.
         21    1    1    2  504  503 -0.32331290259E+02 -0.23574693758E+02  0.73998701473E+02  0.84124231558E+02  0.00000000000E+00 0. -1.
         21    1    1    2  505  501  0.90074994585E+02  0.50144914032E+02 -0.37117910159E+03  0.38522972693E+03  0.00000000000E+00 0. -1.
          1    1    1    2  501    0 -0.79674649570E+02  0.41914907161E+01 -0.33415132139E+03  0.34354435517E+03  0.00000000000E+00 0. -1.
<scales pt_clust_3="37.77895" pt_clust_4="52.07369" pt_clust_5="85.66479" pt_clust_6="14000.00000"></scales>
<clustering>
<clus scale="   37.779">  1  3  2 -1</clus>
<clus scale="   52.074">  1  4  2 -1</clus>
<clus scale="   85.665">  1  5  2 -1</clus>
<clus scale="   37.779">  1  3  2 -1</clus>
</clustering>
</event>
<event>
 6    0  0.6525019E+002  0.1128126E+03  0.7546771E-02  0.1255448E+00
          2   -1    0    0  504    0 -0.00000000000E+00  0.00000000000E+00  0.76846237467E+03  0.76846237467E+03  0.00000000000E+00 0. -1.
         21   -1    0    0  501  502  0.00000000000E+00 -0.00000000000E+00 -0.31278317354E+02  0.31278317354E+02  0.00000000000E+00 0. -1.
         21    1    1    2  503  502 -0.55832641804E+02  0.34724842267E+01  0.87075711613E+02  0.10349648105E+03  0.00000000000E+00 0. -1.
         21    1    1    2  504  505  0.39818551487E+02  0.64511459844E+02  0.21772792399E+03  0.23054868115E+03  0.00000000000E+00 0. -1.
         21    1    1    2  505  503 -0.50606799922E+02  0.26420631210E+02  0.15699304860E+03  0.16705063681E+03  0.00000000000E+00 0. -1.
          2    1    1    2  501    0  0.66620890238E+02 -0.94404575281E+02  0.27538737312E+03  0.29864489301E+03  0.00000000000E+00 0. -1.
<scales pt_clust_3="37.08116" pt_clust_4="75.81059" pt_clust_5="37.08116" pt_clust_6="106.41173"></scales>
<clustering>
<clus scale="   37.081">  3  5 -1 -1</clus>
<clus scale="   75.811">  1  4  2 -1</clus>
<clus scale="  106.412">  1  6  2 -1</clus>
<clus scale="  112.813">  2  3  1 -1</clus>
</clustering>
</event>
<event>
 6    0  0.6525019E+002  0.8555645E+02  0.7546771E-02  0.1313984E+00
          1   -1    0    0  503    0 -0.00000000000E+00  0.00000000000E+00  0.60083058760E+03  0.60083058760E+03  0.00000000000E+00 0. -1.
         21   -1    0    0  501  502  0.00000000000E+00 -0.00000000000E+00 -0.18563472903E+03  0.18563472903E+03  0.00000000000E+00 0. -1.
         21    1    1    2  503  505  0.19483108530E+02 -0.43832483141E+02  0.94855733279E+02  0.10629434713E+03  0.00000000000E+00 0. -1.
         21    1    1    2  504  502  0.13431702063E+02  0.84478570871E+02 -0.13272806705E+03  0.15790433604E+03  0.00000000000E+00 0. -1.
         21    1    1    2  505  504 -0.52970757765E+02 -0.76731289014E+02  0.31108383097E+02  0.98292031167E+02  0.00000000000E+00 0. -1.
          1    1    1    2  501    0  0.20055947172E+02  0.36085201284E+02  0.42195980924E+03  0.42397460229E+03  0.00000000000E+00 0. -1.
<scales pt_clust_3="38.71658" pt_clust_4="14000.00000" pt_clust_5="85.55645" pt_clust_6="41.28417"></scales>
<clustering>
<clus scale="   41.284">  1  6  2 -1</clus>
<clus scale="   38.717">  1  3  2 -1</clus>
<clus scale="   85.556">  1  5  2 -1</clus>
<clus scale="   85.556">  2  3  1 -1</clus>
</clustering>
</event>
<event>
 6    0  0.6525019E+002  0.1032773E+03  0.7546771E-02  0.1273551E+00
         -1   -1    0    0    0  501 -0.00000000000E+00  0.00000000000E+00  0.10864884238E+04  0.10864884238E+04  0.00000000000E+00 0.  1.
         21   -1    0    0  503  502  0.00000000000E+00 -0.00000000000E+00 -0.67076637300E+02  0.67076637300E+02  0.00000000000E+00 0.  1.
         21    1    1    2  503  504  0.40528287602E+02 -0.28323774554E+02 -0.21739948907E+02  0.54012995468E+02  0.00000000000E+00 0.  1.
         21    1    1    2  504  505  0.82479964971E+01  0.12638503420E+03  0.14117232587E+03  0.18965977936E+03  0.00000000000E+00 0.  1.
         21    1    1    2  505  501  0.87107371365E+01 -0.48881513596E+02  0.21058406892E+03  0.21635833563E+03  0.00000000000E+00 0. -1.
         -1    1    1    2    0  502 -0.57487021235E+02 -0.49179746047E+02  0.68939534059E+03  0.69353395062E+03  0.00000000000E+00 0.  1.
<scales pt_clust_3="49.44470" pt_clust_4="14000.00000" pt_clust_5="53.22381" pt_clust_6="103.27727"></scales>
<clustering>
<clus scale="   49.445">  2  3  1 -1</clus>
<clus scale="   53.224">  1  5  2 -1</clus>
<clus scale="  103.277">  1  6  2 -1</clus>
<clus scale="   49.445">  2  3  1 -1</clus>
</clustering>
</event>
<event>
 6    0  0.6525019E+002  0.1872745E+03  0.7546771E-02  0.1160943E+00
         21   -1    0    0  505  502  0.00000000000E+00  0.00000000000E+00  0.80903565473E+02  0.80903565473E+02  0.00000000000E+00 0. -1.
          2   -1    0    0  503    0 -0.00000000000E+00 -0.00000000000E+00 -0.19699411137E+04  0.19699411137E+04  0.00000000000E+00 0. -1.
         21    1    1    2  503  504  0.44759803486E+02  0.47366037537E+02 -0.80815879275E+03  0.81078210132E+03  0.00000000000E+00 0. -1.
         21    1    1    2  504  502  0.18312009124E+03 -0.51762736364E+02 -0.11764191251E+03  0.22372297216E+03  0.00000000000E+00 0. -1.
         21    1    1    2  505  501 -0.18417846076E+03  0.99742169680E+01 -0.30363470318E+03  0.35526781924E+03  0.00000000000E+00 0. -1.
          2    1    1    2  501    0 -0.43701433966E+02 -0.55775181414E+01 -0.65960213976E+03  0.66107178643E+03  0.00000000000E+00 0. -1.
<scales pt_clust_3="47.36902" pt_clust_4="14000.00000" pt_clust_5="187.27450" pt_clust_6="44.05592"></scales>
<clustering>
<clus scale="   44.056">  2  6  1 -1</clus>
<clus scale="   47.369">  2  3  1 -1</clus>
<clus scale="  187.274">  2  5  1 -1</clus>
<clus scale="  187.274">  1  3  2 -1</clus>
</clustering>
</event>
<event>
 6    0  0.6525019E+002  0.8479364E+02  0.7546771E-02  0.1315973E+00
          2   -1    0    0  504    0 -0.00000000000E+00  0.00000000000E+00  0.16707032529E+03  0.16707032529E+03  0.00000000000E+00 0. -1.
         21   -1    0    0  505  502  0.00000000000E+00 -0.00000000000E+00 -0.92335501802E+03  0.92335501802E+03  0.00000000000E+00 0. -1.
         21    1    1    2  503  502 -0.79550382478E+02  0.37122503661E+02 -0.40125560870E+03  0.41074615902E+03  0.00000000000E+00 0. -1.
         21    1    1    2  504  503  0.20122619877E+02  0.96306980763E+02 -0.37905556136E+02  0.10543616818E+03  0.00000000000E+00 0. -1.
         21    1    1    2  505  501  0.32246206592E+02 -0.10456468848E+03 -0.43569108707E+03  0.44922189981E+03  0.00000000000E+00 0. -1.
          2    1    1    2  501    0  0.27181556009E+02 -0.28864795941E+02  0.11856755918E+03  0.12502111630E+03  0.00000000000E+00 0. -1.
<scales pt_clust_3="83.93896" pt_clust_4="84.79364" pt_clust_5="14000.00000" pt_clust_6="39.64862"></scales>
<clustering>
<clus scale="   39.649">  1  6  2 -1</clus>
<clus scale="   83.939">  2  3  1 -1</clus>
<clus scale="   84.794">  1  4  2 -1</clus>
<clus scale="   83.939">  2  3  1 -1</clus>
</clustering>
</event>
<event>
 6    0  0.6525019E+002  0.1647443E+03  0.7546771E-02  0.1183442E+00
         21   -1    0    0  501  502  0.00000000000E+00  0.00000000000E+00  0.11521529118E+04  0.11521529118E+04  0.00000000000E+00 0. -1.
          1   -1    0    0  505    0 -0.00000000000E+00 -0.00000000000E+00 -0.83501976381E+03  0.83501976381E+03  0.00000000000E+00 0. -1.
         21    1    1    2  503  502  0.17836236845E+03 -0.47000597100E+02  0.98054901714E+03  0.99774674423E+03  0.00000000000E+00 0. -1.
         21    1    1    2  504  503 -0.11689848537E+03 -0.13788730833E+02  0.12439302594E+03  0.17125714549E+03  0.00000000000E+00 0.  1.
         21    1    1    2  505  504 -0.27559201185E+02  0.10247650100E+03 -0.18739421354E+03  0.21535443830E+03  0.00000000000E+00 0.  1.
          1    1    1    2  501    0 -0.33904681898E+02 -0.41687173065E+02 -0.60041468155E+03  0.60281434760E+03  0.00000000000E+00 0. -1.
<scales pt_clust_3="164.74429" pt_clust_4="14000.00000" pt_clust_5="87.47056" pt_clust_6="53.73405"></scales>
<clustering>
<clus scale="   53.734">  2  6  1 -1</clus>
<clus scale="   87.471">  2  5  1 -1</clus>
<clus scale="  164.744">  1  3  2 -1</clus>
<clus scale="  164.744">  1  3  2 -1</clus>
</clustering>
</event>
<event>
 6    0  0.6525019E+002  0.8171050E+02  0.7546771E-02  0.1324266E+00
         21   -1    0    0  504  502  0.00000000000E+00  0.00000000000E+00  0.10754640862E+03  0.10754640862E+03  0.00000000000E+00 0.  1.
          1   -1    0    0  502    0 -0.00000000000E+00 -0.00000000000E+00 -0.51266967290E+03  0.51266967290E+03  0.00000000000E+00 0. -1.
         21    1    1    2  503  501 -0.34266547625E+02  0.95041767399E+02  0.31200925814E+02  0.10573850580E+03  0.00000000000E+00 0.  1.
         21    1    1    2  504  505  0.18417999317E+02 -0.32156722261E+02 -0.11693226751E+02  0.38858834739E+02  0.00000000000E+00 0. -1.
         21    1    1    2  505  503 -0.43239958381E+02 -0.71911029955E+01 -0.55324078331E+00  0.43837336124E+02  0.00000000000E+00 0.  1.
          1    1    1    2  501    0  0.59088506688E+02 -0.55693942143E+02 -0.42407772256E+03  0.43178140487E+03  0.00000000000E+00 0. -1.
<scales pt_clust_3="81.71050" pt_clust_4="37.05776" pt_clust_5="41.64038" pt_clust_6="14000.00000"></scales>
<clustering>
<clus scale="   37.058">  1  4  2 -1</clus>
<clus scale="   41.640">  1  5  2 -1</clus>
<clus scale="   81.711">  1  3  2 -1</clus>
<clus scale="   37.058">  1  3  2 -1</clus>
</clustering>
</event>
<event>
 6    0  0.6525019E+002  0.1430341E+03  0.7546771E-02  0.1209304E+00
         21   -1    0    0  504  502  0.00000000000E+00  0.00000000000E+00  0.19561436307E+02  0.19561436307E+02  0.00000000000E+00 0. -1.
          2   -1    0    0  505    0 -0.00000000000E+00 -0.00000000000E+00 -0.21423846293E+04  0.21423846293E+04  0.00000000000E+00 0.  1.
         21    1    1    2  503  501 -0.54771907110E+02 -0.56949200374E+02 -0.65413869665E+03  0.65889347219E+03  0.00000000000E+00 0. -1.
         21    1    1    2  504  503  0.63853997205E+02  0.88602840905E+02 -0.39349763180E+03  0.40837260267E+03  0.00000000000E+00 0. -1.
         21    1    1    2  505  502  0.52886130950E+01  0.29897935579E+02 -0.17376329409E+02  0.34982750093E+02  0.00000000000E+00 0. -1.
          2    1    1    2  501    0 -0.14370703190E+02 -0.61551576110E+02 -0.10578105351E+04  0.10596972407E+04  0.00000000000E+00 0.  1.
<scales pt_clust_3="57.10681" pt_clust_4="128.44467" pt_clust_5="30.36208" pt_clust_6="57.10681"></scales>
<clustering>
<clus scale="   30.362">  1  5  2 -1</clus>
<clus scale="   57.107">  3  6 -1 -1</clus>
<clus scale="  128.445">  1  4  2 -1</clus>
<clus scale="   30.362">  1  3  2 -1</clus>
</clustering>
</event>
<event>
 6    0  0.6525019E+002  0.1382401E+03  0.7546771E-02  0.1215717E+00
          1   -1    0    0  504    0 -0.00000000000E+00  0.00000000000E+00  0.57652531091E+03  0.57652531091E+03  0.00000000000E+00 0. -1.
         21   -1    0    0  505  502  0.00000000000E+00 -0.00000000000E+00 -0.15370846715E+03  0.15370846715E+03  0.00000000000E+00 0. -1.
         21    1    1    2  503  502  0.14375631220E+01  0.38760953100E+02 -0.42168969436E+02  0.57294851918E+02  0.00000000000E+00 0. -1.
         21    1    1    2  504  503 -0.41305364450E+02  0.80358051456E+02  0.20589567157E+03  0.22484789779E+03  0.00000000000E+00 0. -1.
         21    1    1    2  505  501  0.14541604997E+03 -0.64742108566E+02 -0.42373417585E+01  0.15923354947E+03  0.00000000000E+00 0. -1.
          1    1    1    2  501    0 -0.10554824865E+03 -0.54376895990E+02  0.26332748338E+03  0.28885747889E+03  0.00000000000E+00 0. -1.
<scales pt_clust_3="38.78760" pt_clust_4="93.45031" pt_clust_5="138.24008" pt_clust_6="14000.00000"></scales>
<clustering>
<clus scale="   38.788">  2  3  1 -1</clus>
<clus scale="   93.450">  1  4  2 -1</clus>
<clus scale="  138.240">  2  5  1 -1</clus>
<clus scale="   38.788">  2  3  1 -1</clus>
</clustering>
</event>
<event>
 6    0  0.6525019E+002  0.1118420E+03  0.7546771E-02  0.1257196E+00
         21   -1    0    0  503  502  0.00000000000E+00  0.00000000000E+00  0.72325084775E+02  0.72325084775E+02  0.00000000000E+00 0. -1.
          1   -1    0    0  505    0 -0.00000000000E+00 -0.00000000000E+00 -0.14899076253E+04  0.14899076253E+04  0.00000000000E+00 0. -1.
         21    1    1    2  503  501 -0.62017959829E+02  0.13471798127E+03 -0.58219218426E+03  0.60078523719E+03  0.00000000000E+00 0. -1.
         21    1    1    2  504  502 -0.15609930166E+02 -0.10936703213E+03  0.38714445143E+01  0.11054323010E+03  0.00000000000E+00 0. -1.
         21    1    1    2  505  504  0.43673868644E+02 -0.49070348635E+02 -0.20448461434E+03  0.21477724139E+03  0.00000000000E+00 0. -1.
          1    1    1    2  501    0  0.33954021351E+02  0.23719399502E+02 -0.63477718640E+03  0.63612700136E+03  0.00000000000E+00 0. -1.
<scales pt_clust_3="111.84203" pt_clust_4="14000.00000" pt_clust_5="67.63935" pt_clust_6="41.41842"></scales>
<clustering>
<clus scale="   41.418">  2  6  1 -1</clus>
<clus scale="   67.639">  2  5  1 -1</clus>
<clus scale="  111.842">  2  3  1 -1</clus>
<clus scale="  111.842">  1  3  2 -1</clus>
</clustering>
</event>
<event>
 6    0  0.6525019E+002  0.1246427E+03  0.7546771E-02  0.1235629E+00
         21   -1    0    0  501  502  0.00000000000E+00  0.00000000000E+00  0.35438008727E+03  0.35438008727E+03  0.00000000000E+00 0.  1.
         -4   -1    0    0    0  501 -0.00000000000E+00 -0.00000000000E+00 -0.97902094008E+03  0.97902094008E+03  0.00000000000E+00 0.  1.
         21    1    1    2  503  502 -0.69135971332E+02 -0.29408712313E+02  0.24666637554E+03  0.25785452433E+03  0.00000000000E+00 0.  1.
         21    1    1    2  504  505 -0.66648723335E+01 -0.11322425482E+03 -0.26578023980E+03  0.28896935525E+03  0.00000000000E+00 0. -1.
         21    1    1    2  505  503 -0.14923525452E+02  0.13393685061E+03  0.35291417040E+02  0.13930999849E+03  0.00000000000E+00 0.  1.
         -4    1    1    2    0  504  0.90724369117E+02  0.86961165197E+01 -0.64081840560E+03  0.64726714929E+03  0.00000000000E+00 0.  1.
<scales pt_clust_3="75.13092" pt_clust_4="14000.00000" pt_clust_5="124.64273" pt_clust_6="88.88150"></scales>
<clustering>
<clus scale="   75.131">  1  3  2 -1</clus>
<clus scale="   88.882">  2  6  1 -1</clus>
<clus scale="  124.643">  1  5  2 -1</clus>
<clus scale="   75.131">  1  3  2 -1</clus>
</clustering>
</event>
<event>
 6    0  0.6525019E+002  0.2303328E+03  0.7546771E-02  0.1126406E+00
         21   -1    0    0  504  502  0.00000000000E+00  0.00000000000E+00  0.24446780135E+04  0.24446780135E+04  0.00000000000E+00 0.  1.
         -1   -1    0    0    0  501 -0.00000000000E+00 -0.00000000000E+00 -0.13673578274E+03  0.13673578274E+03  0.00000000000E+00 0.  1.
         21    1    1    2  503  501 -0.12469908016E+03 -0.22852632808E+03  0.25890688010E+03  0.36716061306E+03  0.00000000000E+00 0.  1.
         21    1    1    2  504  503 -0.42049151349E+02  0.16632067821E+03  0.16837692744E+04  0.16924862388E+04  0.00000000000E+00 0.  1.
         21    1    1    2  505  502  0.19173721902E+03  0.84576705372E+02  0.41317670768E+03  0.46328325247E+03  0.00000000000E+00 0.  1.
         -1    1    1    2    0  505 -0.24988987510E+02 -0.22371055501E+02 -0.47910631400E+02  0.58483691933E+02  0.00000000000E+00 0.  1.
<scales pt_clust_3="230.33278" pt_clust_4="170.74881" pt_clust_5="14000.00000" pt_clust_6="33.53973"></scales>
<clustering>
<clus scale="   33.540">  2  6  1 -1</clus>
<clus scale="  170.749">  1  4  2 -1</clus>
<clus scale="  230.333">  2  3  1 -1</clus>
<clus scale="  170.749">  1  3  2 -1</clus>
</clustering>
</event>
<event>
 6    0  0.6525019E+002  0.6650805E+02  0.7546771E-02  0.1372387E+00
         21   -1    0    0  505  502  0.00000000000E+00  0.00000000000E+00  0.16601913798E+04  0.16601913798E+04  0.00000000000E+00 0.  1.
          2   -1    0    0  504    0 -0.00000000000E+00 -0.00000000000E+00 -0.11836029258E+04  0.11836029258E+04  0.00000000000E+00 0.  1.
         21    1    1    2  503  501 -0.22588384534E+02  0.11008846422E+03  0.23932669719E+03  0.26439926826E+03  0.00000000000E+00 0. -1.
         21    1    1    2  504  502 -0.16066477358E+02 -0.40462364159E+02 -0.24155906315E+02  0.49787974631E+02  0.00000000000E+00 0. -1.
         21    1    1    2  505  503 -0.50077686351E+01 -0.51835637305E+02  0.13945361150E+04  0.13955081465E+04  0.00000000000E+00 0.  1.
          2    1    1    2  501    0  0.43662630528E+02 -0.17790462756E+02 -0.11331184519E+04  0.11340989162E+04  0.00000000000E+00 0.  1.
<scales pt_clust_3="66.50805" pt_clust_4="43.53544" pt_clust_5="52.09470" pt_clust_6="14000.00000"></scales>
<clustering>
<clus scale="   43.535">  2  4  1 -1</clus>
<clus scale="   52.095">  1  5  2 -1</clus>
<clus scale="   66.508">  1  3  2 -1</clus>
<clus scale="   52.095">  1  3  2 -1</clus>
</clustering>
</event>
<event>
 6    0  0.6525019E+002  0.1197608E+03  0.7546771E-02  0.1243492E+00
         -4   -1    0    0    0  501 -0.00000000000E+00  0.00000000000E+00  0.17739256791E+04  0.17739256791E+04  0.00000000000E+00 0.  1.
         21   -1    0    0  501  502  0.00000000000E+00 -0.00000000000E+00 -0.63196059922E+02  0.63196059922E+02  0.00000000000E+00 0. -1.
         21    1    1    2  503  502  0.30323068891E+02  0.13540462615E+02 -0.25235227275E+02  0.41709103687E+02  0.00000000000E+00 0. -1.
         21    1    1    2  504  503  0.77044262022E+02 -0.88838167935E+02  0.12177662651E+03  0.16928551372E+03  0.00000000000E+00 0. -1.
         21    1    1    2  505  504 -0.99038672785E+02  0.38129880120E+02  0.49304701730E+03  0.50433908012E+03  0.00000000000E+00 0.  1.
         -4    1    1    2    0  505 -0.83286581274E+01  0.37167825200E+02  0.11211412027E+04  0.11217880415E+04  0.00000000000E+00 0.  1.
<scales pt_clust_3="33.20892" pt_clust_4="119.76083" pt_clust_5="14000.00000" pt_clust_6="38.16281"></scales>
<clustering>
<clus scale="   33.209">  2  3  1 -1</clus>
<clus scale="   38.163">  1  6  2 -1</clus>
<clus scale="  119.761">  2  4  1 -1</clus>
<clus scale="   33.209">  2  3  1 -1</clus>
</clustering>
</event>
<event>
 6    0  0.6525019E+002  0.1493421E+03  0.7546771E-02  0.1201284E+00
          1   -1    0    0  503    0 -0.00000000000E+00  0.00000000000E+00  0.10325385083E+04  0.10325385083E+04  0.00000000000E+00 0.  1.
         21   -1    0    0  505  502  0.00000000000E+00 -0.00000000000E+00 -0.19959400967E+03  0.19959400967E+03  0.00000000000E+00 0. -1.
         21    1    1    2  503  504  0.78500870740E+02 -0.71408557347E+02  0.25014206478E+03  0.27172158792E+03  0.00000000000E+00 0. -1.
         21    1    1    2  504  502  0.53645892025E+02  0.13556588160E+03 -0.60710343246E+02  0.15792952784E+03  0.00000000000E+00 0. -1.
         21    1    1    2  505  501 -0.16076781685E+03 -0.90039118684E+02  0.28732150504E+02  0.18649093893E+03  0.00000000000E+00 0. -1.
          1    1    1    2  501    0  0.28621054088E+02  0.25881794427E+02  0.61478062663E+03  0.61599046332E+03  0.00000000000E+00 0.  1.
<scales pt_clust_3="111.09822" pt_clust_4="14000.00000" pt_clust_5="149.34209" pt_clust_6="38.58798"></scales>
<clustering>
<clus scale="   38.588">  1  6  2 -1</clus>
<clus scale="  111.098">  1  3  2 -1</clus>
<clus scale="  149.342">  1  5  2 -1</clus>
<clus scale="  149.342">  2  3  1 -1</clus>
</clustering>
</event>
<event>
 6    0  0.1042602E+003  0.1478874E+03  0.7546771E-02  0.1203093E+00
         21   -1    0    0  503  502  0.00000000000E+00  0.00000000000E+00  0.10310113145E+04  0.10310113145E+04  0.00000000000E+00 0.  1.
          2   -1    0    0  504    0 -0.00000000000E+00 -0.00000000000E+00 -0.38315767368E+03  0.38315767368E+03  0.00000000000E+00 0.  1.
         21    1    1    2  503  501 -0.12252624221E+03 -0.60643835595E+02  0.94521082093E+03  0.95504651763E+03  0.00000000000E+00 0.  1.
         21    1    1    2  504  505  0.44325956802E+02  0.53518648635E+02  0.56053435919E+01  0.69716971211E+02  0.00000000000E+00 0. -1.
         21    1    1    2  505  502  0.49634929942E+02 -0.67884628018E+01  0.27682973834E+02  0.57236845981E+02  0.00000000000E+00 0. -1.
          2    1    1    2  501    0  0.28565355469E+02  0.13913649763E+02 -0.33064549757E+03  0.33216865332E+03  0.00000000000E+00 0.  1.
<scales pt_clust_3="133.69328" pt_clust_4="51.32358" pt_clust_5="51.32358" pt_clust_6="31.77372"></scales>
<clustering>
<clus scale="   31.774">  2  6  1 -1</clus>
<clus scale="   51.324">  4  5 -1 -1</clus>
<clus scale="  133.693">  1  3  2 -1</clus>
<clus scale="  133.693">  1  3  2 -1</clus>
</clustering>
</event>
<event>
 6    0  0.6525019E+002  0.1594273E+03  0.7546771E-02  0.1189345E+00
          1   -1    0    0  505    0 -0.00000000000E+00  0.00000000000E+00  0.45194144845E+04  0.45194144845E+04  0.00000000000E+00 0.  1.
         21   -1    0    0  503  502  0.00000000000E+00 -0.00000000000E+00 -0.60004079615E+03  0.60004079615E+03  0.00000000000E+00 0. -1.
         21    1    1    2  503  504 -0.18451048567E+02 -0.44644913159E+02 -0.47001706891E+03  0.47249302062E+03  0.00000000000E+00 0. -1.
         21    1    1    2  504  501 -0.82099653175E+02 -0.78044558413E+02 -0.69580221136E+02  0.13293875779E+03  0.00000000000E+00 0. -1.
         21    1    1    2  505  502 -0.29567333014E+02  0.29415906882E+02 -0.94259846685E+01  0.42759466159E+02  0.00000000000E+00 0.  1.
          1    1    1    2  501    0  0.13011803476E+03  0.93273564690E+02  0.44683969631E+04  0.44712640361E+04  0.00000000000E+00 0.  1.
<scales pt_clust_3="47.38797" pt_clust_4="14000.00000" pt_clust_5="41.70759" pt_clust_6="159.42728"></scales>
<clustering>
<clus scale="   41.708">  2  5  1 -1</clus>
<clus scale="   47.388">  2  3  1 -1</clus>
<clus scale="  159.427">  1  6  2 -1</clus>
<clus scale="   41.708">  2  3  1 -1</clus>
</clustering>
</event>
<event>
 6    0  0.6525019E+002  0.8763495E+02  0.7546771E-02  0.1308682E+00
          1   -1    0    0  505    0 -0.00000000000E+00  0.00000000000E+00  0.10826390478E+03  0.10826390478E+03  0.00000000000E+00 0. -1.
         21   -1    0    0  504  502  0.00000000000E+00 -0.00000000000E+00 -0.16734545419E+04  0.16734545419E+04  0.00000000000E+00 0. -1.
         21    1    1    2  503  501  0.93877326790E+02  0.27403969937E+02 -0.12278415163E+03  0.15697094618E+03  0.00000000000E+00 0. -1.
         21    1    1    2  504  503  0.46168021949E+02 -0.14992809137E+02 -0.13825720160E+04  0.13834238866E+04  0.00000000000E+00 0. -1.
         21    1    1    2  505  502 -0.73175086036E+02  0.43309667887E+02 -0.11140723887E+03  0.14014953950E+03  0.00000000000E+00 0. -1.
          1    1    1    2  501    0 -0.66870262703E+02 -0.55720828688E+02  0.51572769406E+02  0.10117407439E+03  0.00000000000E+00 0. -1.
<scales pt_clust_3="87.63495" pt_clust_4="48.54143" pt_clust_5="64.68308" pt_clust_6="14000.00000"></scales>
<clustering>
<clus scale="   48.541">  2  4  1 -1</clus>
<clus scale="   64.683">  2  5  1 -1</clus>
<clus scale="   87.635">  2  3  1 -1</clus>
<clus scale="   48.541">  2  3  1 -1</clus>
</clustering>
</event>
<event>
 6    0  0.6525019E+002  0.7859977E+02  0.7546771E-02  0.1333073E+00
         21   -1    0    0  505  502  0.00000000000E+00  0.00000000000E+00  0.48271464695E+03  0.48271464695E+03  0.00000000000E+00 0. -1.
          1   -1    0    0  504    0 -0.00000000000E+00 -0.00000000000E+00 -0.14517261436E+03  0.14517261436E+03  0.00000000000E+00 0. -1.
         21    1    1    2  503  502 -0.52158749450E+02 -0.57893190804E+01  0.24363033770E+03  0.24921836371E+03  0.00000000000E+00 0. -1.
         21    1    1    2  504  503 -0.60167869260E+02 -0.27281514639E+02 -0.18991869024E+02  0.68739687381E+02  0.00000000000E+00 0. -1.
         21    1    1    2  505  501  0.13246992351E+02  0.57601582682E+02  0.17887976847E+03  0.18839160464E+03  0.00000000000E+00 0. -1.
          1    1    1    2  501    0  0.99079626359E+02 -0.24530748962E+02 -0.65976204552E+02  0.12153760558E+03  0.00000000000E+00 0. -1.
<scales pt_clust_3="52.47906" pt_clust_4="14000.00000" pt_clust_5="59.70374" pt_clust_6="78.59977"></scales>
<clustering>
<clus scale="   52.479">  1  3  2 -1</clus>
<clus scale="   59.704">  1  5  2 -1</clus>
<clus scale="   78.600">  1  6  2 -1</clus>
<clus scale="   52.479">  1  3  2 -1</clus>
</clustering>
</event>
<event>
 6    0  0.6525019E+002  0.6953737E+02  0.7546771E-02  0.1361673E+00
          1   -1    0    0  504    0 -0.00000000000E+00  0.00000000000E+00  0.16585753790E+04  0.16585753790E+04  0.00000000000E+00 0.  1.
         21   -1    0    0  503  502  0.00000000000E+00 -0.00000000000E+00 -0.32009601116E+02  0.32009601116E+02  0.00000000000E+00 0.  1.
         21    1    1    2  503  501 -0.27564655704E+02 -0.74380418483E+02  0.46459620775E+02  0.91927978659E+02  0.00000000000E+00 0.  1.
         21    1    1    2  504  505  0.75189213416E+02 -0.13627734228E+02  0.46511591055E+03  0.47135118882E+03  0.00000000000E+00 0.  1.
         21    1    1    2  505  502 -0.33344049330E+02  0.27245828003E+02  0.83685134027E+02  0.94113561331E+02  0.00000000000E+00 0.  1.
          1    1    1    2  501    0 -0.14280508383E+02  0.60762324708E+02  0.10313051126E+04  0.10331922513E+04  0.00000000000E+00 0.  1.
<scales pt_clust_3="14000.00000" pt_clust_4="69.53737" pt_clust_5="43.05997" pt_clust_6="63.62721"></scales>
<clustering>
<clus scale="   43.060">  2  5  1 -1</clus>
<clus scale="   63.627">  1  6  2 -1</clus>
<clus scale="   69.537">  1  4  2 -1</clus>
<clus scale="   43.060">  2  3  1 -1</clus>
</clustering>
</event>
<event>
 6    0  0.6525019E+002  0.1629174E+03  0.7546771E-02  0.1185442E+00
         21   -1    0    0  504  502  0.00000000000E+00  0.00000000000E+00  0.15508149193E+03  0.15508149193E+03  0.00000000000E+00 0. -1.
          2   -1    0    0  505    0 -0.00000000000E+00 -0.00000000000E+00 -0.77287290564E+03  0.77287290564E+03  0.00000000000E+00 0.  1.
         21    1    1    2  503  502 -0.71457643969E+02 -0.66297240591E+02  0.56793925309E+02  0.11281431179E+03  0.00000000000E+00 0. -1.
         21    1    1    2  504  501  0.40882124120E+02  0.85060440483E+02 -0.12672284177E+03  0.15800413043E+03  0.00000000000E+00 0. -1.
         21    1    1    2  505  503 -0.38635610676E+02 -0.80029281380E+02  0.12018503403E+02  0.89676310777E+02  0.00000000000E+00 0. -1.
          2    1    1    2  501    0  0.69211130524E+02  0.61266081487E+02 -0.55988100065E+03  0.56745964457E+03  0.00000000000E+00 0.  1.
<scales pt_clust_3="49.93756" pt_clust_4="154.29437" pt_clust_5="49.93756" pt_clust_6="92.43221"></scales>
<clustering>
<clus scale="   49.938">  3  5 -1 -1</clus>
<clus scale="   92.432">  2  6  1 -1</clus>
<clus scale="  154.294">  2  4  1 -1</clus>
<clus scale="  162.917">  1  3  2 -1</clus>
</clustering>
</event>
<event>
 6    0  0.6525019E+002  0.2602323E+03  0.7546771E-02  0.1107004E+00
         21   -1    0    0  503  502  0.00000000000E+00  0.00000000000E+00  0.77293275282E+03  0.77293275282E+03  0.00000000000E+00 0.  1.
          1   -1    0    0  504    0 -0.00000000000E+00 -0.00000000000E+00 -0.20669364738E+04  0.20669364738E+04  0.00000000000E+00 0. -1.
         21    1    1    2  503  505  0.18937861384E+01 -0.81383808129E+02  0.19624427888E+03  0.21245876693E+03  0.00000000000E+00 0.  1.
         21    1    1    2  504  502  0.11829083514E+03  0.23996044811E+03 -0.14335555934E+04  0.14583056530E+04  0.00000000000E+00 0. -1.
         21    1    1    2  505  501 -0.12244115117E+03 -0.12791950283E+03  0.54170832425E+03  0.56991503162E+03  0.00000000000E+00 0.  1.
          1    1    1    2  501    0  0.22565298983E+01 -0.30657137153E+02 -0.59840073070E+03  0.59918977502E+03  0.00000000000E+00 0. -1.
<scales pt_clust_3="65.04882" pt_clust_4="241.92080" pt_clust_5="65.04882" pt_clust_6="30.74007"></scales>
<clustering>
<clus scale="   30.740">  2  6  1 -1</clus>
<clus scale="   65.049">  3  5 -1 -1</clus>
<clus scale="  241.921">  2  4  1 -1</clus>
<clus scale="  260.232">  1  3  2 -1</clus>
</clustering>
</event>
<event>
 6    0  0.6525019E+002  0.9047746E+02  0.7546771E-02  0.1301700E+00
         21   -1    0    0  503  502  0.00000000000E+00  0.00000000000E+00  0.18398175538E+03  0.18398175538E+03  0.00000000000E+00 0.  1.
          2   -1    0    0  505    0 -0.00000000000E+00 -0.00000000000E+00 -0.52204444135E+03  0.52204444135E+03  0.00000000000E+00 0. -1.
         21    1    1    2  503  501  0.60925466914E+02  0.23819480602E+02 -0.93898601095E+01  0.66086682832E+02  0.00000000000E+00 0.  1.
         21    1    1    2  504  502 -0.34112270463E+02 -0.95642157294E+01  0.10378219411E+03  0.10966250514E+03  0.00000000000E+00 0.  1.
         21    1    1    2  505  504  0.16858708088E+02  0.67752653763E+02  0.16555335743E+02  0.71754562725E+02  0.00000000000E+00 0.  1.
          2    1    1    2  501    0 -0.43671904539E+02 -0.82007918636E+02 -0.44901035572E+03  0.45852244603E+03  0.00000000000E+00 0. -1.
<scales pt_clust_3="52.49681" pt_clust_4="35.42769" pt_clust_5="14000.00000" pt_clust_6="90.47746"></scales>
<clustering>
<clus scale="   35.428">  1  4  2 -1</clus>
<clus scale="   52.497">  1  3  2 -1</clus>
<clus scale="   90.477">  2  6  1 -1</clus>
<clus scale="   35.428">  1  3  2 -1</clus>
</clustering>
</event>
<event>
 6    0  0.6525019E+002  0.1667769E+03  0.7546771E-02  0.1181251E+00
          1   -1    0    0  503    0 -0.00000000000E+00  0.00000000000E+00  0.16100322999E+04  0.16100322999E+04  0.00000000000E+00 0.  1.
         21   -1    0    0  505  502  0.00000000000E+00 -0.00000000000E+00 -0.31273734215E+03  0.31273734215E+03  0.00000000000E+00 0.  1.
         21    1    1    2  503  502 -0.37416592740E+02  0.40905557736E+02  0.28607465945E+02  0.62383116095E+02  0.00000000000E+00 0. -1.
         21    1    1    2  504  501 -0.10066306969E+03 -0.24593620721E+02  0.39867038349E+03  0.41191743645E+03  0.00000000000E+00 0.  1.
         21    1    1    2  505  504  0.17075353179E+03  0.56054343252E+01 -0.26362535212E+03  0.31414410036E+03  0.00000000000E+00 0.  1.
          1    1    1    2  501    0 -0.32673869360E+02 -0.21917371340E+02  0.11336424604E+04  0.11343249891E+04  0.00000000000E+00 0.  1.
<scales pt_clust_3="56.12232" pt_clust_4="14000.00000" pt_clust_5="166.77693" pt_clust_6="39.34403"></scales>
<clustering>
<clus scale="   39.344">  1  6  2 -1</clus>
<clus scale="   56.122">  1  3  2 -1</clus>
<clus scale="  166.777">  2  5  1 -1</clus>
<clus scale="  166.777">  2  3  1 -1</clus>
</clustering>
</event>
<event>
 6    0  0.6525019E+002  0.1291955E+03  0.7546771E-02  0.1228654E+00
         21   -1    0    0  503  502  0.00000000000E+00  0.00000000000E+00  0.14816764387E+03  0.14816764387E+03  0.00000000000E+00 0.  1.
         -1   -1    0    0    0  501 -0.00000000000E+00 -0.00000000000E+00 -0.20023650123E+03  0.20023650123E+03  0.00000000000E+00 0. -1.
         21    1    1    2  503  505 -0.31598860396E+02  0.24768808764E+02  0.10851011261E+02  0.41589978496E+02  0.00000000000E+00 0.  1.
         21    1    1    2  504  501  0.39563653448E+02 -0.14284736186E+02 -0.14328360714E+02  0.44436902264E+02  0.00000000000E+00 0. -1.
         21    1    1    2  505  504  0.10015220366E+01  0.91840486544E+02  0.62486041696E+02  0.11108637820E+03  0.00000000000E+00 0.  1.
         -1    1    1    2    0  502 -0.89663150880E+01 -0.10232455912E+03 -0.11107754960E+03  0.15129088615E+03  0.00000000000E+00 0. -1.
<scales pt_clust_3="38.53988" pt_clust_4="42.06348" pt_clust_5="38.53988" pt_clust_6="115.29811"></scales>
<clustering>
<clus scale="   38.540">  3  5 -1 -1</clus>
<clus scale="   42.063">  2  4  1 -1</clus>
<clus scale="  115.298">  2  6  1 -1</clus>
<clus scale="  129.195">  1  3  2 -1</clus>
</clustering>
</event>
<event>
 6    0  0.6525019E+002  0.1098013E+03  0.7546771E-02  0.1260938E+00
         21   -1    0    0  505  502  0.00000000000E+00  0.00000000000E+00  0.48041138098E+03  0.48041138098E+03  0.00000000000E+00 0. -1.
         -1   -1    0    0    0  501 -0.00000000000E+00 -0.00000000000E+00 -0.13405239810E+04  0.13405239810E+04  0.00000000000E+00 0. -1.
         21    1    1    2  503  501 -0.78911066571E+02 -0.11452311958E+03 -0.77755188706E+03  0.78989204225E+03  0.00000000000E+00 0. -1.
         21    1    1    2  504  503  0.48602299359E+02  0.97020781917E+02  0.13063009784E+03  0.16982178331E+03  0.00000000000E+00 0. -1.
         21    1    1    2  505  504  0.29131546796E+02 -0.20192680055E+02  0.32238088726E+03  0.32432364671E+03  0.00000000000E+00 0. -1.
         -1    1    1    2    0  502  0.11772204164E+01  0.37695017715E+02 -0.53557169806E+03  0.53689788971E+03  0.00000000000E+00 0. -1.
<scales pt_clust_3="109.80130" pt_clust_4="14000.00000" pt_clust_5="35.44561" pt_clust_6="37.63223"></scales>
<clustering>
<clus scale="   35.446">  1  5  2 -1</clus>
<clus scale="   37.632">  2  6  1 -1</clus>
<clus scale="  109.801">  2  3  1 -1</clus>
<clus scale="   35.446">  1  3  2 -1</clus>
</clustering>
</event>
<event>
 6    0  0.6525019E+002  0.9457929E+02  0.7546771E-02  0.1292126E+00
         -1   -1    0    0    0  501 -0.00000000000E+00  0.00000000000E+00  0.19125088752E+03  0.19125088752E+03  0.00000000000E+00 0.  1.
         21   -1    0    0  503  502  0.00000000000E+00 -0.00000000000E+00 -0.76299730014E+03  0.76299730014E+03  0.00000000000E+00 0.  1.
         21    1    1    2  503  505  0.48654206693E+02  0.22389803785E+02 -0.56726781101E+03  0.56979057955E+03  0.00000000000E+00 0.  1.
         21    1    1    2  504  502 -0.14522644665E+02 -0.42965927758E+02 -0.10754083697E+03  0.11671336587E+03  0.00000000000E+00 0. -1.
         21    1    1    2  505  501  0.58429945856E+02  0.55552371923E+02 -0.42959556925E+02  0.91354518937E+02  0.00000000000E+00 0.  1.
         -1    1    1    2    0  504 -0.92561507884E+02 -0.34976247950E+02  0.14602179229E+03  0.17638972330E+03  0.00000000000E+00 0.  1.
<scales pt_clust_3="39.02552" pt_clust_4="45.35392" pt_clust_5="14000.00000" pt_clust_6="94.57929"></scales>
<clustering>
<clus scale="   45.354">  2  4  1 -1</clus>
<clus scale="   39.026">  2  3  1 -1</clus>
<clus scale="   94.579">  1  6  2 -1</clus>
<clus scale="   45.354">  2  3  1 -1</clus>
</clustering>
</event>
<event>
 6    0  0.6525019E+002  0.1343921E+03  0.7546771E-02  0.1221080E+00
          2   -1    0    0  503    0 -0.00000000000E+00  0.00000000000E+00  0.12803545572E+04  0.12803545572E+04  0.00000000000E+00 0.  1.
         21   -1    0    0  501  502  0.00000000000E+00 -0.00000000000E+00 -0.26726659966E+03  0.26726659966E+03  0.00000000000E+00 0. -1.
         21    1    1    2  503  505 -0.55687187088E+02  0.50533767490E+02  0.44134151249E+03  0.44770197131E+03  0.00000000000E+00 0.  1.
         21    1    1    2  504  502  0.11051202273E+03 -0.57631691174E+02 -0.24379332473E+03  0.27380559559E+03  0.00000000000E+00 0. -1.
         21    1    1    2  505  504 -0.40586882622E+02  0.35321458404E+02  0.14230106003E+03  0.15213313955E+03  0.00000000000E+00 0. -1.
          2    1    1    2  501    0 -0.14237953019E+02 -0.28223534720E+02  0.67323870979E+03  0.67398045044E+03  0.00000000000E+00 0.  1.
<scales pt_clust_3="42.71276" pt_clust_4="124.64974" pt_clust_5="42.71276" pt_clust_6="31.61150"></scales>
<clustering>
<clus scale="   31.612">  1  6  2 -1</clus>
<clus scale="   42.713">  3  5 -1 -1</clus>
<clus scale="  124.650">  2  4  1 -1</clus>
<clus scale="  124.650">  2  3  1 -1</clus>
</clustering>
</event>
<event>
 6    0  0.6525019E+002  0.1069866E+03  0.7546771E-02  0.1266254E+00
         21   -1    0    0  504  502  0.00000000000E+00  0.00000000000E+00  0.44204039511E+03  0.44204039511E+03  0.00000000000E+00 0. -1.
         -1   -1    0    0    0  501 -0.00000000000E+00 -0.00000000000E+00 -0.45937351325E+03  0.45937351325E+03  0.00000000000E+00 0.  1.
         21    1    1    2  503  502 -0.51389548895E+02  0.82311594897E+02 -0.58660287237E+02  0.11338921328E+03  0.00000000000E+00 0. -1.
         21    1    1    2  504  505 -0.50160876828E+02  0.17327727930E+02  0.38000848227E+03  0.38369624746E+03  0.00000000000E+00 0. -1.
         21    1    1    2  505  501  0.66930066759E+02 -0.10263829401E+03 -0.87043216144E+02  0.15030227779E+03  0.00000000000E+00 0. -1.
         -1    1    1    2    0  503  0.34620358963E+02  0.29989711818E+01 -0.25163809703E+03  0.25402616983E+03  0.00000000000E+00 0.  1.
<scales pt_clust_3="14000.00000" pt_clust_4="52.78618" pt_clust_5="106.98664" pt_clust_6="34.75001"></scales>
<clustering>
<clus scale="   34.750">  2  6  1 -1</clus>
<clus scale="   52.786">  1  4  2 -1</clus>
<clus scale="  106.987">  1  5  2 -1</clus>
<clus scale="   52.786">  1  3  2 -1</clus>
</clustering>
</event>
<event>
 6    0  0.6525019E+002  0.1157270E+03  0.7546771E-02  0.1250317E+00
          1   -1    0    0  505    0 -0.00000000000E+00  0.00000000000E+00  0.13419409975E+04  0.13419409975E+04  0.00000000000E+00 0.  1.
         21   -1    0    0  503  502  0.00000000000E+00 -0.00000000000E+00 -0.21801605870E+03  0.21801605870E+03  0.00000000000E+00 0. -1.
         21    1    1    2  503  504 -0.51800903433E+02 -0.13817224601E+02 -0.25440150598E+02  0.59341811184E+02  0.00000000000E+00 0. -1.
         21    1    1    2  504  501 -0.18894980374E+02  0.12599583552E+03  0.68706614604E+02  0.14475002502E+03  0.00000000000E+00 0. -1.
         21    1    1    2  505  502  0.10186880674E+03 -0.84684561865E+02 -0.10527188820E+03  0.16920667614E+03  0.00000000000E+00 0. -1.
          1    1    1    2  501    0 -0.31172922929E+02 -0.27494049056E+02  0.11859303629E+04  0.11866585438E+04  0.00000000000E+00 0.  1.
<scales pt_clust_3="57.69926" pt_clust_4="115.72698" pt_clust_5="14000.00000" pt_clust_6="41.56530"></scales>
<clustering>
<clus scale="   41.565">  1  6  2 -1</clus>
<clus scale="   57.699">  2  3  1 -1</clus>
<clus scale="  115.727">  1  4  2 -1</clus>
<clus scale="   57.699">  2  3  1 -1</clus>
</clustering>
</event>
<event>
 6    0  0.6525019E+002  0.9498363E+02  0.7546771E-02  0.1291213E+00
          3   -1    0    0  503    0 -0.00000000000E+00  0.00000000000E+00  0.85619691912E+03  0.85619691912E+03  0.00000000000E+00 0.  1.
         21   -1    0    0  505  502  0.00000000000E+00 -0.00000000000E+00 -0.12305856831E+03  0.12305856831E+03  0.00000000000E+00 0. -1.
         21    1    1    2  503  502 -0.78605215382E+02 -0.95072964353E+01  0.12131120237E+03  0.14486399273E+03  0.00000000000E+00 0. -1.
         21    1    1    2  504  501  0.95124528087E+02 -0.57575513686E+02 -0.72302648435E+02  0.13263215519E+03  0.00000000000E+00 0. -1.
         21    1    1    2  505  504  0.37875515163E+01  0.30878998136E+02  0.21467753907E+02  0.37798446135E+02  0.00000000000E+00 0. -1.
          3    1    1    2  501    0 -0.20306864221E+02  0.36203811986E+02  0.66266204297E+03  0.66396089338E+03  0.00000000000E+00 0.  1.
<scales pt_clust_3="14000.00000" pt_clust_4="94.98363" pt_clust_5="31.11042" pt_clust_6="41.65194"></scales>
<clustering>
<clus scale="   31.110">  2  5  1 -1</clus>
<clus scale="   41.652">  1  6  2 -1</clus>
<clus scale="   94.984">  2  4  1 -1</clus>
<clus scale="   31.110">  2  3  1 -1</clus>
</clustering>
</event>
<event>
 6    0  0.6525019E+002  0.1608755E+03  0.7546771E-02  0.1187712E+00
          1   -1    0    0  503    0 -0.00000000000E+00  0.00000000000E+00  0.91476530498E+03  0.91476530498E+03  0.00000000000E+00 0. -1.
         21   -1    0    0  501  502  0.00000000000E+00 -0.00000000000E+00 -0.25591764286E+03  0.25591764286E+03  0.00000000000E+00 0.  1.
         21    1    1    2  503  505  0.91629731310E+02  0.29358428182E+02  0.22745809446E+03  0.24697188038E+03  0.00000000000E+00 0. -1.
         21    1    1    2  504  502 -0.67666872544E+02 -0.23354273518E+02 -0.64302565851E+02  0.96223945598E+02  0.00000000000E+00 0. -1.
         21    1    1    2  505  504 -0.90537734394E+02 -0.16166995289E+02 -0.15126736364E+03  0.17703182874E+03  0.00000000000E+00 0.  1.
          1    1    1    2  501    0  0.66574875627E+02  0.10162840625E+02  0.64695949715E+03  0.65045529312E+03  0.00000000000E+00 0. -1.
<scales pt_clust_3="155.79870" pt_clust_4="35.37417" pt_clust_5="35.37417" pt_clust_6="67.34610"></scales>
<clustering>
<clus scale="   35.374">  4  5 -1 -1</clus>
<clus scale="   67.346">  1  6  2 -1</clus>
<clus scale="  155.799">  1  3  2 -1</clus>
<clus scale="  160.876">  2  3  1 -1</clus>
</clustering>
</event>
<event>
 6    0  0.6525019E+002  0.1095771E+03  0.7546771E-02  0.1261355E+00
         21   -1    0    0  503  502  0.00000000000E+00  0.00000000000E+00  0.11547617850E+03  0.11547617850E+03  0.00000000000E+00 0. -1.
          2   -1    0    0  505    0 -0.00000000000E+00 -0.00000000000E+00 -0.98749487758E+03  0.98749487758E+03  0.00000000000E+00 0. -1.
         21    1    1    2  503  501 -0.27119675117E+02 -0.16244911238E+02  0.56586298720E+02  0.64818077127E+02  0.00000000000E+00 0. -1.
         21    1    1    2  504  502 -0.51799509256E+02 -0.62558985166E+02  0.11796493485E+02  0.82072973887E+02  0.00000000000E+00 0. -1.
         21    1    1    2  505  504  0.10466668116E+03  0.94338529841E+02 -0.81738762620E+03  0.82944403297E+03  0.00000000000E+00 0. -1.
          2    1    1    2  501    0 -0.25747496790E+02 -0.15534633437E+02 -0.12301386508E+03  0.12663597210E+03  0.00000000000E+00 0. -1.
<scales pt_clust_3="31.75635" pt_clust_4="109.57709" pt_clust_5="14000.00000" pt_clust_6="30.07089"></scales>
<clustering>
<clus scale="   30.071">  2  6  1 -1</clus>
<clus scale="   31.756">  1  3  2 -1</clus>
<clus scale="  109.577">  1  4  2 -1</clus>
<clus scale="   31.756">  1  3  2 -1</clus>
</clustering>
</event>
<event>
 6    0  0.6525019E+002  0.1700847E+03  0.7546771E-02  0.1177760E+00
          1   -1    0    0  505    0 -0.00000000000E+00  0.00000000000E+00  0.20534430945E+03  0.20534430945E+03  0.00000000000E+00 0.  1.
         21   -1    0    0  503  502  0.00000000000E+00 -0.00000000000E+00 -0.36906469590E+03  0.36906469590E+03  0.00000000000E+00 0.  1.
         21    1    1    2  503  501  0.45768862754E+01  0.79805951097E+02  0.24920623827E+02  0.83731566391E+02  0.00000000000E+00 0.  1.
         21    1    1    2  504  502  0.41046534364E+02  0.77458417407E+01 -0.19023043533E+03  0.19476250813E+03  0.00000000000E+00 0.  1.
         21    1    1    2  505  504 -0.12190120753E+02 -0.16496584698E+03 -0.75345605143E+02  0.18176713105E+03  0.00000000000E+00 0.  1.
          1    1    1    2  501    0 -0.33433299886E+02  0.77414054146E+02  0.76935030201E+02  0.11414779977E+03  0.00000000000E+00 0.  1.
<scales pt_clust_3="56.30172" pt_clust_4="41.77100" pt_clust_5="160.30585" pt_clust_6="56.30172"></scales>
<clustering>
<clus scale="   41.771">  2  4  1 -1</clus>
<clus scale="   56.302">  3  6 -1 -1</clus>
<clus scale="  160.306">  2  5  1 -1</clus>
<clus scale="   41.771">  2  3  1 -1</clus>
</clustering>
</event>
<event>
 6    0  0.6525019E+002  0.1230926E+03  0.7546771E-02  0.1238081E+00
          2   -1    0    0  503    0 -0.00000000000E+00  0.00000000000E+00  0.11792778879E+04  0.11792778879E+04  0.00000000000E+00 0.  1.
         21   -1    0    0  501  502  0.00000000000E+00 -0.00000000000E+00 -0.13884353046E+04  0.13884353046E+04  0.00000000000E+00 0. -1.
         21    1    1    2  503  505  0.21609669996E+02  0.59084327434E+02  0.17833773570E+02  0.65390970825E+02  0.00000000000E+00 0. -1.
         21    1    1    2  504  502  0.36927034219E+02  0.72265150786E+01 -0.52506331666E+03  0.52640983547E+03  0.00000000000E+00 0.  1.
         21    1    1    2  505  504  0.36162755058E+02 -0.10707811321E+03 -0.83275776724E+03  0.84039215018E+03  0.00000000000E+00 0. -1.
          2    1    1    2  501    0 -0.94699459273E+02  0.40767270695E+02  0.11308298937E+04  0.11355202360E+04  0.00000000000E+00 0.  1.
<scales pt_clust_3="63.45501" pt_clust_4="37.62749" pt_clust_5="14000.00000" pt_clust_6="123.09257"></scales>
<clustering>
<clus scale="   37.627">  2  4  1 -1</clus>
<clus scale="   63.455">  1  3  2 -1</clus>
<clus scale="  123.093">  1  6  2 -1</clus>
<clus scale="   37.627">  2  3  1 -1</clus>
</clustering>
</event>
<event>
 6    0  0.6525019E+002  0.2479776E+03  0.7546771E-02  0.1114590E+00
          2   -1    0    0  503    0 -0.00000000000E+00  0.00000000000E+00  0.69130993366E+03  0.69130993366E+03  0.00000000000E+00 0.  1.
         21   -1    0    0  505  502  0.00000000000E+00 -0.00000000000E+00 -0.53396870074E+03  0.53396870074E+03  0.00000000000E+00 0.  1.
         21    1    1    2  503  502 -0.25615565826E+03  0.82457054864E+02  0.31494960618E+03  0.41425613042E+03  0.00000000000E+00 0.  1.
         21    1    1    2  504  501  0.19205051652E+03 -0.71594493936E+02 -0.37954322505E+03  0.43134931568E+03  0.00000000000E+00 0.  1.
         21    1    1    2  505  504  0.15990988371E+02 -0.37372021750E+02 -0.70902148238E+02  0.81728173499E+02  0.00000000000E+00 0. -1.
          2    1    1    2  501    0  0.48114153367E+02  0.26509460822E+02  0.29283700002E+03  0.29794501481E+03  0.00000000000E+00 0.  1.
<scales pt_clust_3="237.27698" pt_clust_4="32.09076" pt_clust_5="32.09076" pt_clust_6="54.93381"></scales>
<clustering>
<clus scale="   32.091">  4  5 -1 -1</clus>
<clus scale="   54.934">  1  6  2 -1</clus>
<clus scale="  237.277">  1  3  2 -1</clus>
<clus scale="  247.978">  2  3  1 -1</clus>
</clustering>
</event>
<event>
 6    0  0.6525019E+002  0.1062161E+03  0.7546771E-02  0.1267742E+00
          2   -1    0    0  502    0 -0.00000000000E+00  0.00000000000E+00  0.13456851616E+04  0.13456851616E+04  0.00000000000E+00 0. -1.
         21   -1    0    0  504  502  0.00000000000E+00 -0.00000000000E+00 -0.20546269023E+03  0.20546269023E+03  0.00000000000E+00 0. -1.
         21    1    1    2  503  501 -0.81222821476E+02  0.10785768852E+03  0.83852016437E+03  0.84932119587E+03  0.00000000000E+00 0. -1.
         21    1    1    2  504  505  0.31534616946E+02 -0.39028606044E+02 -0.17319466732E+03  0.18031654650E+03  0.00000000000E+00 0. -1.
         21    1    1    2  505  503  0.59209259428E+02 -0.30051211994E+02  0.26745074652E+02  0.71582894342E+02  0.00000000000E+00 0. -1.
          2    1    1    2  501    0 -0.95210548977E+01 -0.38777870483E+02  0.44815189969E+03  0.44992721514E+03  0.00000000000E+00 0. -1.
<scales pt_clust_3="14000.00000" pt_clust_4="50.27251" pt_clust_5="106.21608" pt_clust_6="39.92961"></scales>
<clustering>
<clus scale="   39.930">  1  6  2 -1</clus>
<clus scale="   50.273">  2  4  1 -1</clus>
<clus scale="  106.216">  2  5  1 -1</clus>
<clus scale="   50.273">  2  3  1 -1</clus>
</clustering>
</event>
<event>
 6    0  0.6525019E+002  0.5738474E+02  0.7546771E-02  0.1409146E+00
         21   -1    0    0  503  502  0.00000000000E+00  0.00000000000E+00  0.16655350931E+04  0.16655350931E+04  0.00000000000E+00 0.  1.
          1   -1    0    0  505    0 -0.00000000000E+00 -0.00000000000E+00 -0.36149950549E+03  0.36149950549E+03  0.00000000000E+00 0. -1.
         21    1    1    2  503  504  0.48763808070E+02  0.22552182942E+02  0.15455969263E+04  0.15465304293E+04  0.00000000000E+00 0.  1.
         21    1    1    2  504  501  0.54363489423E+02  0.98478003483E+01 -0.92427287369E+02  0.10768087855E+03  0.00000000000E+00 0. -1.
         21    1    1    2  505  502 -0.92553285763E+02  0.14373375849E+02  0.89422035010E+02  0.12949519290E+03  0.00000000000E+00 0. -1.
          1    1    1    2  501    0 -0.10574011731E+02 -0.46773359140E+02 -0.23855608640E+03  0.24332809786E+03  0.00000000000E+00 0. -1.
<scales pt_clust_3="53.61328" pt_clust_4="14000.00000" pt_clust_5="57.38474" pt_clust_6="47.95369"></scales>
<clustering>
<clus scale="   47.954">  2  6  1 -1</clus>
<clus scale="   53.613">  1  3  2 -1</clus>
<clus scale="   57.385">  1  5  2 -1</clus>
<clus scale="   53.613">  1  3  2 -1</clus>
</clustering>
</event>
<event>
 6    0  0.6525019E+002  0.1471521E+03  0.7546771E-02  0.1204017E+00
          1   -1    0    0  503    0 -0.00000000000E+00  0.00000000000E+00  0.36726311301E+03  0.36726311301E+03  0.00000000000E+00 0. -1.
         21   -1    0    0  504  502  0.00000000000E+00 -0.00000000000E+00 -0.89305760425E+03  0.89305760425E+03  0.00000000000E+00 0. -1.
         21    1    1    2  503  502  0.58132022560E+02  0.22048200410E+02 -0.19980099870E+03  0.20925079276E+03  0.00000000000E+00 0.  1.
         21    1    1    2  504  505  0.27031537850E+02 -0.14084440884E+03 -0.60955789730E+03  0.62620178992E+03  0.00000000000E+00 0. -1.
         21    1    1    2  505  501 -0.14164157752E+03  0.10753563224E+03  0.50607342500E+02  0.18489822010E+03  0.00000000000E+00 0. -1.
          1    1    1    2  501    0  0.56478017109E+02  0.11260576195E+02  0.23295706227E+03  0.23996991448E+03  0.00000000000E+00 0. -1.
<scales pt_clust_3="64.22552" pt_clust_4="14000.00000" pt_clust_5="147.15213" pt_clust_6="57.58964"></scales>
<clustering>
<clus scale="   57.590">  1  6  2 -1</clus>
<clus scale="   64.226">  2  3  1 -1</clus>
<clus scale="  147.152">  1  5  2 -1</clus>
<clus scale="   64.226">  2  3  1 -1</clus>
</clustering>
</event>
<event>
 6    0  0.1020168E+003  0.1421851E+03  0.7546771E-02  0.1210419E+00
          2   -1    0    0  504    0 -0.00000000000E+00  0.00000000000E+00  0.58820119399E+03  0.58820119399E+03  0.00000000000E+00 0.  1.
         21   -1    0    0  505  502  0.00000000000E+00 -0.00000000000E+00 -0.69241447763E+03  0.69241447763E+03  0.00000000000E+00 0. -1.
         21    1    1    2  503  502 -0.63971411576E+02  0.11456701375E+02 -0.83226802338E+02  0.10559497210E+03  0.00000000000E+00 0. -1.
         21    1    1    2  504  503  0.63255904601E+02  0.37978676530E+01  0.15548382123E+02  0.65249409593E+02  0.00000000000E+00 0. -1.
         21    1    1    2  505  501 -0.68884346901E+02 -0.74138892404E+02 -0.56475030338E+03  0.57374605339E+03  0.00000000000E+00 0. -1.
          2    1    1    2  501    0  0.69599853876E+02  0.58884323376E+02  0.52821543995E+03  0.53602523654E+03  0.00000000000E+00 0.  1.
<scales pt_clust_3="63.73238" pt_clust_4="63.36981" pt_clust_5="14000.00000" pt_clust_6="142.18508"></scales>
<clustering>
<clus scale="   63.370">  1  4  2 -1</clus>
<clus scale="   63.732">  2  3  1 -1</clus>
<clus scale="  142.185">  1  6  2 -1</clus>
<clus scale="   63.732">  2  3  1 -1</clus>
</clustering>
</event>
<event>
 6    0  0.1237593E+003  0.7728555E+02  0.7546771E-02  0.1336936E+00
         21   -1    0    0  504  502  0.00000000000E+00  0.00000000000E+00  0.12998383545E+04  0.12998383545E+04  0.00000000000E+00 0.  1.
          2   -1    0    0  503    0 -0.00000000000E+00 -0.00000000000E+00 -0.12120849728E+04  0.12120849728E+04  0.00000000000E+00 0. -1.
         21    1    1    2  503  502  0.13322505866E+03  0.35702789144E+02 -0.49487532661E+03  0.51373650278E+03  0.00000000000E+00 0. -1.
         21    1    1    2  504  505 -0.30622812884E+02 -0.16674337413E+02  0.12712429234E+04  0.12717210231E+04  0.00000000000E+00 0.  1.
         21    1    1    2  505  501 -0.43641857825E+02  0.13000075398E+02 -0.12762595764E+02  0.47291622571E+02  0.00000000000E+00 0. -1.
          2    1    1    2  501    0 -0.58960387947E+02 -0.32028527128E+02 -0.67585161933E+03  0.67917417887E+03  0.00000000000E+00 0. -1.
<scales pt_clust_3="77.28555" pt_clust_4="34.86818" pt_clust_5="62.35135" pt_clust_6="14000.00000"></scales>
<clustering>
<clus scale="   34.868">  1  4  2 -1</clus>
<clus scale="   62.351">  1  5  2 -1</clus>
<clus scale="   77.286">  1  3  2 -1</clus>
<clus scale="   34.868">  1  3  2 -1</clus>
</clustering>
</event>
<event>
 6    0  0.6525019E+002  0.1773443E+03  0.7546771E-02  0.1170398E+00
         21   -1    0    0  503  502  0.00000000000E+00  0.00000000000E+00  0.14373267187E+03  0.14373267187E+03  0.00000000000E+00 0. -1.
          1   -1    0    0  504    0 -0.00000000000E+00 -0.00000000000E+00 -0.24114848400E+04  0.24114848400E+04  0.00000000000E+00 0.  1.
         21    1    1    2  503  505  0.45585687213E+02 -0.27406018320E+02  0.77434277405E+02  0.93942599688E+02  0.00000000000E+00 0. -1.
         21    1    1    2  504  502  0.97160285185E+02 -0.14258132465E+03 -0.19496371303E+03  0.26034670068E+03  0.00000000000E+00 0. -1.
         21    1    1    2  505  501 -0.12467350877E+03  0.13075383075E+03 -0.29999088354E+03  0.35019220187E+03  0.00000000000E+00 0.  1.
          1    1    1    2  501    0 -0.18072463627E+02  0.39233512225E+02 -0.18502318490E+04  0.18507360096E+04  0.00000000000E+00 0.  1.
<scales pt_clust_3="52.66560" pt_clust_4="14000.00000" pt_clust_5="177.34434" pt_clust_6="43.19586"></scales>
<clustering>
<clus scale="   43.196">  2  6  1 -1</clus>
<clus scale="   52.666">  1  3  2 -1</clus>
<clus scale="  177.344">  1  5  2 -1</clus>
<clus scale="   52.666">  1  3  2 -1</clus>
</clustering>
</event>
<event>
 6    0  0.6525019E+002  0.1119834E+03  0.7546771E-02  0.1256940E+00
         21   -1    0    0  504  502  0.00000000000E+00  0.00000000000E+00  0.61765339134E+03  0.61765339134E+03  0.00000000000E+00 0. -1.
         -1   -1    0    0    0  501 -0.00000000000E+00 -0.00000000000E+00 -0.38389469595E+03  0.38389469595E+03  0.00000000000E+00 0. -1.
         21    1    1    2  503  501 -0.28980223594E+02  0.12919126821E+02  0.20723244607E+01  0.31797039579E+02  0.00000000000E+00 0.  1.
         21    1    1    2  504  505  0.66206282285E+02 -0.22685295065E+02  0.56094415838E+03  0.56529305961E+03  0.00000000000E+00 0. -1.
         21    1    1    2  505  503 -0.80122571286E+02 -0.86486337467E+02 -0.23569699936E+03  0.26353859016E+03  0.00000000000E+00 0. -1.
         -1    1    1    2    0  502  0.42896512594E+02  0.96252505712E+02 -0.93560788089E+02  0.14091939794E+03  0.00000000000E+00 0. -1.
<scales pt_clust_3="31.72944" pt_clust_4="69.79875" pt_clust_5="111.98336" pt_clust_6="14000.00000"></scales>
<clustering>
<clus scale="   31.729">  2  3  1 -1</clus>
<clus scale="   69.799">  1  4  2 -1</clus>
<clus scale="  111.983">  2  5  1 -1</clus>
<clus scale="   69.799">  1  3  2 -1</clus>
</clustering>
</event>
<event>
 6    0  0.6525019E+002  0.1099384E+03  0.7546771E-02  0.1260684E+00
          1   -1    0    0  505    0 -0.00000000000E+00  0.00000000000E+00  0.48664081135E+03  0.48664081135E+03  0.00000000000E+00 0.  1.
         21   -1    0    0  503  502  0.00000000000E+00 -0.00000000000E+00 -0.23892398326E+03  0.23892398326E+03  0.00000000000E+00 0.  1.
         21    1    1    2  503  501  0.43368216443E+02 -0.68415186074E+02 -0.16190928422E+03  0.18104158693E+03  0.00000000000E+00 0.  1.
         21    1    1    2  504  502  0.23801958284E+02 -0.24751445384E+02 -0.13365192466E+02  0.36848278609E+02  0.00000000000E+00 0. -1.
         21    1    1    2  505  504 -0.10085575356E+03  0.76675866003E+02  0.55569622061E+02  0.13834397113E+03  0.00000000000E+00 0.  1.
          1    1    1    2  501    0  0.33685578829E+02  0.16490765455E+02  0.36742168271E+03  0.36933095794E+03  0.00000000000E+00 0.  1.
<scales pt_clust_3="14000.00000" pt_clust_4="34.33901" pt_clust_5="109.93840" pt_clust_6="37.55265"></scales>
<clustering>
<clus scale="   34.339">  2  4  1 -1</clus>
<clus scale="   37.553">  1  6  2 -1</clus>
<clus scale="  109.938">  1  5  2 -1</clus>
<clus scale="   34.339">  2  3  1 -1</clus>
</clustering>
</event>
<event>
 6    0  0.6525019E+002  0.1566728E+03  0.7546771E-02  0.1192505E+00
         21   -1    0    0  501  502  0.00000000000E+00  0.00000000000E+00  0.88773694288E+03  0.88773694288E+03  0.00000000000E+00 0. -1.
          1   -1    0    0  504    0 -0.00000000000E+00 -0.00000000000E+00 -0.65346958469E+03  0.65346958469E+03  0.00000000000E+00 0. -1.
         21    1    1    2  503  505 -0.98443349681E+02 -0.87418407850E+02  0.21411505508E+03  0.25135299469E+03  0.00000000000E+00 0. -1.
         21    1    1    2  504  503  0.33159023928E+02 -0.50976624254E+02 -0.75548518776E+02  0.96983069540E+02  0.00000000000E+00 0. -1.
         21    1    1    2  505  502 -0.33352447203E+02 -0.18549481403E+01  0.63043488450E+03  0.63131923000E+03  0.00000000000E+00 0. -1.
          1    1    1    2  501    0  0.98636772956E+02  0.14024998024E+03 -0.53473406262E+03  0.56155123334E+03  0.00000000000E+00 0. -1.
<scales pt_clust_3="156.67276" pt_clust_4="60.13054" pt_clust_5="33.40399" pt_clust_6="14000.00000"></scales>
<clustering>
<clus scale="   33.404">  1  5  2 -1</clus>
<clus scale="   60.131">  2  4  1 -1</clus>
<clus scale="  156.673">  1  3  2 -1</clus>
<clus scale="   33.404">  1  3  2 -1</clus>
</clustering>
</event>
<event>
 6    0  0.6525019E+002  0.1117907E+03  0.7546771E-02  0.1257289E+00
         21   -1    0    0  505  502  0.00000000000E+00  0.00000000000E+00  0.90119970518E+02  0.90119970518E+02  0.00000000000E+00 0.  1.
          2   -1    0    0  504    0 -0.00000000000E+00 -0.00000000000E+00 -0.16100417492E+04  0.16100417492E+04  0.00000000000E+00 0.  1.
         21    1    1    2  503  501  0.50326167597E+02  0.11799320667E+03 -0.77520122306E+03  0.78574299628E+03  0.00000000000E+00 0.  1.
         21    1    1    2  504  502 -0.97238883514E+02 -0.12768132170E+03 -0.34964944608E+02  0.16425732169E+03  0.00000000000E+00 0.  1.
         21    1    1    2  505  503  0.29672397214E+02  0.46750649878E+02 -0.19513323902E+02  0.58709830779E+02  0.00000000000E+00 0.  1.
          2    1    1    2  501    0  0.17240318702E+02 -0.37062534843E+02 -0.69024228709E+03  0.69145157095E+03  0.00000000000E+00 0.  1.
<scales pt_clust_3="14000.00000" pt_clust_4="111.79069" pt_clust_5="54.45348" pt_clust_6="40.87616"></scales>
<clustering>
<clus scale="   40.876">  2  6  1 -1</clus>
<clus scale="   54.453">  1  5  2 -1</clus>
<clus scale="  111.791">  1  4  2 -1</clus>
<clus scale="   54.453">  1  3  2 -1</clus>
</clustering>
</event>
<event>
 6    0  0.6525019E+002  0.8192216E+02  0.7546771E-02  0.1323683E+00
          2   -1    0    0  503    0 -0.00000000000E+00  0.00000000000E+00  0.33137830891E+03  0.33137830891E+03  0.00000000000E+00 0. -1.
         21   -1    0    0  505  502  0.00000000000E+00 -0.00000000000E+00 -0.21641194171E+03  0.21641194171E+03  0.00000000000E+00 0. -1.
         21    1    1    2  503  504  0.13865679313E+03 -0.41140047620E+02  0.17074829710E+03  0.22377039742E+03  0.00000000000E+00 0. -1.
         21    1    1    2  504  502 -0.62594720342E+02  0.48835424671E+02 -0.15946034558E+03  0.17813084946E+03  0.00000000000E+00 0. -1.
         21    1    1    2  505  501 -0.43116763411E+02  0.15324530340E+02  0.14384063668E+02  0.47966632202E+02  0.00000000000E+00 0. -1.
          2    1    1    2  501    0 -0.32945309378E+02 -0.23019907392E+02  0.89294352015E+02  0.97922371541E+02  0.00000000000E+00 0. -1.
<scales pt_clust_3="14000.00000" pt_clust_4="81.92216" pt_clust_5="49.00670" pt_clust_6="40.19091"></scales>
<clustering>
<clus scale="   40.191">  1  6  2 -1</clus>
<clus scale="   49.007">  1  5  2 -1</clus>
<clus scale="   81.922">  2  4  1 -1</clus>
<clus scale="   81.922">  2  3  1 -1</clus>
</clustering>
</event>
<event>
 6    0  0.6525019E+002  0.6475904E+02  0.7546771E-02  0.1378880E+00
         21   -1    0    0  503  502  0.00000000000E+00  0.00000000000E+00  0.75896451693E+02  0.75896451693E+02  0.00000000000E+00 0.  1.
         -1   -1    0    0    0  501 -0.00000000000E+00 -0.00000000000E+00 -0.57221034780E+03  0.57221034780E+03  0.00000000000E+00 0.  1.
         21    1    1    2  503  501  0.22749534480E+02  0.32838868504E+02 -0.21675216141E+02  0.45450496130E+02  0.00000000000E+00 0.  1.
         21    1    1    2  504  502 -0.70817816140E+02 -0.81999658336E+01  0.18116423908E+02  0.73556830667E+02  0.00000000000E+00 0.  1.
         21    1    1    2  505  504  0.64282060503E+02 -0.75777480386E+02 -0.13656343805E+03  0.16889044511E+03  0.00000000000E+00 0.  1.
         -1    1    1    2    0  505 -0.16213778843E+02  0.51138577715E+02 -0.35619166583E+03  0.36020902759E+03  0.00000000000E+00 0.  1.
<scales pt_clust_3="39.94913" pt_clust_4="14000.00000" pt_clust_5="64.75904" pt_clust_6="54.42299"></scales>
<clustering>
<clus scale="   39.949">  1  3  2 -1</clus>
<clus scale="   54.423">  2  6  1 -1</clus>
<clus scale="   64.759">  2  5  1 -1</clus>
<clus scale="   39.949">  1  3  2 -1</clus>
</clustering>
</event>
<event>
 6    0  0.6525019E+002  0.1897274E+03  0.7546771E-02  0.1158707E+00
         21   -1    0    0  505  502  0.00000000000E+00  0.00000000000E+00  0.13108099182E+03  0.13108099182E+03  0.00000000000E+00 0.  1.
          1   -1    0    0  504    0 -0.00000000000E+00 -0.00000000000E+00 -0.78644379758E+03  0.78644379758E+03  0.00000000000E+00 0.  1.
         21    1    1    2  503  501  0.89725583701E+02 -0.15744038235E+03 -0.22446722683E+03  0.28848516476E+03  0.00000000000E+00 0.  1.
         21    1    1    2  504  502 -0.56151866144E+02 -0.61764935063E+02  0.27864800873E+02  0.88002195441E+02  0.00000000000E+00 0.  1.
         21    1    1    2  505  503 -0.45437683702E+02  0.10360949671E+02 -0.12605053014E+02  0.48278563978E+02  0.00000000000E+00 0.  1.
          1    1    1    2  501    0  0.11863966145E+02  0.20884436774E+03 -0.44615532679E+03  0.49275886523E+03  0.00000000000E+00 0.  1.
<scales pt_clust_3="14000.00000" pt_clust_4="97.42742" pt_clust_5="46.60400" pt_clust_6="189.72735"></scales>
<clustering>
<clus scale="   46.604">  1  5  2 -1</clus>
<clus scale="   97.427">  1  4  2 -1</clus>
<clus scale="  189.727">  2  6  1 -1</clus>
<clus scale="   46.604">  1  3  2 -1</clus>
</clustering>
</event>
<event>
 6    0  0.6525019E+002  0.7212726E+02  0.7546771E-02  0.1353005E+00
         21   -1    0    0  504  502  0.00000000000E+00  0.00000000000E+00  0.39320712187E+03  0.39320712187E+03  0.00000000000E+00 0.  1.
          2   -1    0    0  505    0 -0.00000000000E+00 -0.00000000000E+00 -0.72546858327E+03  0.72546858327E+03  0.00000000000E+00 0. -1.
         21    1    1    2  503  501 -0.42070216679E+02 -0.66139457447E+02  0.10811565334E+03  0.13354147468E+03  0.00000000000E+00 0.  1.
         21    1    1    2  504  503  0.52891154828E+02 -0.74312325770E+01  0.25937407128E+03  0.26481617460E+03  0.00000000000E+00 0.  1.
         21    1    1    2  505  502 -0.68282853798E+02  0.51899727372E+02 -0.21163782068E+03  0.22835651286E+03  0.00000000000E+00 0. -1.
          2    1    1    2  501    0  0.57461915649E+02  0.21670962652E+02 -0.48811336534E+03  0.49196154301E+03  0.00000000000E+00 0. -1.
<scales pt_clust_3="72.12726" pt_clust_4="53.41065" pt_clust_5="14000.00000" pt_clust_6="62.10147"></scales>
<clustering>
<clus scale="   53.411">  1  4  2 -1</clus>
<clus scale="   62.101">  2  6  1 -1</clus>
<clus scale="   72.127">  1  3  2 -1</clus>
<clus scale="   53.411">  1  3  2 -1</clus>
</clustering>
</event>
<event>
 6    0  0.6525019E+002  0.1494914E+03  0.7546771E-02  0.1201099E+00
         -1   -1    0    0    0  501 -0.00000000000E+00  0.00000000000E+00  0.62526449553E+03  0.62526449553E+03  0.00000000000E+00 0. -1.
         21   -1    0    0  503  502  0.00000000000E+00 -0.00000000000E+00 -0.55052086763E+02  0.55052086763E+02  0.00000000000E+00 0. -1.
         21    1    1    2  503  505  0.39853388515E+02  0.67392128879E+01  0.38283753658E+02  0.55671854295E+02  0.00000000000E+00 0. -1.
         21    1    1    2  504  502 -0.10579478585E+03 -0.68482990000E+02  0.14791026867E+03  0.19431907835E+03  0.00000000000E+00 0. -1.
         21    1    1    2  505  501  0.50612935524E+02  0.10982134588E+03  0.15922227127E+03  0.19993531185E+03  0.00000000000E+00 0. -1.
         -1    1    1    2    0  504  0.15328461812E+02 -0.48077568765E+02  0.22479611517E+03  0.23039033781E+03  0.00000000000E+00 0. -1.
<scales pt_clust_3="39.02338" pt_clust_4="133.38595" pt_clust_5="39.02338" pt_clust_6="50.46201"></scales>
<clustering>
<clus scale="   39.023">  3  5 -1 -1</clus>
<clus scale="   50.462">  1  6  2 -1</clus>
<clus scale="  133.386">  2  4  1 -1</clus>
<clus scale="  133.386">  2  3  1 -1</clus>
</clustering>
</event>
<event>
 6    0  0.6525019E+002  0.8994020E+02  0.7546771E-02  0.1302997E+00
          2   -1    0    0  503    0 -0.00000000000E+00  0.00000000000E+00  0.54902810549E+03  0.54902810549E+03  0.00000000000E+00 0. -1.
         21   -1    0    0  505  502  0.00000000000E+00 -0.00000000000E+00 -0.39166874310E+03  0.39166874310E+03  0.00000000000E+00 0.  1.
         21    1    1    2  503  502 -0.15188391373E+03 -0.32404643936E+02  0.31022733785E+03  0.34692907827E+03  0.00000000000E+00 0. -1.
         21    1    1    2  504  501  0.39568375775E+02  0.19570749099E+02  0.24550688729E+02  0.50511453145E+02  0.00000000000E+00 0. -1.
         21    1    1    2  505  504  0.82088753151E+02  0.34091478855E+02 -0.35290223885E+03  0.36392414390E+03  0.00000000000E+00 0.  1.
          2    1    1    2  501    0  0.30226784809E+02 -0.21257584018E+02  0.17548357466E+03  0.17933217328E+03  0.00000000000E+00 0. -1.
<scales pt_clust_3="89.94020" pt_clust_4="46.04506" pt_clust_5="14000.00000" pt_clust_6="36.95326"></scales>
<clustering>
<clus scale="   36.953">  1  6  2 -1</clus>
<clus scale="   46.045">  1  4  2 -1</clus>
<clus scale="   89.940">  1  3  2 -1</clus>
<clus scale="   89.940">  2  3  1 -1</clus>
</clustering>
</event>
<event>
 6    0  0.6525019E+002  0.1246080E+03  0.7546771E-02  0.1235683E+00
         21   -1    0    0  504  502  0.00000000000E+00  0.00000000000E+00  0.76833028364E+02  0.76833028364E+02  0.00000000000E+00 0. -1.
          1   -1    0    0  503    0 -0.00000000000E+00 -0.00000000000E+00 -0.25312984743E+04  0.25312984743E+04  0.00000000000E+00 0. -1.
         21    1    1    2  503  505 -0.64251486679E+02 -0.26799596580E+02 -0.33122908920E+03  0.33846592362E+03  0.00000000000E+00 0.  1.
         21    1    1    2  504  501 -0.33528748604E+02 -0.35854209488E+02  0.97197544510E+01  0.50041732060E+02  0.00000000000E+00 0. -1.
         21    1    1    2  505  502  0.14922970373E+03 -0.13586499650E+02 -0.90411717681E+02  0.17500964586E+03  0.00000000000E+00 0. -1.
          1    1    1    2  501    0 -0.51449468452E+02  0.76240305717E+02 -0.20425443935E+04  0.20446142011E+04  0.00000000000E+00 0. -1.
<scales pt_clust_3="73.08164" pt_clust_4="49.08871" pt_clust_5="124.60804" pt_clust_6="14000.00000"></scales>
<clustering>
<clus scale="   49.089">  1  4  2 -1</clus>
<clus scale="   73.082">  2  3  1 -1</clus>
<clus scale="  124.608">  1  5  2 -1</clus>
<clus scale="   49.089">  1  3  2 -1</clus>
</clustering>
</event>
<event>
 6    0  0.6525019E+002  0.1028361E+03  0.7546771E-02  0.1274443E+00
          1   -1    0    0  504    0 -0.00000000000E+00  0.00000000000E+00  0.14250192808E+04  0.14250192808E+04  0.00000000000E+00 0. -1.
         21   -1    0    0  505  502  0.00000000000E+00 -0.00000000000E+00 -0.14568624248E+03  0.14568624248E+03  0.00000000000E+00 0. -1.
         21    1    1    2  503  502  0.19165903915E+02  0.82483268655E+02  0.24457152442E+02  0.88141782297E+02  0.00000000000E+00 0. -1.
         21    1    1    2  504  503  0.29094062956E+01 -0.11469690856E+03  0.14317497390E+03  0.18347457216E+03  0.00000000000E+00 0. -1.
         21    1    1    2  505  501  0.14643963125E+02  0.31276268839E+02 -0.90221707399E+02  0.96605419799E+02  0.00000000000E+00 0. -1.
          1    1    1    2  501    0 -0.36719273335E+02  0.93737106765E+00  0.12019226194E+04  0.12024837491E+04  0.00000000000E+00 0. -1.
<scales pt_clust_3="14000.00000" pt_clust_4="102.83606" pt_clust_5="34.53477" pt_clust_6="36.65734"></scales>
<clustering>
<clus scale="   34.535">  2  5  1 -1</clus>
<clus scale="   36.657">  1  6  2 -1</clus>
<clus scale="  102.836">  1  4  2 -1</clus>
<clus scale="   34.535">  2  3  1 -1</clus>
</clustering>
</event>
<event>
 6    0  0.6525019E+002  0.7409203E+02  0.7546771E-02  0.1346706E+00
         21   -1    0    0  503  502  0.00000000000E+00  0.00000000000E+00  0.25503704350E+02  0.25503704350E+02  0.00000000000E+00 0. -1.
          2   -1    0    0  502    0 -0.00000000000E+00 -0.00000000000E+00 -0.17066871718E+04  0.17066871718E+04  0.00000000000E+00 0. -1.
         21    1    1    2  503  505  0.62898473839E+02  0.11400117104E+02 -0.58025648084E+02  0.86331665783E+02  0.00000000000E+00 0.  1.
         21    1    1    2  504  501 -0.17588721322E+01 -0.60891377922E+02 -0.43844660963E+03  0.44265820114E+03  0.00000000000E+00 0. -1.
         21    1    1    2  505  504 -0.86573372923E+02  0.67298948705E+02 -0.32637164531E+03  0.34430008460E+03  0.00000000000E+00 0. -1.
          2    1    1    2  501    0  0.25433771216E+02 -0.17807687887E+02 -0.85833956443E+03  0.85890092463E+03  0.00000000000E+00 0. -1.
<scales pt_clust_3="65.80969" pt_clust_4="14000.00000" pt_clust_5="74.09203" pt_clust_6="31.04820"></scales>
<clustering>
<clus scale="   31.048">  2  6  1 -1</clus>
<clus scale="   65.810">  1  3  2 -1</clus>
<clus scale="   74.092">  1  5  2 -1</clus>
<clus scale="   65.810">  1  3  2 -1</clus>
</clustering>
</event>
<event>
 6    0  0.6525019E+002  0.8540868E+02  0.7546771E-02  0.1314367E+00
         21   -1    0    0  504  502  0.00000000000E+00  0.00000000000E+00  0.14253841243E+03  0.14253841243E+03  0.00000000000E+00 0.  1.
          2   -1    0    0  505    0 -0.00000000000E+00 -0.00000000000E+00 -0.99833476754E+03  0.99833476754E+03  0.00000000000E+00 0.  1.
         21    1    1    2  503  502 -0.99616426657E+02 -0.65825674217E+02 -0.47506297124E+02  0.12850408598E+03  0.00000000000E+00 0.  1.
         21    1    1    2  504  501  0.80303328569E+02  0.94763370975E+01  0.81036870827E+02  0.11447881890E+03  0.00000000000E+00 0.  1.
         21    1    1    2  505  503  0.35657082936E+02  0.17867627331E+02 -0.10299252086E+03  0.11044518560E+03  0.00000000000E+00 0.  1.
          2    1    1    2  501    0 -0.16343984849E+02  0.38481709789E+02 -0.78633440795E+03  0.78744508948E+03  0.00000000000E+00 0.  1.
<scales pt_clust_3="14000.00000" pt_clust_4="85.40868" pt_clust_5="39.88333" pt_clust_6="56.31961"></scales>
<clustering>
<clus scale="   39.883">  2  5  1 -1</clus>
<clus scale="   56.320">  2  6  1 -1</clus>
<clus scale="   85.409">  1  4  2 -1</clus>
<clus scale="   85.409">  1  3  2 -1</clus>
</clustering>
</event>
<event>
 6    0  0.6525019E+002  0.1338363E+03  0.7546771E-02  0.1221872E+00
         21   -1    0    0  501  502  0.00000000000E+00  0.00000000000E+00  0.33299869609E+03  0.33299869609E+03  0.00000000000E+00 0.  1.
          2   -1    0    0  505    0 -0.00000000000E+00 -0.00000000000E+00 -0.21244378922E+04  0.21244378922E+04  0.00000000000E+00 0. -1.
         21    1    1    2  503  504 -0.11883855493E+03  0.63110100858E+02  0.23565077216E+03  0.27136096511E+03  0.00000000000E+00 0.  1.
         21    1    1    2  504  502 -0.15501789380E+02 -0.26351843744E+02  0.47424836471E+02  0.56425528416E+02  0.00000000000E+00 0. -1.
         21    1    1    2  505  503  0.10308194794E+03 -0.44416849722E+02 -0.87358220969E+02  0.14223291919E+03  0.00000000000E+00 0. -1.
          2    1    1    2  501    0  0.31258396367E+02  0.76585926074E+01 -0.19871565837E+04  0.19874171755E+04  0.00000000000E+00 0. -1.
<scales pt_clust_3="133.83635" pt_clust_4="30.57327" pt_clust_5="14000.00000" pt_clust_6="32.17305"></scales>
<clustering>
<clus scale="   30.573">  1  4  2 -1</clus>
<clus scale="   32.173">  2  6  1 -1</clus>
<clus scale="  133.836">  1  3  2 -1</clus>
<clus scale="   30.573">  1  3  2 -1</clus>
</clustering>
</event>
<event>
 6    0  0.6525019E+002  0.1631533E+03  0.7546771E-02  0.1185182E+00
          3   -1    0    0  505    0 -0.00000000000E+00  0.00000000000E+00  0.19393996841E+03  0.19393996841E+03  0.00000000000E+00 0.  1.
         21   -1    0    0  501  502  0.00000000000E+00 -0.00000000000E+00 -0.11356233172E+04  0.11356233172E+04  0.00000000000E+00 0. -1.
         21    1    1    2  503  502 -0.79183950328E+02  0.11577422771E+02 -0.32096573822E+03  0.33079168644E+03  0.00000000000E+00 0. -1.
         21    1    1    2  504  503 -0.71596956997E+02 -0.55368256841E+02 -0.43950766069E+03  0.44873015490E+03  0.00000000000E+00 0. -1.
         21    1    1    2  505  504  0.13677467089E+03  0.13359484915E+02 -0.35101785493E+03  0.37696063577E+03  0.00000000000E+00 0. -1.
          3    1    1    2  501    0  0.14006236430E+02  0.30431349155E+02  0.16980790502E+03  0.17308080852E+03  0.00000000000E+00 0.  1.
<scales pt_clust_3="65.86427" pt_clust_4="65.86427" pt_clust_5="148.11151" pt_clust_6="33.49988"></scales>
<clustering>
<clus scale="   33.500">  1  6  2 -1</clus>
<clus scale="   65.864">  3  4 -1 -1</clus>
<clus scale="  148.112">  1  5  2 -1</clus>
<clus scale="  163.153">  2  3  1 -1</clus>
</clustering>
</event>
<event>
 6    0  0.6525019E+002  0.8888546E+02  0.7546771E-02  0.1305573E+00
          2   -1    0    0  505    0 -0.00000000000E+00  0.00000000000E+00  0.22462080818E+04  0.22462080818E+04  0.00000000000E+00 0. -1.
         21   -1    0    0  503  502  0.00000000000E+00 -0.00000000000E+00 -0.19460214610E+04  0.19460214610E+04  0.00000000000E+00 0.  1.
         21    1    1    2  503  504 -0.54905732267E+02 -0.75917778933E+02 -0.77058649589E+03  0.77626135821E+03  0.00000000000E+00 0.  1.
         21    1    1    2  504  501  0.11332327334E+03 -0.11595360712E+01 -0.14640579572E+02  0.11427097346E+03  0.00000000000E+00 0. -1.
         21    1    1    2  505  502 -0.30747568662E+02  0.99196466638E+02 -0.11055650580E+04  0.11104321004E+04  0.00000000000E+00 0.  1.
          2    1    1    2  501    0 -0.27669972413E+02 -0.22119151633E+02  0.21909787543E+04  0.21912651108E+04  0.00000000000E+00 0. -1.
<scales pt_clust_3="88.88546" pt_clust_4="90.80138" pt_clust_5="14000.00000" pt_clust_6="35.42435"></scales>
<clustering>
<clus scale="   35.424">  1  6  2 -1</clus>
<clus scale="   90.801">  1  4  2 -1</clus>
<clus scale="   88.885">  1  3  2 -1</clus>
<clus scale="   88.885">  2  3  1 -1</clus>
</clustering>
</event>
<event>
 6    0  0.6525019E+002  0.1589938E+03  0.7546771E-02  0.1189837E+00
         21   -1    0    0  504  502  0.00000000000E+00  0.00000000000E+00  0.13320352988E+03  0.13320352988E+03  0.00000000000E+00 0.  1.
          1   -1    0    0  503    0 -0.00000000000E+00 -0.00000000000E+00 -0.12412172870E+04  0.12412172870E+04  0.00000000000E+00 0.  1.
         21    1    1    2  503  505  0.40380735753E+00 -0.40226149743E+02 -0.64181997031E+02  0.75747177679E+02  0.00000000000E+00 0.  1.
         21    1    1    2  504  501  0.23726940329E+02  0.17484442128E+03 -0.44826491009E+03  0.48174159979E+03  0.00000000000E+00 0.  1.
         21    1    1    2  505  502 -0.78978684424E+02 -0.13715435393E+03  0.52343230194E+02  0.16669961950E+03  0.00000000000E+00 0.  1.
          1    1    1    2  501    0  0.54847936737E+02  0.25360823903E+01 -0.64791008020E+03  0.65023241991E+03  0.00000000000E+00 0.  1.
<scales pt_clust_3="40.22818" pt_clust_4="158.99377" pt_clust_5="14000.00000" pt_clust_6="58.50805"></scales>
<clustering>
<clus scale="   40.228">  2  3  1 -1</clus>
<clus scale="   58.508">  2  6  1 -1</clus>
<clus scale="  158.994">  2  4  1 -1</clus>
<clus scale="  158.994">  1  3  2 -1</clus>
</clustering>
</event>
<event>
 6    0  0.6525019E+002  0.8483992E+02  0.7546771E-02  0.1315852E+00
          2   -1    0    0  503    0 -0.00000000000E+00  0.00000000000E+00  0.44830783289E+04  0.44830783289E+04  0.00000000000E+00 0. -1.
         21   -1    0    0  504  502  0.00000000000E+00 -0.00000000000E+00 -0.82249788769E+01  0.82249788769E+01  0.00000000000E+00 0. -1.
         21    1    1    2  503  505 -0.66701452978E+02  0.31655078283E+02  0.10474582337E+04  0.10500570838E+04  0.00000000000E+00 0. -1.
         21    1    1    2  504  501 -0.23739993314E+01 -0.62146916204E+02  0.27481830820E+03  0.28176759499E+03  0.00000000000E+00 0. -1.
         21    1    1    2  505  502  0.92539331495E+02 -0.39672952789E+00  0.64528800288E+03  0.65188978511E+03  0.00000000000E+00 0. -1.
          2    1    1    2  501    0 -0.23463879186E+02  0.30888567449E+02  0.25072888052E+04  0.25075888439E+04  0.00000000000E+00 0. -1.
<scales pt_clust_3="14000.00000" pt_clust_4="58.07424" pt_clust_5="84.83992" pt_clust_6="38.78991"></scales>
<clustering>
<clus scale="   38.790">  1  6  2 -1</clus>
<clus scale="   58.074">  2  4  1 -1</clus>
<clus scale="   84.840">  2  5  1 -1</clus>
<clus scale="   58.074">  2  3  1 -1</clus>
</clustering>
</event>
<event>
 6    0  0.6525019E+002  0.1126740E+03  0.7546771E-02  0.1255697E+00
         21   -1    0    0  501  502  0.00000000000E+00  0.00000000000E+00  0.32638731363E+02  0.32638731363E+02  0.00000000000E+00 0. -1.
          2   -1    0    0  504    0 -0.00000000000E+00 -0.00000000000E+00 -0.46654875601E+04  0.46654875601E+04  0.00000000000E+00 0.  1.
         21    1    1    2  503  505  0.59244390531E+01  0.11693958135E+03 -0.17167219115E+03  0.20780112098E+03  0.00000000000E+00 0. -1.
         21    1    1    2  504  503  0.53344994861E+02 -0.77529021386E+02 -0.13638023556E+04  0.13670454648E+04  0.00000000000E+00 0. -1.
         21    1    1    2  505  502 -0.31292426205E+02 -0.24954018511E+01 -0.64990819404E+01  0.32057464564E+02  0.00000000000E+00 0. -1.
          2    1    1    2  501    0 -0.27977007709E+02 -0.36915158116E+02 -0.30908752001E+04  0.30912222411E+04  0.00000000000E+00 0.  1.
<scales pt_clust_3="112.67397" pt_clust_4="14000.00000" pt_clust_5="31.39177" pt_clust_6="46.50189"></scales>
<clustering>
<clus scale="   31.392">  1  5  2 -1</clus>
<clus scale="   46.502">  2  6  1 -1</clus>
<clus scale="  112.674">  1  3  2 -1</clus>
<clus scale="   31.392">  1  3  2 -1</clus>
</clustering>
</event>
<event>
 6    0  0.6525019E+002  0.7023616E+02  0.7546771E-02  0.1359292E+00
          2   -1    0    0  505    0 -0.00000000000E+00  0.00000000000E+00  0.21271435785E+04  0.21271435785E+04  0.00000000000E+00 0. -1.
         21   -1    0    0  504  502  0.00000000000E+00 -0.00000000000E+00 -0.32737628877E+02  0.32737628877E+02  0.00000000000E+00 0. -1.
         21    1    1    2  503  501  0.66122229778E+02 -0.56103141047E+02  0.88620726368E+03  0.89043979353E+03  0.00000000000E+00 0. -1.
         21    1    1    2  504  503  0.48560029855E+02  0.21681461356E+02  0.27036911757E+02  0.59658669642E+02  0.00000000000E+00 0. -1.
         21    1    1    2  505  502 -0.82816179086E+02  0.34845216362E+02  0.12937800709E+03  0.15751627643E+03  0.00000000000E+00 0. -1.
          2    1    1    2  501    0 -0.31866080547E+02 -0.42353667175E+00  0.10517837671E+04  0.10522664678E+04  0.00000000000E+00 0. -1.
<scales pt_clust_3="70.23616" pt_clust_4="52.00281" pt_clust_5="14000.00000" pt_clust_6="31.86890"></scales>
<clustering>
<clus scale="   31.869">  1  6  2 -1</clus>
<clus scale="   52.003">  2  4  1 -1</clus>
<clus scale="   70.236">  1  3  2 -1</clus>
<clus scale="   52.003">  2  3  1 -1</clus>
</clustering>
</event>
<event>
 6    0  0.6525019E+002  0.7604339E+02  0.7546771E-02  0.1340670E+00
         21   -1    0    0  503  502  0.00000000000E+00  0.00000000000E+00  0.10523183044E+04  0.10523183044E+04  0.00000000000E+00 0.  1.
         -2   -1    0    0    0  501 -0.00000000000E+00 -0.00000000000E+00 -0.65229435898E+03  0.65229435898E+03  0.00000000000E+00 0.  1.
         21    1    1    2  503  504 -0.65563871280E+02 -0.60724380451E+02  0.64146340314E+03  0.64765837381E+03  0.00000000000E+00 0.  1.
         21    1    1    2  504  501  0.10322980237E+03  0.31033286146E+02 -0.33682073564E+02  0.11293333886E+03  0.00000000000E+00 0.  1.
         21    1    1    2  505  502 -0.79867283740E+01  0.52300043796E+02  0.36562148161E+03  0.36942949290E+03  0.00000000000E+00 0.  1.
         -2    1    1    2    0  505 -0.29679202712E+02 -0.22608949491E+02 -0.57337886577E+03  0.57459145781E+03  0.00000000000E+00 0.  1.
<scales pt_clust_3="14000.00000" pt_clust_4="76.04339" pt_clust_5="52.47792" pt_clust_6="37.30978"></scales>
<clustering>
<clus scale="   37.310">  2  6  1 -1</clus>
<clus scale="   52.478">  1  5  2 -1</clus>
<clus scale="   76.043">  2  4  1 -1</clus>
<clus scale="   52.478">  1  3  2 -1</clus>
</clustering>
</event>
<event>
 6    0  0.6525019E+002  0.1164676E+03  0.7546771E-02  0.1249041E+00
          2   -1    0    0  505    0 -0.00000000000E+00  0.00000000000E+00  0.88102490260E+03  0.88102490260E+03  0.00000000000E+00 0. -1.
         21   -1    0    0  504  502  0.00000000000E+00 -0.00000000000E+00 -0.14692295220E+04  0.14692295220E+04  0.00000000000E+00 0. -1.
         21    1    1    2  503  502 -0.18303350021E+02  0.28609188285E+02 -0.49419140926E+03  0.49535709066E+03  0.00000000000E+00 0. -1.
         21    1    1    2  504  501 -0.51326665957E+02 -0.12146651882E+03 -0.92700158348E+03  0.93633352905E+03  0.00000000000E+00 0. -1.
         21    1    1    2  505  503  0.89323087972E+02 -0.36784778239E+02  0.24701071834E+02  0.99708961005E+02  0.00000000000E+00 0. -1.
          2    1    1    2  501    0 -0.19693071995E+02  0.12964210878E+03  0.80828730155E+03  0.81885484385E+03  0.00000000000E+00 0. -1.
<scales pt_clust_3="33.96319" pt_clust_4="14000.00000" pt_clust_5="95.53319" pt_clust_6="116.46762"></scales>
<clustering>
<clus scale="   33.963">  2  3  1 -1</clus>
<clus scale="   95.533">  1  5  2 -1</clus>
<clus scale="  116.468">  1  6  2 -1</clus>
<clus scale="   33.963">  2  3  1 -1</clus>
</clustering>
</event>
<event>
 6    0  0.6525019E+002  0.1509997E+03  0.7546771E-02  0.1199250E+00
          2   -1    0    0  504    0 -0.00000000000E+00  0.00000000000E+00  0.14387282510E+04  0.14387282510E+04  0.00000000000E+00 0.  1.
         21   -1    0    0  505  502  0.00000000000E+00 -0.00000000000E+00 -0.16691433375E+03  0.16691433375E+03  0.00000000000E+00 0.  1.
         21    1    1    2  503  501 -0.58866832379E+02  0.12614067709E+03  0.11196337648E+03  0.17864090250E+03  0.00000000000E+00 0.  1.
         21    1    1    2  504  502  0.91148431108E+02 -0.24202400531E+03  0.20932602901E+03  0.33271766118E+03  0.00000000000E+00 0.  1.
         21    1    1    2  505  503  0.27873304415E+02 -0.13160437923E+02 -0.63355598897E+02  0.70456015619E+02  0.00000000000E+00 0.  1.
          2    1    1    2  501    0 -0.60154903143E+02  0.12904376614E+03  0.10138801107E+04  0.10238280055E+04  0.00000000000E+00 0.  1.
<scales pt_clust_3="131.45951" pt_clust_4="14000.00000" pt_clust_5="30.82399" pt_clust_6="150.99969"></scales>
<clustering>
<clus scale="   30.824">  2  5  1 -1</clus>
<clus scale="  131.460">  2  3  1 -1</clus>
<clus scale="  151.000">  1  6  2 -1</clus>
<clus scale="   30.824">  2  3  1 -1</clus>
</clustering>
</event>
<event>
 6    0  0.6525019E+002  0.1334819E+03  0.7546771E-02  0.1222379E+00
          2   -1    0    0  504    0 -0.00000000000E+00  0.00000000000E+00  0.16759109554E+04  0.16759109554E+04  0.00000000000E+00 0.  1.
         21   -1    0    0  501  502  0.00000000000E+00 -0.00000000000E+00 -0.30361227126E+03  0.30361227126E+03  0.00000000000E+00 0.  1.
         21    1    1    2  503  505  0.53006757946E+02  0.10018832283E+03  0.17329683466E+03  0.20707295652E+03  0.00000000000E+00 0.  1.
         21    1    1    2  504  503  0.26548309746E+02 -0.19478798237E+02  0.19951030616E+03  0.20220929403E+03  0.00000000000E+00 0.  1.
         21    1    1    2  505  502 -0.11154714526E+03 -0.78152622613E+02 -0.26890907614E+03  0.30143438634E+03  0.00000000000E+00 0.  1.
          2    1    1    2  501    0  0.31992077567E+02 -0.25569019752E+01  0.12684006195E+04  0.12688065898E+04  0.00000000000E+00 0.  1.
<scales pt_clust_3="133.48187" pt_clust_4="47.13314" pt_clust_5="14000.00000" pt_clust_6="32.09409"></scales>
<clustering>
<clus scale="   32.094">  1  6  2 -1</clus>
<clus scale="   47.133">  1  4  2 -1</clus>
<clus scale="  133.482">  1  3  2 -1</clus>
<clus scale="  133.482">  2  3  1 -1</clus>
</clustering>
</event>
<event>
 6    0  0.6525019E+002  0.7962641E+02  0.7546771E-02  0.1330115E+00
         21   -1    0    0  504  502  0.00000000000E+00  0.00000000000E+00  0.18701824351E+02  0.18701824351E+02  0.00000000000E+00 0. -1.
          1   -1    0    0  503    0 -0.00000000000E+00 -0.00000000000E+00 -0.32359099079E+04  0.32359099079E+04  0.00000000000E+00 0.  1.
         21    1    1    2  503  505 -0.65096661862E+02 -0.30152404266E+02 -0.62735530327E+03  0.63144391628E+03  0.00000000000E+00 0. -1.
         21    1    1    2  504  501  0.80869816823E+02  0.75106327255E+02 -0.33584131265E+03  0.35351135052E+03  0.00000000000E+00 0. -1.
         21    1    1    2  505  502 -0.39553076012E+02 -0.11500083968E+02 -0.47949686394E+02  0.63212895667E+02  0.00000000000E+00 0. -1.
          1    1    1    2  501    0  0.23779921052E+02 -0.33453839022E+02 -0.22060617813E+04  0.22064435698E+04  0.00000000000E+00 0.  1.
<scales pt_clust_3="79.62641" pt_clust_4="14000.00000" pt_clust_5="40.51663" pt_clust_6="41.04441"></scales>
<clustering>
<clus scale="   41.044">  2  6  1 -1</clus>
<clus scale="   40.517">  1  5  2 -1</clus>
<clus scale="   79.626">  2  3  1 -1</clus>
<clus scale="   40.517">  1  3  2 -1</clus>
</clustering>
</event>
<event>
 6    0  0.6525019E+002  0.1699381E+03  0.7546771E-02  0.1177912E+00
         21   -1    0    0  501  502  0.00000000000E+00  0.00000000000E+00  0.14892418832E+03  0.14892418832E+03  0.00000000000E+00 0. -1.
          1   -1    0    0  503    0 -0.00000000000E+00 -0.00000000000E+00 -0.11357496116E+04  0.11357496116E+04  0.00000000000E+00 0.  1.
         21    1    1    2  503  504 -0.16419994901E+03  0.95820011536E+02 -0.23198194937E+03  0.29993119661E+03  0.00000000000E+00 0. -1.
         21    1    1    2  504  505  0.12555514189E+03 -0.12490798159E+03 -0.70825633562E+02  0.19074162600E+03  0.00000000000E+00 0. -1.
         21    1    1    2  505  502  0.13181634498E+01  0.45462533557E+02  0.44919749604E+02  0.63924669860E+02  0.00000000000E+00 0. -1.
          1    1    1    2  501    0  0.37326643671E+02 -0.16374563507E+02 -0.72893758992E+03  0.73007630742E+03  0.00000000000E+00 0.  1.
<scales pt_clust_3="14000.00000" pt_clust_4="169.93806" pt_clust_5="45.13274" pt_clust_6="40.76033"></scales>
<clustering>
<clus scale="   40.760">  2  6  1 -1</clus>
<clus scale="   45.133">  1  5  2 -1</clus>
<clus scale="  169.938">  1  4  2 -1</clus>
<clus scale="   45.133">  1  3  2 -1</clus>
</clustering>
</event>
<event>
 6    0  0.6525019E+002  0.1288344E+03  0.7546771E-02  0.1229196E+00
         21   -1    0    0  505  502  0.00000000000E+00  0.00000000000E+00  0.23927590856E+03  0.23927590856E+03  0.00000000000E+00 0. -1.
          2   -1    0    0  504    0 -0.00000000000E+00 -0.00000000000E+00 -0.10675927785E+04  0.10675927785E+04  0.00000000000E+00 0.  1.
         21    1    1    2  503  502  0.56317971921E+02 -0.20846296257E+02 -0.21719406167E+03  0.22534316598E+03  0.00000000000E+00 0. -1.
         21    1    1    2  504  503 -0.14351480277E+02  0.54517519277E+02 -0.50888944428E+02  0.75946096405E+02  0.00000000000E+00 0. -1.
         21    1    1    2  505  501  0.12780299563E+03  0.77253695077E-01  0.19368232692E+03  0.23204839026E+03  0.00000000000E+00 0. -1.
          2    1    1    2  501    0 -0.16976948728E+03 -0.33748476715E+02 -0.75391619073E+03  0.77353103437E+03  0.00000000000E+00 0.  1.
<scales pt_clust_3="53.88462" pt_clust_4="56.37486" pt_clust_5="128.83443" pt_clust_6="14000.00000"></scales>
<clustering>
<clus scale="   56.375">  2  4  1 -1</clus>
<clus scale="   53.885">  2  3  1 -1</clus>
<clus scale="  128.834">  1  5  2 -1</clus>
<clus scale="  128.834">  1  3  2 -1</clus>
</clustering>
</event>
<event>
 6    0  0.6525019E+002  0.7094143E+02  0.7546771E-02  0.1356921E+00
          1   -1    0    0  503    0 -0.00000000000E+00  0.00000000000E+00  0.29719841687E+04  0.29719841687E+04  0.00000000000E+00 0. -1.
         21   -1    0    0  504  502  0.00000000000E+00 -0.00000000000E+00 -0.12929541300E+03  0.12929541300E+03  0.00000000000E+00 0. -1.
         21    1    1    2  503  502  0.35619378361E+02  0.14513036967E+02 -0.87745407434E+02  0.95805140167E+02  0.00000000000E+00 0. -1.
         21    1    1    2  504  505 -0.42456032078E+02  0.36719172903E+02 -0.11575847950E+02  0.57313284448E+02  0.00000000000E+00 0. -1.
         21    1    1    2  505  501  0.38771204914E+02 -0.10451854799E+03  0.12349982101E+04  0.12400193192E+04  0.00000000000E+00 0.  1.
          1    1    1    2  501    0 -0.31934551196E+02  0.53286338123E+02  0.17070118010E+04  0.17081418378E+04  0.00000000000E+00 0. -1.
<scales pt_clust_3="38.46256" pt_clust_4="50.98476" pt_clust_5="14000.00000" pt_clust_6="70.94143"></scales>
<clustering>
<clus scale="   38.463">  2  3  1 -1</clus>
<clus scale="   50.985">  2  4  1 -1</clus>
<clus scale="   70.941">  1  6  2 -1</clus>
<clus scale="   38.463">  2  3  1 -1</clus>
</clustering>
</event>
<event>
 6    0  0.6525019E+002  0.1089460E+03  0.7546771E-02  0.1262534E+00
         21   -1    0    0  504  502  0.00000000000E+00  0.00000000000E+00  0.51947224910E+02  0.51947224910E+02  0.00000000000E+00 0. -1.
          2   -1    0    0  505    0 -0.00000000000E+00 -0.00000000000E+00 -0.14236684724E+04  0.14236684724E+04  0.00000000000E+00 0.  1.
         21    1    1    2  503  502  0.13199865203E+02  0.31286254882E+02 -0.59163904504E+02  0.68216081550E+02  0.00000000000E+00 0. -1.
         21    1    1    2  504  501 -0.34326085302E+02 -0.10721512686E+02 -0.50927894573E+02  0.62344858746E+02  0.00000000000E+00 0.  1.
         21    1    1    2  505  503  0.12802250451E+03 -0.60227701042E+01 -0.65243984020E+02  0.14381520389E+03  0.00000000000E+00 0. -1.
          2    1    1    2  501    0 -0.10689628441E+03 -0.14541972091E+02 -0.11963854644E+04  0.12012395531E+04  0.00000000000E+00 0.  1.
<scales pt_clust_3="33.95683" pt_clust_4="33.46781" pt_clust_5="108.94598" pt_clust_6="14000.00000"></scales>
<clustering>
<clus scale="   33.957">  1  3  2 -1</clus>
<clus scale="   33.468">  1  4  2 -1</clus>
<clus scale="  108.946">  1  5  2 -1</clus>
<clus scale="   33.957">  1  3  2 -1</clus>
</clustering>
</event>
<event>
 6    0  0.6525019E+002  0.1095167E+03  0.7546771E-02  0.1261467E+00
         21   -1    0    0  505  502  0.00000000000E+00  0.00000000000E+00  0.13874175191E+03  0.13874175191E+03  0.00000000000E+00 0. -1.
          1   -1    0    0  504    0 -0.00000000000E+00 -0.00000000000E+00 -0.44864583505E+03  0.44864583505E+03  0.00000000000E+00 0.  1.
         21    1    1    2  503  502 -0.52465114170E+00  0.69222561731E+02  0.84014816581E+02  0.10886012914E+03  0.00000000000E+00 0. -1.
         21    1    1    2  504  503 -0.27397067870E+02 -0.15269229904E+03 -0.14804302255E+03  0.21443477806E+03  0.00000000000E+00 0. -1.
         21    1    1    2  505  501  0.29970183739E+01  0.35172887691E+02 -0.52801521151E+02  0.63514681638E+02  0.00000000000E+00 0.  1.
          1    1    1    2  501    0  0.24924700638E+02  0.48296849616E+02 -0.19307435601E+03  0.20057799813E+03  0.00000000000E+00 0.  1.
<scales pt_clust_3="69.22455" pt_clust_4="102.22885" pt_clust_5="31.65928" pt_clust_6="31.65928"></scales>
<clustering>
<clus scale="   31.659">  5  6 -1 -1</clus>
<clus scale="   69.225">  1  3  2 -1</clus>
<clus scale="  102.229">  1  4  2 -1</clus>
<clus scale="   69.225">  1  3  2 -1</clus>
</clustering>
</event>
<event>
 6    0  0.6525019E+002  0.8250759E+02  0.7546771E-02  0.1322082E+00
          2   -1    0    0  505    0 -0.00000000000E+00  0.00000000000E+00  0.51428580389E+03  0.51428580389E+03  0.00000000000E+00 0.  1.
         21   -1    0    0  503  502  0.00000000000E+00 -0.00000000000E+00 -0.24996793524E+04  0.24996793524E+04  0.00000000000E+00 0.  1.
         21    1    1    2  503  501 -0.48701352063E+02  0.68237646983E+01 -0.21963261797E+04  0.21968766631E+04  0.00000000000E+00 0.  1.
         21    1    1    2  504  502 -0.24862333089E+02  0.21625936819E+02 -0.11235631027E+03  0.11708867241E+03  0.00000000000E+00 0.  1.
         21    1    1    2  505  504  0.14308891602E+03 -0.11513866432E+02 -0.15796914039E+03  0.21345082883E+03  0.00000000000E+00 0. -1.
          2    1    1    2  501    0 -0.69525230873E+02 -0.16935835085E+02  0.48125808182E+03  0.48654899193E+03  0.00000000000E+00 0.  1.
<scales pt_clust_3="82.50759" pt_clust_4="32.95173" pt_clust_5="14000.00000" pt_clust_6="71.57935"></scales>
<clustering>
<clus scale="   32.952">  2  4  1 -1</clus>
<clus scale="   71.579">  1  6  2 -1</clus>
<clus scale="   82.508">  2  3  1 -1</clus>
<clus scale="   32.952">  2  3  1 -1</clus>
</clustering>
</event>
<event>
 6    0  0.6525019E+002  0.9256440E+02  0.7546771E-02  0.1296758E+00
         21   -1    0    0  505  502  0.00000000000E+00  0.00000000000E+00  0.15943565764E+04  0.15943565764E+04  0.00000000000E+00 0. -1.
          2   -1    0    0  503    0 -0.00000000000E+00 -0.00000000000E+00 -0.46388165950E+03  0.46388165950E+03  0.00000000000E+00 0. -1.
         21    1    1    2  503  504  0.87499669825E+02 -0.53531303999E+02  0.44179244867E+03  0.45354422103E+03  0.00000000000E+00 0. -1.
         21    1    1    2  504  502 -0.30093604058E+02  0.99670453129E+01  0.88554889753E+03  0.88611614189E+03  0.00000000000E+00 0. -1.
         21    1    1    2  505  501 -0.74886128381E+02  0.97227279644E+02  0.24452451398E+03  0.27359333703E+03  0.00000000000E+00 0. -1.
          2    1    1    2  501    0  0.17480062614E+02 -0.53663020958E+02 -0.44139094329E+03  0.44498453594E+03  0.00000000000E+00 0. -1.
<scales pt_clust_3="14000.00000" pt_clust_4="31.70121" pt_clust_5="92.56440" pt_clust_6="56.39058"></scales>
<clustering>
<clus scale="   31.701">  1  4  2 -1</clus>
<clus scale="   56.391">  2  6  1 -1</clus>
<clus scale="   92.564">  2  5  1 -1</clus>
<clus scale="   31.701">  1  3  2 -1</clus>
</clustering>
</event>
<event>
 6    0  0.6525019E+002  0.1135518E+03  0.7546771E-02  0.1254130E+00
         21   -1    0    0  503  502  0.00000000000E+00  0.00000000000E+00  0.22475126248E+03  0.22475126248E+03  0.00000000000E+00 0.  1.
         -1   -1    0    0    0  501 -0.00000000000E+00 -0.00000000000E+00 -0.55106712254E+03  0.55106712254E+03  0.00000000000E+00 0.  1.
         21    1    1    2  503  504  0.27021955511E+02 -0.27374212804E+02  0.68036629067E+02  0.78156999053E+02  0.00000000000E+00 0. -1.
         21    1    1    2  504  505  0.74905255114E+02  0.12728135788E+02  0.12562646787E+03  0.14681557177E+03  0.00000000000E+00 0.  1.
         21    1    1    2  505  501 -0.93401563828E+02 -0.48595166011E+02 -0.21667052530E+03  0.24089719554E+03  0.00000000000E+00 0.  1.
         -1    1    1    2    0  502 -0.85256467982E+01  0.63241243027E+02 -0.30330843169E+03  0.30994861865E+03  0.00000000000E+00 0.  1.
<scales pt_clust_3="35.60138" pt_clust_4="35.60138" pt_clust_5="101.93341" pt_clust_6="63.81333"></scales>
<clustering>
<clus scale="   35.601">  3  4 -1 -1</clus>
<clus scale="   63.813">  2  6  1 -1</clus>
<clus scale="  101.933">  2  5  1 -1</clus>
<clus scale="  113.552">  1  3  2 -1</clus>
</clustering>
</event>
<event>
 6    0  0.6525019E+002  0.1801411E+03  0.7546771E-02  0.1167667E+00
         21   -1    0    0  503  502  0.00000000000E+00  0.00000000000E+00  0.43547321740E+03  0.43547321740E+03  0.00000000000E+00 0. -1.
         -2   -1    0    0    0  501 -0.00000000000E+00 -0.00000000000E+00 -0.60500299349E+03  0.60500299349E+03  0.00000000000E+00 0.  1.
         21    1    1    2  503  505 -0.35387623642E+02 -0.33474066409E+00  0.85803342914E+02  0.92814921287E+02  0.00000000000E+00 0.  1.
         21    1    1    2  504  502  0.71331080210E+02  0.17607158446E+03  0.53874534486E+02  0.19746339237E+03  0.00000000000E+00 0. -1.
         21    1    1    2  505  501 -0.92505681591E+02 -0.14040478977E+03  0.18587719204E+03  0.25064145036E+03  0.00000000000E+00 0. -1.
         -2    1    1    2    0  504  0.56562225023E+02 -0.35332054027E+02 -0.49508484553E+03  0.49955644688E+03  0.00000000000E+00 0.  1.
<scales pt_clust_3="35.38921" pt_clust_4="180.14111" pt_clust_5="14000.00000" pt_clust_6="66.49803"></scales>
<clustering>
<clus scale="   35.389">  1  3  2 -1</clus>
<clus scale="   66.498">  2  6  1 -1</clus>
<clus scale="  180.141">  2  4  1 -1</clus>
<clus scale="   35.389">  1  3  2 -1</clus>
</clustering>
</event>
<event>
 6    0  0.6525019E+002  0.9922737E+02  0.7546771E-02  0.1281929E+00
         -1   -1    0    0    0  501 -0.00000000000E+00  0.00000000000E+00  0.56999789255E+02  0.56999789255E+02  0.00000000000E+00 0.  1.
         21   -1    0    0  503  502  0.00000000000E+00 -0.00000000000E+00 -0.73099718326E+03  0.73099718326E+03  0.00000000000E+00 0.  1.
         21    1    1    2  503  501 -0.56076733114E+02 -0.19055116724E+01 -0.20238656663E+02  0.59647583312E+02  0.00000000000E+00 0.  1.
         21    1    1    2  504  502  0.59152585659E+02  0.83478423402E+02 -0.56631826256E+03  0.57548592517E+03  0.00000000000E+00 0.  1.
         21    1    1    2  505  504 -0.41297787350E+02 -0.75185625042E+02 -0.68253049495E+02  0.10962145875E+03  0.00000000000E+00 0.  1.
         -1    1    1    2    0  505  0.38221934806E+02 -0.63872866876E+01 -0.19187425290E+02  0.43242005281E+02  0.00000000000E+00 0.  1.
<scales pt_clust_3="39.61031" pt_clust_4="99.22737" pt_clust_5="14000.00000" pt_clust_6="38.75195"></scales>
<clustering>
<clus scale="   38.752">  1  6  2 -1</clus>
<clus scale="   39.610">  1  3  2 -1</clus>
<clus scale="   99.227">  2  4  1 -1</clus>
<clus scale="   99.227">  2  3  1 -1</clus>
</clustering>
</event>
<event>
 6    0  0.6525019E+002  0.9017459E+02  0.7546771E-02  0.1302429E+00
         21   -1    0    0  505  502  0.00000000000E+00  0.00000000000E+00  0.14979350026E+03  0.14979350026E+03  0.00000000000E+00 0.  1.
         -2   -1    0    0    0  501 -0.00000000000E+00 -0.00000000000E+00 -0.14294648892E+04  0.14294648892E+04  0.00000000000E+00 0.  1.
         21    1    1    2  503  501 -0.50862306203E+02 -0.54388903744E+02 -0.56761638010E+03  0.57248011494E+03  0.00000000000E+00 0.  1.
         21    1    1    2  504  502  0.70575929783E+01  0.11214857821E+03 -0.38187806418E+03  0.39806779462E+03  0.00000000000E+00 0.  1.
         21    1    1    2  505  503  0.33994000784E+02 -0.20899480762E+02  0.13561258222E+03  0.14136177999E+03  0.00000000000E+00 0.  1.
         -2    1    1    2    0  504  0.98107124406E+01 -0.36860193706E+02 -0.46578952693E+03  0.46734869996E+03  0.00000000000E+00 0.  1.
<scales pt_clust_3="14000.00000" pt_clust_4="90.17459" pt_clust_5="39.98730" pt_clust_6="38.14347"></scales>
<clustering>
<clus scale="   38.143">  2  6  1 -1</clus>
<clus scale="   39.987">  1  5  2 -1</clus>
<clus scale="   90.175">  1  4  2 -1</clus>
<clus scale="   39.987">  1  3  2 -1</clus>
</clustering>
</event>
<event>
 6    0  0.6525019E+002  0.1247092E+03  0.7546771E-02  0.1235524E+00
          2   -1    0    0  504    0 -0.00000000000E+00  0.00000000000E+00  0.21708562143E+04  0.21708562143E+04  0.00000000000E+00 0. -1.
         21   -1    0    0  503  502  0.00000000000E+00 -0.00000000000E+00 -0.21395086600E+03  0.21395086600E+03  0.00000000000E+00 0. -1.
         21    1    1    2  503  501  0.39589786443E+02 -0.98687968072E+00 -0.11880663768E+03  0.12523315167E+03  0.00000000000E+00 0. -1.
         21    1    1    2  504  505 -0.17648820993E+03 -0.43250521633E+02  0.11131775267E+03  0.21309701529E+03  0.00000000000E+00 0. -1.
         21    1    1    2  505  502  0.49217496055E+02 -0.42713645743E+02 -0.11970783189E+02  0.66257958773E+02  0.00000000000E+00 0. -1.
          2    1    1    2  501    0  0.87680927430E+02  0.86951047057E+02  0.19763650165E+04  0.19802189546E+04  0.00000000000E+00 0. -1.
<scales pt_clust_3="39.60208" pt_clust_4="124.70921" pt_clust_5="78.89669" pt_clust_6="14000.00000"></scales>
<clustering>
<clus scale="   39.602">  2  3  1 -1</clus>
<clus scale="   78.897">  2  5  1 -1</clus>
<clus scale="  124.709">  2  4  1 -1</clus>
<clus scale="   39.602">  2  3  1 -1</clus>
</clustering>
</event>
<event>
 6    0  0.6525019E+002  0.9610766E+02  0.7546771E-02  0.1288701E+00
         -2   -1    0    0    0  501 -0.00000000000E+00  0.00000000000E+00  0.27613440107E+03  0.27613440107E+03  0.00000000000E+00 0.  1.
         21   -1    0    0  505  502  0.00000000000E+00 -0.00000000000E+00 -0.18142697496E+03  0.18142697496E+03  0.00000000000E+00 0.  1.
         21    1    1    2  503  501 -0.49944382274E+02 -0.12970656483E+02  0.17301423571E+02  0.54424429330E+02  0.00000000000E+00 0.  1.
         21    1    1    2  504  502  0.78779194009E+02 -0.11610759287E+03 -0.65323528371E+02  0.15477176063E+03  0.00000000000E+00 0.  1.
         21    1    1    2  505  503 -0.28142539159E+02  0.42791467126E+02 -0.27046330925E+02  0.57919048556E+02  0.00000000000E+00 0. -1.
         -2    1    1    2    0  504 -0.69227257676E+00  0.86286782224E+02  0.16977586184E+03  0.19044613751E+03  0.00000000000E+00 0.  1.
<scales pt_clust_3="54.19165" pt_clust_4="96.10766" pt_clust_5="51.21633" pt_clust_6="14000.00000"></scales>
<clustering>
<clus scale="   51.216">  2  5  1 -1</clus>
<clus scale="   54.192">  1  3  2 -1</clus>
<clus scale="   96.108">  2  4  1 -1</clus>
<clus scale="   51.216">  2  3  1 -1</clus>
</clustering>
</event>
<event>
 6    0  0.6525019E+002  0.1844430E+03  0.7546771E-02  0.1163571E+00
         21   -1    0    0  504  502  0.00000000000E+00  0.00000000000E+00  0.82497581799E+03  0.82497581799E+03  0.00000000000E+00 0. -1.
          2   -1    0    0  503    0 -0.00000000000E+00 -0.00000000000E+00 -0.13605779846E+04  0.13605779846E+04  0.00000000000E+00 0. -1.
         21    1    1    2  503  505 -0.88826505613E+02 -0.11411109397E+03  0.35425935582E+02  0.14888413877E+03  0.00000000000E+00 0. -1.
         21    1    1    2  504  501  0.10763648434E+03  0.15397095564E+03  0.34129246762E+03  0.38958082139E+03  0.00000000000E+00 0. -1.
         21    1    1    2  505  502  0.13384859064E+02  0.27823820083E+02  0.36563547386E+03  0.36693680541E+03  0.00000000000E+00 0.  1.
          2    1    1    2  501    0 -0.32194837793E+02 -0.67683681751E+02 -0.12779560437E+04  0.12801520370E+04  0.00000000000E+00 0. -1.
<scales pt_clust_3="184.44301" pt_clust_4="14000.00000" pt_clust_5="30.87587" pt_clust_6="74.87666"></scales>
<clustering>
<clus scale="   30.876">  1  5  2 -1</clus>
<clus scale="   74.877">  2  6  1 -1</clus>
<clus scale="  184.443">  2  3  1 -1</clus>
<clus scale="   30.876">  1  3  2 -1</clus>
</clustering>
</event>
<event>
 6    0  0.6525019E+002  0.9980243E+02  0.7546771E-02  0.1280712E+00
         21   -1    0    0  503  502  0.00000000000E+00  0.00000000000E+00  0.22562107012E+03  0.22562107012E+03  0.00000000000E+00 0. -1.
          2   -1    0    0  505    0 -0.00000000000E+00 -0.00000000000E+00 -0.69489759498E+03  0.69489759498E+03  0.00000000000E+00 0.  1.
         21    1    1    2  503  501 -0.66078455382E+02  0.19105873258E+02 -0.40248714899E+02  0.79695393277E+02  0.00000000000E+00 0. -1.
         21    1    1    2  504  502 -0.20652027220E+02 -0.27032687744E+02  0.11288842737E+03  0.11790279670E+03  0.00000000000E+00 0. -1.
         21    1    1    2  505  504  0.12600409099E+03 -0.24995671010E+02  0.43226972152E+02  0.13553739571E+03  0.00000000000E+00 0. -1.
          2    1    1    2  501    0 -0.39273608383E+02  0.32922485496E+02 -0.58514320949E+03  0.58738307941E+03  0.00000000000E+00 0.  1.
<scales pt_clust_3="14000.00000" pt_clust_4="34.01871" pt_clust_5="99.80243" pt_clust_6="51.23302"></scales>
<clustering>
<clus scale="   34.019">  1  4  2 -1</clus>
<clus scale="   51.233">  2  6  1 -1</clus>
<clus scale="   99.802">  1  5  2 -1</clus>
<clus scale="   34.019">  1  3  2 -1</clus>
</clustering>
</event>
<event>
 6    0  0.6525019E+002  0.1347592E+03  0.7546771E-02  0.1220560E+00
         -4   -1    0    0    0  501 -0.00000000000E+00  0.00000000000E+00  0.33490470890E+03  0.33490470890E+03  0.00000000000E+00 0.  1.
         21   -1    0    0  505  502  0.00000000000E+00 -0.00000000000E+00 -0.11545154349E+04  0.11545154349E+04  0.00000000000E+00 0. -1.
         21    1    1    2  503  502  0.12357732848E+02  0.99637325419E+02 -0.80314186821E+03  0.80939308784E+03  0.00000000000E+00 0. -1.
         21    1    1    2  504  503  0.83767277238E+02 -0.98578352253E+02  0.74473253481E+01  0.12957666041E+03  0.00000000000E+00 0.  1.
         21    1    1    2  505  501 -0.48953747175E+02  0.37068596426E+02 -0.28032188053E+03  0.28696847720E+03  0.00000000000E+00 0. -1.
         -4    1    1    2    0  504 -0.47171262912E+02 -0.38127569593E+02  0.25640569742E+03  0.26348191831E+03  0.00000000000E+00 0.  1.
<scales pt_clust_3="14000.00000" pt_clust_4="134.75923" pt_clust_5="62.10649" pt_clust_6="60.65344"></scales>
<clustering>
<clus scale="   60.653">  1  6  2 -1</clus>
<clus scale="   62.106">  2  5  1 -1</clus>
<clus scale="  134.759">  1  4  2 -1</clus>
<clus scale="   62.106">  2  3  1 -1</clus>
</clustering>
</event>
<event>
 6    0  0.6525019E+002  0.1327259E+03  0.7546771E-02  0.1223466E+00
         21   -1    0    0  501  502  0.00000000000E+00  0.00000000000E+00  0.68872895189E+02  0.68872895189E+02  0.00000000000E+00 0. -1.
          2   -1    0    0  505    0 -0.00000000000E+00 -0.00000000000E+00 -0.29799526987E+04  0.29799526987E+04  0.00000000000E+00 0. -1.
         21    1    1    2  503  502  0.38602287462E+01 -0.76587216826E+02  0.64122628786E-01  0.76684465564E+02  0.00000000000E+00 0. -1.
         21    1    1    2  504  503 -0.11450849307E+03 -0.41844305241E+01 -0.89125565192E+02  0.14516566679E+03  0.00000000000E+00 0. -1.
         21    1    1    2  505  504  0.85167479653E+02  0.96940198889E+02 -0.25551569966E+04  0.25584132150E+04  0.00000000000E+00 0. -1.
          2    1    1    2  501    0  0.25480784672E+02 -0.16168551540E+02 -0.26686136433E+03  0.26856224645E+03  0.00000000000E+00 0. -1.
<scales pt_clust_3="76.93143" pt_clust_4="132.72593" pt_clust_5="14000.00000" pt_clust_6="30.17768"></scales>
<clustering>
<clus scale="   30.178">  2  6  1 -1</clus>
<clus scale="   76.931">  1  3  2 -1</clus>
<clus scale="  132.726">  1  4  2 -1</clus>
<clus scale="   76.931">  1  3  2 -1</clus>
</clustering>
</event>
<event>
 6    0  0.6525019E+002  0.9022924E+02  0.7546771E-02  0.1302297E+00
         21   -1    0    0  504  502  0.00000000000E+00  0.00000000000E+00  0.98225408030E+03  0.98225408030E+03  0.00000000000E+00 0.  1.
         -1   -1    0    0    0  501 -0.00000000000E+00 -0.00000000000E+00 -0.11290239170E+04  0.11290239170E+04  0.00000000000E+00 0. -1.
         21    1    1    2  503  505 -0.31047195824E+02  0.89660446614E+02 -0.11785673224E+03  0.15130476988E+03  0.00000000000E+00 0.  1.
         21    1    1    2  504  501  0.78656990619E+02  0.24459111965E+02  0.37127951267E+03  0.38030730582E+03  0.00000000000E+00 0.  1.
         21    1    1    2  505  502 -0.12909282938E+03 -0.99776820560E+02  0.57666953164E+03  0.59930636676E+03  0.00000000000E+00 0.  1.
         -1    1    1    2    0  503  0.81483034581E+02 -0.14342738019E+02 -0.97686214879E+03  0.98035955486E+03  0.00000000000E+00 0. -1.
<scales pt_clust_3="90.22924" pt_clust_4="82.37215" pt_clust_5="14000.00000" pt_clust_6="82.94693"></scales>
<clustering>
<clus scale="   82.372">  1  4  2 -1</clus>
<clus scale="   82.947">  2  6  1 -1</clus>
<clus scale="   90.229">  2  3  1 -1</clus>
<clus scale="   82.372">  1  3  2 -1</clus>
</clustering>
</event>
<event>
 6    0  0.6525019E+002  0.7913441E+02  0.7546771E-02  0.1331526E+00
          2   -1    0    0  505    0 -0.00000000000E+00  0.00000000000E+00  0.13233435905E+04  0.13233435905E+04  0.00000000000E+00 0. -1.
         21   -1    0    0  503  502  0.00000000000E+00 -0.00000000000E+00 -0.51772087167E+03  0.51772087167E+03  0.00000000000E+00 0.  1.
         21    1    1    2  503  501  0.37505765891E+02 -0.13510389058E+02 -0.79590636359E+02  0.89016192255E+02  0.00000000000E+00 0.  1.
         21    1    1    2  504  502 -0.27335965900E+02 -0.62826707279E+02 -0.39709674506E+03  0.40296435961E+03  0.00000000000E+00 0.  1.
         21    1    1    2  505  504 -0.12138629750E+02  0.12760172246E+03  0.92260290921E+02  0.15792880418E+03  0.00000000000E+00 0. -1.
          2    1    1    2  501    0  0.19688297599E+01 -0.51264626126E+02  0.11900498093E+04  0.11911551061E+04  0.00000000000E+00 0. -1.
<scales pt_clust_3="39.86494" pt_clust_4="14000.00000" pt_clust_5="79.13441" pt_clust_6="51.32149"></scales>
<clustering>
<clus scale="   39.865">  2  3  1 -1</clus>
<clus scale="   51.321">  1  6  2 -1</clus>
<clus scale="   79.134">  1  5  2 -1</clus>
<clus scale="   39.865">  2  3  1 -1</clus>
</clustering>
</event>
<event>
 6    0  0.6525019E+002  0.8780195E+02  0.7546771E-02  0.1308264E+00
         21   -1    0    0  504  502  0.00000000000E+00  0.00000000000E+00  0.41226912424E+02  0.41226912424E+02  0.00000000000E+00 0.  1.
          1   -1    0    0  503    0 -0.00000000000E+00 -0.00000000000E+00 -0.77965394658E+03  0.77965394658E+03  0.00000000000E+00 0.  1.
         21    1    1    2  503  502 -0.68113411161E+02 -0.35063391316E+02 -0.35640224225E+03  0.36454277729E+03  0.00000000000E+00 0.  1.
         21    1    1    2  504  505  0.28758044702E+02  0.24474607308E+02 -0.95364038148E+01  0.38948357291E+02  0.00000000000E+00 0.  1.
         21    1    1    2  505  501  0.80310521953E+02 -0.45036730539E+02 -0.98527336013E+02  0.13485445108E+03  0.00000000000E+00 0.  1.
          1    1    1    2  501    0 -0.40955155494E+02  0.55625514547E+02 -0.27396105208E+03  0.28253527335E+03  0.00000000000E+00 0.  1.
<scales pt_clust_3="14000.00000" pt_clust_4="37.76283" pt_clust_5="87.80195" pt_clust_6="69.77214"></scales>
<clustering>
<clus scale="   37.763">  1  4  2 -1</clus>
<clus scale="   69.772">  2  6  1 -1</clus>
<clus scale="   87.802">  1  5  2 -1</clus>
<clus scale="   37.763">  1  3  2 -1</clus>
</clustering>
</event>
<event>
 6    0  0.6525019E+002  0.1182178E+03  0.7546771E-02  0.1246066E+00
         21   -1    0    0  501  502  0.00000000000E+00  0.00000000000E+00  0.44250980391E+03  0.44250980391E+03  0.00000000000E+00 0. -1.
          2   -1    0    0  503    0 -0.00000000000E+00 -0.00000000000E+00 -0.17948576765E+04  0.17948576765E+04  0.00000000000E+00 0.  1.
         21    1    1    2  503  505  0.11212431641E+02  0.53170820649E+02 -0.68160407650E+02  0.87170499383E+02  0.00000000000E+00 0.  1.
         21    1    1    2  504  502  0.12481365385E+03 -0.34836222626E+02  0.33788925499E+03  0.36188556096E+03  0.00000000000E+00 0. -1.
         21    1    1    2  505  504 -0.96847420579E+02 -0.32176961290E+02  0.51436437950E+02  0.11428248711E+03  0.00000000000E+00 0. -1.
          2    1    1    2  501    0 -0.39178664910E+02  0.13842363267E+02 -0.16735131579E+04  0.16740289330E+04  0.00000000000E+00 0.  1.
<scales pt_clust_3="63.59092" pt_clust_4="118.21780" pt_clust_5="14000.00000" pt_clust_6="41.55212"></scales>
<clustering>
<clus scale="   41.552">  2  6  1 -1</clus>
<clus scale="   63.591">  2  3  1 -1</clus>
<clus scale="  118.218">  1  4  2 -1</clus>
<clus scale="  118.218">  1  3  2 -1</clus>
</clustering>
</event>
<event>
 6    0  0.6525019E+002  0.1607860E+03  0.7546771E-02  0.1187812E+00
          1   -1    0    0  504    0 -0.00000000000E+00  0.00000000000E+00  0.18973775554E+04  0.18973775554E+04  0.00000000000E+00 0.  1.
         21   -1    0    0  503  502  0.00000000000E+00 -0.00000000000E+00 -0.33566595703E+02  0.33566595703E+02  0.00000000000E+00 0.  1.
         21    1    1    2  503  501  0.29910310529E+01  0.17623062277E+03  0.59324698392E+03  0.61887653259E+03  0.00000000000E+00 0.  1.
         21    1    1    2  504  505 -0.52644072095E+02 -0.60385464359E+02  0.60611511911E+03  0.61138640830E+03  0.00000000000E+00 0.  1.
         21    1    1    2  505  502  0.59623389380E+02 -0.14510522702E+03  0.33642230915E+03  0.37120135447E+03  0.00000000000E+00 0.  1.
          1    1    1    2  501    0 -0.99703483385E+01  0.29260068614E+02  0.32802654757E+03  0.32947985579E+03  0.00000000000E+00 0.  1.
<scales pt_clust_3="14000.00000" pt_clust_4="74.81794" pt_clust_5="160.78601" pt_clust_6="30.91212"></scales>
<clustering>
<clus scale="   30.912">  1  6  2 -1</clus>
<clus scale="   74.818">  1  4  2 -1</clus>
<clus scale="  160.786">  2  5  1 -1</clus>
<clus scale="  160.786">  2  3  1 -1</clus>
</clustering>
</event>
<event>
 6    0  0.6525019E+002  0.1275251E+03  0.7546771E-02  0.1231175E+00
         21   -1    0    0  505  502  0.00000000000E+00  0.00000000000E+00  0.25864696683E+03  0.25864696683E+03  0.00000000000E+00 0. -1.
          2   -1    0    0  503    0 -0.00000000000E+00 -0.00000000000E+00 -0.20564817811E+04  0.20564817811E+04  0.00000000000E+00 0. -1.
         21    1    1    2  503  502 -0.61875161366E+02 -0.23474552717E+02 -0.25186454453E+03  0.26041378421E+03  0.00000000000E+00 0.  1.
         21    1    1    2  504  501  0.16581696951E+03 -0.62623624494E+02 -0.58512939099E+02  0.18665676994E+03  0.00000000000E+00 0. -1.
         21    1    1    2  505  504 -0.62699823791E+02  0.10777095427E+03  0.16951503140E+03  0.21043096815E+03  0.00000000000E+00 0. -1.
          2    1    1    2  501    0 -0.41241984353E+02 -0.21672777056E+02 -0.16569723621E+04  0.16576272257E+04  0.00000000000E+00 0. -1.
<scales pt_clust_3="95.92204" pt_clust_4="127.52513" pt_clust_5="14000.00000" pt_clust_6="46.58981"></scales>
<clustering>
<clus scale="   46.590">  2  6  1 -1</clus>
<clus scale="   95.922">  2  3  1 -1</clus>
<clus scale="  127.525">  2  4  1 -1</clus>
<clus scale="  127.525">  1  3  2 -1</clus>
</clustering>
</event>
<event>
 6    0  0.6525019E+002  0.9549097E+02  0.7546771E-02  0.1290074E+00
          1   -1    0    0  504    0 -0.00000000000E+00  0.00000000000E+00  0.51954947778E+03  0.51954947778E+03  0.00000000000E+00 0.  1.
         21   -1    0    0  503  502  0.00000000000E+00 -0.00000000000E+00 -0.64956551085E+03  0.64956551085E+03  0.00000000000E+00 0. -1.
         21    1    1    2  503  505  0.52809701913E+02  0.10141392926E+02 -0.43103286920E+03  0.43437431646E+03  0.00000000000E+00 0. -1.
         21    1    1    2  504  502 -0.12836865255E+03 -0.13460797161E+03 -0.48021706725E+02  0.19210388152E+03  0.00000000000E+00 0. -1.
         21    1    1    2  505  501  0.32406396050E+02  0.43101994644E+02 -0.84051090433E+02  0.99862616881E+02  0.00000000000E+00 0. -1.
          1    1    1    2  501    0  0.43152554587E+02  0.81364584036E+02  0.43308963328E+03  0.44277417377E+03  0.00000000000E+00 0.  1.
<scales pt_clust_3="53.77465" pt_clust_4="14000.00000" pt_clust_5="72.45663" pt_clust_6="95.49097"></scales>
<clustering>
<clus scale="   53.775">  2  3  1 -1</clus>
<clus scale="   72.457">  2  5  1 -1</clus>
<clus scale="   95.491">  1  6  2 -1</clus>
<clus scale="   53.775">  2  3  1 -1</clus>
</clustering>
</event>
<event>
 6    0  0.6525019E+002  0.1830821E+03  0.7546771E-02  0.1164853E+00
          1   -1    0    0  505    0 -0.00000000000E+00  0.00000000000E+00  0.16276746257E+04  0.16276746257E+04  0.00000000000E+00 0.  1.
         21   -1    0    0  503  502  0.00000000000E+00 -0.00000000000E+00 -0.93136179528E+03  0.93136179528E+03  0.00000000000E+00 0. -1.
         21    1    1    2  503  504  0.15394025818E+02 -0.64568953586E+02 -0.48521695078E+03  0.48973627098E+03  0.00000000000E+00 0. -1.
         21    1    1    2  504  501 -0.10412228385E+03 -0.10514069972E+03 -0.41044326580E+03  0.43630229334E+03  0.00000000000E+00 0. -1.
         21    1    1    2  505  502 -0.27338381758E+02  0.27540993467E+02  0.95450963014E+01  0.39962511204E+02  0.00000000000E+00 0.  1.
          1    1    1    2  501    0  0.11606663979E+03  0.14216865984E+03  0.15824279507E+04  0.15930353454E+04  0.00000000000E+00 0.  1.
<scales pt_clust_3="49.92184" pt_clust_4="14000.00000" pt_clust_5="38.80584" pt_clust_6="183.08211"></scales>
<clustering>
<clus scale="   38.806">  2  5  1 -1</clus>
<clus scale="   49.922">  2  3  1 -1</clus>
<clus scale="  183.082">  1  6  2 -1</clus>
<clus scale="   38.806">  2  3  1 -1</clus>
</clustering>
</event>
<event>
 6    0  0.6525019E+002  0.1317027E+03  0.7546771E-02  0.1224951E+00
         21   -1    0    0  505  502  0.00000000000E+00  0.00000000000E+00  0.27245031904E+03  0.27245031904E+03  0.00000000000E+00 0.  1.
          3   -1    0    0  503    0 -0.00000000000E+00 -0.00000000000E+00 -0.42466351207E+03  0.42466351207E+03  0.00000000000E+00 0. -1.
         21    1    1    2  503  504  0.79439655734E+01  0.52543107452E+02 -0.10606054088E+03  0.11862850864E+03  0.00000000000E+00 0. -1.
         21    1    1    2  504  502  0.48772463135E+02  0.79027929553E+02  0.67348214376E+02  0.11471681999E+03  0.00000000000E+00 0.  1.
         21    1    1    2  505  501  0.86706452831E+02 -0.48908937740E+02  0.13343608595E+03  0.16647907432E+03  0.00000000000E+00 0.  1.
          3    1    1    2  501    0 -0.14342288154E+03 -0.82662099265E+02 -0.24693695247E+03  0.29728942816E+03  0.00000000000E+00 0. -1.
<scales pt_clust_3="53.14024" pt_clust_4="96.58648" pt_clust_5="14000.00000" pt_clust_6="131.70270"></scales>
<clustering>
<clus scale="   53.140">  2  3  1 -1</clus>
<clus scale="   96.586">  1  4  2 -1</clus>
<clus scale="  131.703">  2  6  1 -1</clus>
<clus scale="   96.586">  1  3  2 -1</clus>
</clustering>
</event>
<event>
 6    0  0.6525019E+002  0.1164960E+03  0.7546771E-02  0.1248992E+00
         21   -1    0    0  501  502  0.00000000000E+00  0.00000000000E+00  0.22852142022E+03  0.22852142022E+03  0.00000000000E+00 0. -1.
          2   -1    0    0  503    0 -0.00000000000E+00 -0.00000000000E+00 -0.16102403316E+04  0.16102403316E+04  0.00000000000E+00 0. -1.
         21    1    1    2  503  505 -0.56807664038E+02  0.57717316360E+02 -0.27164394280E+03  0.28345869357E+03  0.00000000000E+00 0.  1.
         21    1    1    2  504  502 -0.27371811370E+02 -0.29451326601E+02  0.40276817955E+02  0.56910620809E+02  0.00000000000E+00 0.  1.
         21    1    1    2  505  504  0.11109190661E+03 -0.57189326357E+02  0.15125344862E+03  0.19618775824E+03  0.00000000000E+00 0. -1.
          2    1    1    2  501    0 -0.26912431206E+02  0.28923336598E+02 -0.13016052352E+04  0.13022046792E+04  0.00000000000E+00 0. -1.
<scales pt_clust_3="116.49604" pt_clust_4="40.14372" pt_clust_5="14000.00000" pt_clust_6="39.50745"></scales>
<clustering>
<clus scale="   39.507">  2  6  1 -1</clus>
<clus scale="   40.144">  1  4  2 -1</clus>
<clus scale="  116.496">  2  3  1 -1</clus>
<clus scale="   40.144">  1  3  2 -1</clus>
</clustering>
</event>
<event>
 6    0  0.6525019E+002  0.7986145E+02  0.7546771E-02  0.1329445E+00
          1   -1    0    0  504    0 -0.00000000000E+00  0.00000000000E+00  0.21523088849E+04  0.21523088849E+04  0.00000000000E+00 0. -1.
         21   -1    0    0  501  502  0.00000000000E+00 -0.00000000000E+00 -0.40458591447E+03  0.40458591447E+03  0.00000000000E+00 0.  1.
         21    1    1    2  503  505  0.79732016511E+02  0.36763641885E+02  0.33045994060E+02  0.93812566029E+02  0.00000000000E+00 0. -1.
         21    1    1    2  504  503  0.44778709685E+02 -0.52662836789E+02  0.37745426486E+03  0.38373197584E+03  0.00000000000E+00 0.  1.
         21    1    1    2  505  502 -0.76822411847E+02  0.25167969331E+02 -0.36631042323E+03  0.37512456039E+03  0.00000000000E+00 0.  1.
          1    1    1    2  501    0 -0.47688314350E+02 -0.92687744270E+01  0.17035331347E+04  0.17042256971E+04  0.00000000000E+00 0. -1.
<scales pt_clust_3="79.86145" pt_clust_4="60.68233" pt_clust_5="14000.00000" pt_clust_6="48.58071"></scales>
<clustering>
<clus scale="   48.581">  1  6  2 -1</clus>
<clus scale="   60.682">  1  4  2 -1</clus>
<clus scale="   79.861">  1  3  2 -1</clus>
<clus scale="   79.861">  2  3  1 -1</clus>
</clustering>
</event>
<event>
 6    0  0.6525019E+002  0.9100235E+02  0.7546771E-02  0.1300442E+00
          2   -1    0    0  503    0 -0.00000000000E+00  0.00000000000E+00  0.94749630155E+03  0.94749630155E+03  0.00000000000E+00 0. -1.
         21   -1    0    0  505  502  0.00000000000E+00 -0.00000000000E+00 -0.17999831313E+04  0.17999831313E+04  0.00000000000E+00 0. -1.
         21    1    1    2  503  504  0.40311861303E+02 -0.60062926971E+01 -0.14929701278E+01  0.40784196369E+02  0.00000000000E+00 0.  1.
         21    1    1    2  504  502 -0.33321507518E+02 -0.51461606439E+02 -0.17531843622E+04  0.17542559755E+04  0.00000000000E+00 0. -1.
         21    1    1    2  505  501 -0.75563728754E+02  0.12226974218E+02  0.40045051244E+02  0.86388553240E+02  0.00000000000E+00 0.  1.
          2    1    1    2  501    0  0.68573374969E+02  0.45240924918E+02  0.86214545134E+03  0.86605070770E+03  0.00000000000E+00 0. -1.
<scales pt_clust_3="40.75686" pt_clust_4="61.29785" pt_clust_5="91.00235" pt_clust_6="14000.00000"></scales>
<clustering>
<clus scale="   40.757">  1  3  2 -1</clus>
<clus scale="   61.298">  2  4  1 -1</clus>
<clus scale="   91.002">  2  5  1 -1</clus>
<clus scale="   61.298">  2  3  1 -1</clus>
</clustering>
</event>
<event>
 6    0  0.6525019E+002  0.1289822E+03  0.7546771E-02  0.1228974E+00
          3   -1    0    0  502    0 -0.00000000000E+00  0.00000000000E+00  0.29384924587E+03  0.29384924587E+03  0.00000000000E+00 0. -1.
         21   -1    0    0  503  502  0.00000000000E+00 -0.00000000000E+00 -0.14885641986E+04  0.14885641986E+04  0.00000000000E+00 0.  1.
         21    1    1    2  503  505 -0.44490566991E+02  0.69650539812E+01 -0.12098009587E+04  0.12106387910E+04  0.00000000000E+00 0.  1.
         21    1    1    2  504  501 -0.27575110531E+02  0.20085059707E+02 -0.12779561401E+03  0.13227061391E+03  0.00000000000E+00 0.  1.
         21    1    1    2  505  504 -0.52238954931E+02 -0.95735561063E+01 -0.12929390357E+03  0.13977651766E+03  0.00000000000E+00 0.  1.
          3    1    1    2  501    0  0.12430463245E+03 -0.17476557582E+02  0.27217552361E+03  0.29972752187E+03  0.00000000000E+00 0. -1.
<scales pt_clust_3="45.03246" pt_clust_4="30.34845" pt_clust_5="30.34845" pt_clust_6="123.29868"></scales>
<clustering>
<clus scale="   30.348">  4  5 -1 -1</clus>
<clus scale="   45.032">  2  3  1 -1</clus>
<clus scale="  123.299">  1  6  2 -1</clus>
<clus scale="   45.032">  2  3  1 -1</clus>
</clustering>
</event>
<event>
 6    0  0.6525019E+002  0.1466690E+03  0.7546771E-02  0.1204627E+00
          1   -1    0    0  502    0 -0.00000000000E+00  0.00000000000E+00  0.20557978525E+04  0.20557978525E+04  0.00000000000E+00 0.  1.
         21   -1    0    0  504  502  0.00000000000E+00 -0.00000000000E+00 -0.27934484082E+03  0.27934484082E+03  0.00000000000E+00 0.  1.
         21    1    1    2  503  505 -0.36828329656E+02  0.29380040112E+02  0.68698629868E+02  0.83300746503E+02  0.00000000000E+00 0.  1.
         21    1    1    2  504  503 -0.40132807829E+02 -0.20838681804E+02 -0.23986462824E+03  0.24409000964E+03  0.00000000000E+00 0.  1.
         21    1    1    2  505  501 -0.36558507405E+02  0.66842618776E+02  0.24816738190E+02  0.80126965766E+02  0.00000000000E+00 0.  1.
          1    1    1    2  501    0  0.11351964489E+03 -0.75383977085E+02  0.19228022718E+04  0.19276249714E+04  0.00000000000E+00 0.  1.
<scales pt_clust_3="45.07467" pt_clust_4="45.22049" pt_clust_5="45.07467" pt_clust_6="134.88042"></scales>
<clustering>
<clus scale="   45.220">  2  4  1 -1</clus>
<clus scale="   45.075">  3  5 -1 -1</clus>
<clus scale="  134.880">  1  6  2 -1</clus>
<clus scale="   45.220">  2  3  1 -1</clus>
</clustering>
</event>
<event>
 6    0  0.7569115E+002  0.1150311E+03  0.7546771E-02  0.1251527E+00
         21   -1    0    0  504  502  0.00000000000E+00  0.00000000000E+00  0.14831875045E+04  0.14831875045E+04  0.00000000000E+00 0.  1.
          1   -1    0    0  503    0 -0.00000000000E+00 -0.00000000000E+00 -0.80676245498E+03  0.80676245498E+03  0.00000000000E+00 0.  1.
         21    1    1    2  503  505  0.63432079861E+02 -0.72977304863E+02 -0.10862426930E+03  0.14542540239E+03  0.00000000000E+00 0.  1.
         21    1    1    2  504  501 -0.69845515537E+02  0.16469255442E+02  0.11032572904E+04  0.11055886583E+04  0.00000000000E+00 0.  1.
         21    1    1    2  505  502  0.16165192509E+02  0.90902790646E+02  0.35396723209E+03  0.36581065074E+03  0.00000000000E+00 0. -1.
          1    1    1    2  501    0 -0.97517568325E+01 -0.34394741225E+02 -0.67217520376E+03  0.67312524803E+03  0.00000000000E+00 0.  1.
<scales pt_clust_3="14000.00000" pt_clust_4="71.77550" pt_clust_5="115.03108" pt_clust_6="35.75045"></scales>
<clustering>
<clus scale="   35.750">  2  6  1 -1</clus>
<clus scale="   71.775">  1  4  2 -1</clus>
<clus scale="  115.031">  1  5  2 -1</clus>
<clus scale="   71.775">  1  3  2 -1</clus>
</clustering>
</event>
<event>
 6    0  0.6525019E+002  0.1103304E+03  0.7546771E-02  0.1259959E+00
          2   -1    0    0  503    0 -0.00000000000E+00  0.00000000000E+00  0.27424941826E+04  0.27424941826E+04  0.00000000000E+00 0. -1.
         21   -1    0    0  504  502  0.00000000000E+00 -0.00000000000E+00 -0.87510402138E+02  0.87510402138E+02  0.00000000000E+00 0.  1.
         21    1    1    2  503  505  0.20486463743E+02 -0.85325074200E+02  0.11794106234E+03  0.14700393760E+03  0.00000000000E+00 0.  1.
         21    1    1    2  504  501  0.17067342996E+02  0.31553411492E+02 -0.31935943338E+02  0.48029329067E+02  0.00000000000E+00 0.  1.
         21    1    1    2  505  502  0.53527243384E+02 -0.14672181108E+02 -0.74723974503E+01  0.56002458932E+02  0.00000000000E+00 0.  1.
          2    1    1    2  501    0 -0.91081050124E+02  0.68443843816E+02  0.25764510589E+04  0.25789688591E+04  0.00000000000E+00 0. -1.
<scales pt_clust_3="110.33037" pt_clust_4="35.87356" pt_clust_5="65.23873" pt_clust_6="14000.00000"></scales>
<clustering>
<clus scale="   35.874">  2  4  1 -1</clus>
<clus scale="   65.239">  2  5  1 -1</clus>
<clus scale="  110.330">  2  3  1 -1</clus>
<clus scale="   35.874">  2  3  1 -1</clus>
</clustering>
</event>
<event>
 6    0  0.6525019E+002  0.1210301E+03  0.7546771E-02  0.1241407E+00
          1   -1    0    0  505    0 -0.00000000000E+00  0.00000000000E+00  0.16196343001E+04  0.16196343001E+04  0.00000000000E+00 0. -1.
         21   -1    0    0  503  502  0.00000000000E+00 -0.00000000000E+00 -0.38534242806E+03  0.38534242806E+03  0.00000000000E+00 0. -1.
         21    1    1    2  503  501  0.14063118943E+03  0.28005790293E+02  0.40852745093E+03  0.43296204671E+03  0.00000000000E+00 0. -1.
         21    1    1    2  504  502 -0.12721020124E+01 -0.30183504670E+02 -0.29464419741E+03  0.29618890132E+03  0.00000000000E+00 0. -1.
         21    1    1    2  505  504 -0.92266545826E+02  0.10730845847E+03 -0.78147080785E+01  0.14173669391E+03  0.00000000000E+00 0. -1.
          1    1    1    2  501    0 -0.47092541592E+02 -0.10513074409E+03  0.11282233266E+04  0.11340890862E+04  0.00000000000E+00 0. -1.
<scales pt_clust_3="121.03005" pt_clust_4="30.21030" pt_clust_5="14000.00000" pt_clust_6="116.11221"></scales>
<clustering>
<clus scale="   30.210">  2  4  1 -1</clus>
<clus scale="  116.112">  1  6  2 -1</clus>
<clus scale="  121.030">  1  3  2 -1</clus>
<clus scale="   30.210">  2  3  1 -1</clus>
</clustering>
</event>
<event>
 6    0  0.6525019E+002  0.8709998E+02  0.7546771E-02  0.1310030E+00
         -2   -1    0    0    0  501 -0.00000000000E+00  0.00000000000E+00  0.22571130650E+03  0.22571130650E+03  0.00000000000E+00 0. -1.
         21   -1    0    0  505  502  0.00000000000E+00 -0.00000000000E+00 -0.88855703297E+03  0.88855703297E+03  0.00000000000E+00 0.  1.
         21    1    1    2  503  502  0.19460461133E+02  0.43198884346E+02 -0.42606546284E+03  0.42869176780E+03  0.00000000000E+00 0.  1.
         21    1    1    2  504  503 -0.11030688899E+03  0.27292003471E+02 -0.32644638247E+02  0.11822916568E+03  0.00000000000E+00 0.  1.
         21    1    1    2  505  501  0.85228114794E+01 -0.91999980852E+02 -0.36976888125E+03  0.38113732477E+03  0.00000000000E+00 0.  1.
         -2    1    1    2    0  504  0.82323616375E+02  0.21509093036E+02  0.16563325586E+03  0.18621008121E+03  0.00000000000E+00 0. -1.
<scales pt_clust_3="47.37988" pt_clust_4="14000.00000" pt_clust_5="61.83417" pt_clust_6="87.09998"></scales>
<clustering>
<clus scale="   47.380">  2  3  1 -1</clus>
<clus scale="   61.834">  2  5  1 -1</clus>
<clus scale="   87.100">  1  6  2 -1</clus>
<clus scale="   47.380">  2  3  1 -1</clus>
</clustering>
</event>
<event>
 6    0  0.6525019E+002  0.1799434E+03  0.7546771E-02  0.1167858E+00
          1   -1    0    0  503    0 -0.00000000000E+00  0.00000000000E+00  0.14826504368E+04  0.14826504368E+04  0.00000000000E+00 0. -1.
         21   -1    0    0  504  502  0.00000000000E+00 -0.00000000000E+00 -0.13397305482E+03  0.13397305482E+03  0.00000000000E+00 0. -1.
         21    1    1    2  503  505 -0.24033692945E+02 -0.52519502016E+02  0.18106142727E+03  0.19005040630E+03  0.00000000000E+00 0. -1.
         21    1    1    2  504  501 -0.19837668530E+03  0.55203143365E+02  0.19169227720E+02  0.20680463148E+03  0.00000000000E+00 0. -1.
         21    1    1    2  505  502  0.29837902613E+02 -0.48601256716E+01 -0.19549567425E+02  0.36001483864E+02  0.00000000000E+00 0. -1.
          1    1    1    2  501    0  0.19257247563E+03  0.21764843222E+01  0.11679962945E+04  0.11837669700E+04  0.00000000000E+00 0. -1.
<scales pt_clust_3="57.43222" pt_clust_4="179.94337" pt_clust_5="30.23113" pt_clust_6="14000.00000"></scales>
<clustering>
<clus scale="   30.231">  2  5  1 -1</clus>
<clus scale="   57.432">  1  3  2 -1</clus>
<clus scale="  179.943">  2  4  1 -1</clus>
<clus scale="   30.231">  2  3  1 -1</clus>
</clustering>
</event>
<event>
 6    0  0.6525019E+002  0.6554902E+02  0.7546771E-02  0.1375918E+00
         21   -1    0    0  505  502  0.00000000000E+00  0.00000000000E+00  0.82890859918E+03  0.82890859918E+03  0.00000000000E+00 0. -1.
          2   -1    0    0  504    0 -0.00000000000E+00 -0.00000000000E+00 -0.11914924128E+04  0.11914924128E+04  0.00000000000E+00 0.  1.
         21    1    1    2  503  502  0.46160955495E+02 -0.24607052323E+02  0.31246165672E+03  0.31681008152E+03  0.00000000000E+00 0. -1.
         21    1    1    2  504  503 -0.63787201926E+02 -0.71158337515E+02 -0.38693268762E+02  0.10309939464E+03  0.00000000000E+00 0. -1.
         21    1    1    2  505  501 -0.23555310843E+02  0.83677455525E+02  0.47773418688E+03  0.48557875010E+03  0.00000000000E+00 0. -1.
          2    1    1    2  501    0  0.41181557275E+02  0.12087934313E+02 -0.11140863885E+04  0.11149127858E+04  0.00000000000E+00 0.  1.
<scales pt_clust_3="53.18246" pt_clust_4="14000.00000" pt_clust_5="65.54902" pt_clust_6="42.91898"></scales>
<clustering>
<clus scale="   42.919">  2  6  1 -1</clus>
<clus scale="   53.182">  1  3  2 -1</clus>
<clus scale="   65.549">  1  5  2 -1</clus>
<clus scale="   53.182">  1  3  2 -1</clus>
</clustering>
</event>
<event>
 6    0  0.6525019E+002  0.7160291E+02  0.7546771E-02  0.1354726E+00
         21   -1    0    0  505  502  0.00000000000E+00  0.00000000000E+00  0.53840048916E+03  0.53840048916E+03  0.00000000000E+00 0. -1.
          2   -1    0    0  503    0 -0.00000000000E+00 -0.00000000000E+00 -0.19253677975E+03  0.19253677975E+03  0.00000000000E+00 0. -1.
         21    1    1    2  503  504 -0.48443249232E+02  0.56235659667E+02  0.73428555846E+01  0.74586294602E+02  0.00000000000E+00 0. -1.
         21    1    1    2  504  502 -0.39345066257E+02 -0.28964226121E+02  0.14950716769E+03  0.15728748781E+03  0.00000000000E+00 0. -1.
         21    1    1    2  505  501  0.10970184637E+03  0.23650118815E+02  0.32947265121E+03  0.34806041302E+03  0.00000000000E+00 0. -1.
          2    1    1    2  501    0 -0.21913530879E+02 -0.50921552361E+02 -0.14045896507E+03  0.15100307348E+03  0.00000000000E+00 0. -1.
<scales pt_clust_3="14000.00000" pt_clust_4="48.85653" pt_clust_5="71.60291" pt_clust_6="56.01483"></scales>
<clustering>
<clus scale="   48.857">  1  4  2 -1</clus>
<clus scale="   56.015">  2  6  1 -1</clus>
<clus scale="   71.603">  1  5  2 -1</clus>
<clus scale="   48.857">  1  3  2 -1</clus>
</clustering>
</event>
<event>
 6    0  0.8929316E+002  0.1154884E+03  0.7546771E-02  0.1250731E+00
          2   -1    0    0  503    0 -0.00000000000E+00  0.00000000000E+00  0.30149109501E+04  0.30149109501E+04  0.00000000000E+00 0. -1.
         21   -1    0    0  505  502  0.00000000000E+00 -0.00000000000E+00 -0.37169708411E+03  0.37169708411E+03  0.00000000000E+00 0.  1.
         21    1    1    2  503  502  0.52046718241E+02 -0.30437595295E+02 -0.31909588289E+02  0.68216786144E+02  0.00000000000E+00 0.  1.
         21    1    1    2  504  501 -0.82830062559E+02 -0.27056748763E+02  0.94361619927E+03  0.94763095055E+03  0.00000000000E+00 0. -1.
         21    1    1    2  505  504  0.52766847879E+02  0.81727613080E+02 -0.31209034631E+03  0.32690079112E+03  0.00000000000E+00 0.  1.
          2    1    1    2  501    0 -0.21983503561E+02 -0.24233269022E+02  0.20435976013E+04  0.20438595063E+04  0.00000000000E+00 0. -1.
<scales pt_clust_3="60.17045" pt_clust_4="115.48838" pt_clust_5="14000.00000" pt_clust_6="32.71889"></scales>
<clustering>
<clus scale="   32.719">  1  6  2 -1</clus>
<clus scale="   60.170">  2  3  1 -1</clus>
<clus scale="  115.488">  1  4  2 -1</clus>
<clus scale="   60.170">  2  3  1 -1</clus>
</clustering>
</event>
<event>
 6    0  0.6525019E+002  0.1390170E+03  0.7546771E-02  0.1214658E+00
         21   -1    0    0  503  502  0.00000000000E+00  0.00000000000E+00  0.31236022043E+03  0.31236022043E+03  0.00000000000E+00 0.  1.
          2   -1    0    0  504    0 -0.00000000000E+00 -0.00000000000E+00 -0.18692875498E+04  0.18692875498E+04  0.00000000000E+00 0. -1.
         21    1    1    2  503  505  0.27113211642E+01 -0.87790536675E+02  0.43320039410E+02  0.97934444434E+02  0.00000000000E+00 0.  1.
         21    1    1    2  504  502  0.24190335347E+01 -0.82862645941E+02  0.22151100355E+03  0.23651468138E+03  0.00000000000E+00 0.  1.
         21    1    1    2  505  501  0.33646620817E+02  0.10936271477E+03 -0.26371463167E+03  0.28746774676E+03  0.00000000000E+00 0.  1.
          2    1    1    2  501    0 -0.38776975515E+02  0.61290467843E+02 -0.15580437407E+04  0.15597308977E+04  0.00000000000E+00 0. -1.
<scales pt_clust_3="14000.00000" pt_clust_4="81.39485" pt_clust_5="139.01696" pt_clust_6="72.52707"></scales>
<clustering>
<clus scale="   72.527">  2  6  1 -1</clus>
<clus scale="   81.395">  1  4  2 -1</clus>
<clus scale="  139.017">  2  5  1 -1</clus>
<clus scale="   81.395">  1  3  2 -1</clus>
</clustering>
</event>
<event>
 6    0  0.6525019E+002  0.1370574E+03  0.7546771E-02  0.1217344E+00
          1   -1    0    0  505    0 -0.00000000000E+00  0.00000000000E+00  0.27486808001E+04  0.27486808001E+04  0.00000000000E+00 0.  1.
         21   -1    0    0  504  502  0.00000000000E+00 -0.00000000000E+00 -0.21805445819E+03  0.21805445819E+03  0.00000000000E+00 0. -1.
         21    1    1    2  503  502 -0.84361334010E+02 -0.66327323664E+02 -0.13315216792E+03  0.17101359116E+03  0.00000000000E+00 0. -1.
         21    1    1    2  504  501 -0.99320099351E+02 -0.10500189695E+03  0.58220378204E+03  0.59987592411E+03  0.00000000000E+00 0. -1.
         21    1    1    2  505  503  0.17541372144E+03  0.14232688247E+03  0.16671964641E+03  0.28075319347E+03  0.00000000000E+00 0. -1.
          1    1    1    2  501    0  0.82677119246E+01  0.29002338144E+02  0.19148550814E+04  0.19150925495E+04  0.00000000000E+00 0.  1.
<scales pt_clust_3="106.75947" pt_clust_4="14000.00000" pt_clust_5="137.05738" pt_clust_6="30.15776"></scales>
<clustering>
<clus scale="   30.158">  1  6  2 -1</clus>
<clus scale="  106.759">  2  3  1 -1</clus>
<clus scale="  137.057">  2  5  1 -1</clus>
<clus scale="  106.759">  2  3  1 -1</clus>
</clustering>
</event>
<event>
 6    0  0.6525019E+002  0.2398607E+03  0.7546771E-02  0.1119886E+00
          2   -1    0    0  504    0 -0.00000000000E+00  0.00000000000E+00  0.46685876250E+03  0.46685876250E+03  0.00000000000E+00 0. -1.
         21   -1    0    0  505  502  0.00000000000E+00 -0.00000000000E+00 -0.88343263215E+03  0.88343263215E+03  0.00000000000E+00 0. -1.
         21    1    1    2  503  501 -0.19838221539E+03  0.17991667175E+01  0.17322066135E+03  0.26337072332E+03  0.00000000000E+00 0. -1.
         21    1    1    2  504  502  0.47759933850E+02 -0.48752478912E+02 -0.82776017888E+02  0.10728319821E+03  0.00000000000E+00 0. -1.
         21    1    1    2  505  503  0.20074595620E+03  0.20445712766E+02 -0.72595537444E+03  0.75347738637E+03  0.00000000000E+00 0. -1.
          2    1    1    2  501    0 -0.50123674666E+02  0.26507599428E+02  0.21893686133E+03  0.22616008675E+03  0.00000000000E+00 0. -1.
<scales pt_clust_3="239.86072" pt_clust_4="65.54489" pt_clust_5="14000.00000" pt_clust_6="56.70128"></scales>
<clustering>
<clus scale="   56.701">  1  6  2 -1</clus>
<clus scale="   65.545">  2  4  1 -1</clus>
<clus scale="  239.861">  1  3  2 -1</clus>
<clus scale="   65.545">  2  3  1 -1</clus>
</clustering>
</event>
<event>
 6    0  0.6525019E+002  0.9797438E+02  0.7546771E-02  0.1284614E+00
         -2   -1    0    0    0  501 -0.00000000000E+00  0.00000000000E+00  0.20000075072E+03  0.20000075072E+03  0.00000000000E+00 0.  1.
         21   -1    0    0  503  502  0.00000000000E+00 -0.00000000000E+00 -0.55221970122E+03  0.55221970122E+03  0.00000000000E+00 0. -1.
         21    1    1    2  503  501 -0.27324512389E+02 -0.12477698148E+03 -0.59415126676E+02  0.14087612063E+03  0.00000000000E+00 0. -1.
         21    1    1    2  504  505  0.40817389205E+02  0.68625746843E+02 -0.74276376373E+01  0.80191783820E+02  0.00000000000E+00 0. -1.
         21    1    1    2  505  502  0.13948045632E+02  0.30788305871E+02 -0.40470291511E+03  0.40611195162E+03  0.00000000000E+00 0. -1.
         -2    1    1    2    0  504 -0.27440922448E+02  0.25362928766E+02  0.11932672892E+03  0.12504059587E+03  0.00000000000E+00 0.  1.
<scales pt_clust_3="97.97438" pt_clust_4="14000.00000" pt_clust_5="33.80041" pt_clust_6="37.57939"></scales>
<clustering>
<clus scale="   33.800">  2  5  1 -1</clus>
<clus scale="   37.579">  1  6  2 -1</clus>
<clus scale="   97.974">  2  3  1 -1</clus>
<clus scale="   33.800">  2  3  1 -1</clus>
</clustering>
</event>
<event>
 6    0  0.6525019E+002  0.1409054E+03  0.7546771E-02  0.1212116E+00
         21   -1    0    0  505  502  0.00000000000E+00  0.00000000000E+00  0.27753280728E+03  0.27753280728E+03  0.00000000000E+00 0. -1.
          2   -1    0    0  504    0 -0.00000000000E+00 -0.00000000000E+00 -0.86650232318E+03  0.86650232318E+03  0.00000000000E+00 0.  1.
         21    1    1    2  503  502 -0.91576330841E+02  0.87249094783E+02  0.31289921721E+02  0.13029845783E+03  0.00000000000E+00 0. -1.
         21    1    1    2  504  503 -0.39868437415E+02  0.12711623387E+02  0.53354716789E+02  0.67807104898E+02  0.00000000000E+00 0. -1.
         21    1    1    2  505  501  0.21288134546E+02 -0.48951649930E+02  0.12616351759E+03  0.13699153943E+03  0.00000000000E+00 0. -1.
          2    1    1    2  501    0  0.11015663371E+03 -0.51009068239E+02 -0.79977767201E+03  0.80893802831E+03  0.00000000000E+00 0.  1.
<scales pt_clust_3="39.89639" pt_clust_4="39.89639" pt_clust_5="53.38023" pt_clust_6="122.65034"></scales>
<clustering>
<clus scale="   39.896">  3  4 -1 -1</clus>
<clus scale="   53.380">  1  5  2 -1</clus>
<clus scale="  122.650">  2  6  1 -1</clus>
<clus scale="   53.380">  1  3  2 -1</clus>
</clustering>
</event>
<event>
 6    0  0.6525019E+002  0.1093439E+03  0.7546771E-02  0.1261790E+00
          2   -1    0    0  504    0 -0.00000000000E+00  0.00000000000E+00  0.37127681920E+04  0.37127681920E+04  0.00000000000E+00 0. -1.
         21   -1    0    0  501  502  0.00000000000E+00 -0.00000000000E+00 -0.26666249455E+03  0.26666249455E+03  0.00000000000E+00 0.  1.
         21    1    1    2  503  505 -0.53384954133E+02  0.69143989126E+02  0.45607358098E+03  0.46436403374E+03  0.00000000000E+00 0.  1.
         21    1    1    2  504  503  0.44319974782E+02  0.71177105246E+01  0.33538744637E+03  0.33837798562E+03  0.00000000000E+00 0.  1.
         21    1    1    2  505  502  0.44632423477E+02 -0.10049354492E+03 -0.24927502266E+03  0.27245007381E+03  0.00000000000E+00 0.  1.
          2    1    1    2  501    0 -0.35567444126E+02  0.24231845273E+02  0.29039196928E+04  0.29042385934E+04  0.00000000000E+00 0. -1.
<scales pt_clust_3="109.34388" pt_clust_4="34.15708" pt_clust_5="14000.00000" pt_clust_6="43.03749"></scales>
<clustering>
<clus scale="   43.037">  1  6  2 -1</clus>
<clus scale="   34.157">  1  4  2 -1</clus>
<clus scale="  109.344">  1  3  2 -1</clus>
<clus scale="  109.344">  2  3  1 -1</clus>
</clustering>
</event>
<event>
 6    0  0.6525019E+002  0.1325957E+03  0.7546771E-02  0.1223654E+00
          2   -1    0    0  503    0 -0.00000000000E+00  0.00000000000E+00  0.44459847334E+03  0.44459847334E+03  0.00000000000E+00 0.  1.
         21   -1    0    0  505  502  0.00000000000E+00 -0.00000000000E+00 -0.34412030162E+03  0.34412030162E+03  0.00000000000E+00 0. -1.
         21    1    1    2  503  502 -0.15607212455E+03  0.78279560201E+02  0.14397418938E+03  0.22630679356E+03  0.00000000000E+00 0.  1.
         21    1    1    2  504  501  0.59276243607E+02 -0.90042136943E+02  0.76788917608E+02  0.13235481612E+03  0.00000000000E+00 0.  1.
         21    1    1    2  505  504  0.45807630176E+02 -0.20400315494E+02 -0.26688021422E+03  0.27155029110E+03  0.00000000000E+00 0. -1.
          2    1    1    2  501    0  0.50988250763E+02  0.32162892237E+02  0.14659527895E+03  0.15850687418E+03  0.00000000000E+00 0.  1.
<scales pt_clust_3="132.59574" pt_clust_4="14000.00000" pt_clust_5="50.14491" pt_clust_6="62.58779"></scales>
<clustering>
<clus scale="   50.145">  2  5  1 -1</clus>
<clus scale="   62.588">  1  6  2 -1</clus>
<clus scale="  132.596">  2  3  1 -1</clus>
<clus scale="   50.145">  2  3  1 -1</clus>
</clustering>
</event>
<event>
 6    0  0.6525019E+002  0.6920700E+02  0.7546771E-02  0.1362811E+00
         21   -1    0    0  503  502  0.00000000000E+00  0.00000000000E+00  0.34476660809E+03  0.34476660809E+03  0.00000000000E+00 0. -1.
          2   -1    0    0  505    0 -0.00000000000E+00 -0.00000000000E+00 -0.14678622066E+04  0.14678622066E+04  0.00000000000E+00 0.  1.
         21    1    1    2  503  501 -0.43675930801E+02  0.22375402247E+02  0.62119349721E+02  0.79164759627E+02  0.00000000000E+00 0. -1.
         21    1    1    2  504  502 -0.63663500605E+00  0.45594590501E+02  0.19298104265E+03  0.19829512049E+03  0.00000000000E+00 0. -1.
         21    1    1    2  505  504  0.17165317833E+02 -0.11070663703E+03  0.37825291058E+02  0.11824280216E+03  0.00000000000E+00 0. -1.
          2    1    1    2  501    0  0.27147247974E+02  0.42736644280E+02 -0.14160212819E+04  0.14169261324E+04  0.00000000000E+00 0.  1.
<scales pt_clust_3="14000.00000" pt_clust_4="45.59903" pt_clust_5="69.20700" pt_clust_6="50.74575"></scales>
<clustering>
<clus scale="   45.599">  1  4  2 -1</clus>
<clus scale="   50.746">  2  6  1 -1</clus>
<clus scale="   69.207">  2  5  1 -1</clus>
<clus scale="   45.599">  1  3  2 -1</clus>
</clustering>
</event>
<event>
 6    0  0.6525019E+002  0.8826041E+02  0.7546771E-02  0.1307120E+00
         21   -1    0    0  503  502  0.00000000000E+00  0.00000000000E+00  0.10099117329E+04  0.10099117329E+04  0.00000000000E+00 0. -1.
          2   -1    0    0  504    0 -0.00000000000E+00 -0.00000000000E+00 -0.31059049169E+04  0.31059049169E+04  0.00000000000E+00 0. -1.
         21    1    1    2  503  501  0.16573749092E+03 -0.32078398648E+02 -0.35810257506E+02  0.17256973691E+03  0.00000000000E+00 0. -1.
         21    1    1    2  504  505 -0.80827697196E+02  0.67011277599E+02 -0.46155420097E+03  0.47334544298E+03  0.00000000000E+00 0. -1.
         21    1    1    2  505  502 -0.86612711575E+02  0.46199298807E+01  0.93347114619E+03  0.93749212601E+03  0.00000000000E+00 0. -1.
          2    1    1    2  501    0  0.17029178523E+01 -0.39552808832E+02 -0.25320998717E+04  0.25324093439E+04  0.00000000000E+00 0. -1.
<scales pt_clust_3="14000.00000" pt_clust_4="86.72043" pt_clust_5="88.26041" pt_clust_6="39.58945"></scales>
<clustering>
<clus scale="   39.589">  2  6  1 -1</clus>
<clus scale="   86.720">  2  4  1 -1</clus>
<clus scale="   88.260">  1  5  2 -1</clus>
<clus scale="   88.260">  1  3  2 -1</clus>
</clustering>
</event>
<event>
 6    0  0.6525019E+002  0.1918011E+03  0.7546771E-02  0.1156847E+00
         -2   -1    0    0    0  501 -0.00000000000E+00  0.00000000000E+00  0.79934638863E+03  0.79934638863E+03  0.00000000000E+00 0. -1.
         21   -1    0    0  504  502  0.00000000000E+00 -0.00000000000E+00 -0.12521331752E+03  0.12521331752E+03  0.00000000000E+00 0. -1.
         21    1    1    2  503  502  0.39969687079E+02 -0.46797534834E+02 -0.58035636273E+02  0.84591490289E+02  0.00000000000E+00 0. -1.
         21    1    1    2  504  501  0.18175049099E+02 -0.14817560263E+03  0.11531307240E+03  0.18863575030E+03  0.00000000000E+00 0. -1.
         21    1    1    2  505  503 -0.64770123426E+01  0.67034200489E+02  0.14813434660E+03  0.16272467657E+03  0.00000000000E+00 0. -1.
         -2    1    1    2    0  505 -0.51667723836E+02  0.12793893697E+03  0.46872128838E+03  0.48860778899E+03  0.00000000000E+00 0. -1.
<scales pt_clust_3="61.54336" pt_clust_4="185.63375" pt_clust_5="33.70718" pt_clust_6="33.70718"></scales>
<clustering>
<clus scale="   33.707">  5  6 -1 -1</clus>
<clus scale="   61.543">  2  3  1 -1</clus>
<clus scale="  185.634">  2  4  1 -1</clus>
<clus scale="   61.543">  2  3  1 -1</clus>
</clustering>
</event>
<event>
 6    0  0.6525019E+002  0.8265856E+02  0.7546771E-02  0.1321672E+00
         21   -1    0    0  505  502  0.00000000000E+00  0.00000000000E+00  0.13471290093E+03  0.13471290093E+03  0.00000000000E+00 0. -1.
          2   -1    0    0  503    0 -0.00000000000E+00 -0.00000000000E+00 -0.54872606836E+03  0.54872606836E+03  0.00000000000E+00 0.  1.
         21    1    1    2  503  504  0.48699782421E+02 -0.29528862412E+02 -0.82872921512E+02  0.10055617158E+03  0.00000000000E+00 0.  1.
         21    1    1    2  504  502 -0.10460007749E+02 -0.44689747864E+02  0.77174792556E+02  0.89791613931E+02  0.00000000000E+00 0. -1.
         21    1    1    2  505  501 -0.75058848017E+02  0.80645080732E+01  0.23284260167E+01  0.75526740456E+02  0.00000000000E+00 0. -1.
          2    1    1    2  501    0  0.36819073346E+02  0.66154102203E+02 -0.41064346449E+03  0.41756444333E+03  0.00000000000E+00 0.  1.
<scales pt_clust_3="59.88359" pt_clust_4="45.89755" pt_clust_5="82.65856" pt_clust_6="14000.00000"></scales>
<clustering>
<clus scale="   45.898">  1  4  2 -1</clus>
<clus scale="   59.884">  2  3  1 -1</clus>
<clus scale="   82.659">  1  5  2 -1</clus>
<clus scale="   45.898">  1  3  2 -1</clus>
</clustering>
</event>
<event>
 6    0  0.6525019E+002  0.1115760E+03  0.7546771E-02  0.1257679E+00
         21   -1    0    0  503  502  0.00000000000E+00  0.00000000000E+00  0.27653813745E+03  0.27653813745E+03  0.00000000000E+00 0. -1.
          3   -1    0    0  504    0 -0.00000000000E+00 -0.00000000000E+00 -0.23624330887E+03  0.23624330887E+03  0.00000000000E+00 0.  1.
         21    1    1    2  503  505 -0.37159221500E+01  0.47780013605E+02  0.15677402459E+02  0.50423394624E+02  0.00000000000E+00 0. -1.
         21    1    1    2  504  502 -0.92779370174E+02 -0.62924714710E+02  0.74563804512E-02  0.11210500126E+03  0.00000000000E+00 0. -1.
         21    1    1    2  505  501  0.46394508645E+02  0.82682610036E+02  0.16285405447E+03  0.18844178807E+03  0.00000000000E+00 0. -1.
          3    1    1    2  501    0  0.50100783679E+02 -0.67537908932E+02 -0.13824408473E+03  0.16181126237E+03  0.00000000000E+00 0.  1.
<scales pt_clust_3="47.92429" pt_clust_4="14000.00000" pt_clust_5="111.57601" pt_clust_6="82.13696"></scales>
<clustering>
<clus scale="   47.924">  1  3  2 -1</clus>
<clus scale="   82.137">  2  6  1 -1</clus>
<clus scale="  111.576">  1  5  2 -1</clus>
<clus scale="   47.924">  1  3  2 -1</clus>
</clustering>
</event>
<event>
 6    0  0.6525019E+002  0.2083725E+03  0.7546771E-02  0.1142861E+00
         21   -1    0    0  503  502  0.00000000000E+00  0.00000000000E+00  0.45140402302E+03  0.45140402302E+03  0.00000000000E+00 0. -1.
          2   -1    0    0  502    0 -0.00000000000E+00 -0.00000000000E+00 -0.25981521189E+03  0.25981521189E+03  0.00000000000E+00 0. -1.
         21    1    1    2  503  505 -0.37809656164E+01  0.20533493582E+03  0.34204033549E+03  0.39895904886E+03  0.00000000000E+00 0. -1.
         21    1    1    2  504  501 -0.24820571561E+02 -0.43043709488E+02 -0.34964932496E+02  0.60756630943E+02  0.00000000000E+00 0. -1.
         21    1    1    2  505  504 -0.46572161717E+00 -0.12281807021E+03  0.34431131822E+01  0.12286720594E+03  0.00000000000E+00 0.  1.
          2    1    1    2  501    0  0.29067258795E+02 -0.39473156118E+02 -0.11892970504E+03  0.12863634918E+03  0.00000000000E+00 0. -1.
<scales pt_clust_3="197.09016" pt_clust_4="43.01941" pt_clust_5="43.01941" pt_clust_6="49.02077"></scales>
<clustering>
<clus scale="   43.019">  4  5 -1 -1</clus>
<clus scale="   49.021">  2  6  1 -1</clus>
<clus scale="  197.090">  1  3  2 -1</clus>
<clus scale="  197.090">  1  3  2 -1</clus>
</clustering>
</event>
<event>
 6    0  0.6525019E+002  0.1450546E+03  0.7546771E-02  0.1206685E+00
         21   -1    0    0  504  502  0.00000000000E+00  0.00000000000E+00  0.47309353316E+02  0.47309353316E+02  0.00000000000E+00 0. -1.
          2   -1    0    0  505    0 -0.00000000000E+00 -0.00000000000E+00 -0.35315641879E+04  0.35315641879E+04  0.00000000000E+00 0. -1.
         21    1    1    2  503  502  0.32613700695E+02 -0.57769761181E+01 -0.13257115631E+02  0.35676014926E+02  0.00000000000E+00 0.  1.
         21    1    1    2  504  501 -0.14300387049E+03 -0.14451310889E+03 -0.51375545859E+03  0.55252042210E+03  0.00000000000E+00 0. -1.
         21    1    1    2  505  503 -0.10148229444E+02  0.78299356019E+02 -0.88893302592E+02  0.11889404930E+03  0.00000000000E+00 0. -1.
          2    1    1    2  501    0  0.12053839923E+03  0.71990728992E+02 -0.28683489578E+04  0.28717830549E+04  0.00000000000E+00 0. -1.
<scales pt_clust_3="33.12140" pt_clust_4="145.05456" pt_clust_5="75.97516" pt_clust_6="14000.00000"></scales>
<clustering>
<clus scale="   33.121">  1  3  2 -1</clus>
<clus scale="   75.975">  1  5  2 -1</clus>
<clus scale="  145.055">  1  4  2 -1</clus>
<clus scale="   33.121">  1  3  2 -1</clus>
</clustering>
</event>
<event>
 6    0  0.6525019E+002  0.1184454E+03  0.7546771E-02  0.1245684E+00
         -3   -1    0    0    0  501 -0.00000000000E+00  0.00000000000E+00  0.89296705070E+03  0.89296705070E+03  0.00000000000E+00 0.  1.
         21   -1    0    0  505  502  0.00000000000E+00 -0.00000000000E+00 -0.68289074341E+03  0.68289074341E+03  0.00000000000E+00 0. -1.
         21    1    1    2  503  502 -0.37629024841E+02  0.22361441539E+02  0.13864721203E+02  0.45915227019E+02  0.00000000000E+00 0.  1.
         21    1    1    2  504  501 -0.61576240989E+02  0.98805819122E+02 -0.11386375385E+03  0.16284709942E+03  0.00000000000E+00 0. -1.
         21    1    1    2  505  504  0.12826021111E+02 -0.39868458154E+02 -0.52347471719E+03  0.52514738913E+03  0.00000000000E+00 0. -1.
         -3    1    1    2    0  503  0.86379244719E+02 -0.81298802507E+02  0.83355005714E+03  0.84194807854E+03  0.00000000000E+00 0.  1.
<scales pt_clust_3="40.69596" pt_clust_4="118.44536" pt_clust_5="41.88079" pt_clust_6="14000.00000"></scales>
<clustering>
<clus scale="   41.881">  2  5  1 -1</clus>
<clus scale="   40.696">  2  3  1 -1</clus>
<clus scale="  118.445">  2  4  1 -1</clus>
<clus scale="   41.881">  2  3  1 -1</clus>
</clustering>
</event>
<event>
 6    0  0.6525019E+002  0.1245481E+03  0.7546771E-02  0.1235777E+00
         -4   -1    0    0    0  501 -0.00000000000E+00  0.00000000000E+00  0.11886615896E+04  0.11886615896E+04  0.00000000000E+00 0. -1.
         21   -1    0    0  505  502  0.00000000000E+00 -0.00000000000E+00 -0.30729565801E+03  0.30729565801E+03  0.00000000000E+00 0. -1.
         21    1    1    2  503  502 -0.74440111786E+02  0.24247405518E+02 -0.35270578877E+01  0.78369043981E+02  0.00000000000E+00 0. -1.
         21    1    1    2  504  501  0.96181547791E+02 -0.17162716068E+03  0.44184294963E+02  0.20164083004E+03  0.00000000000E+00 0. -1.
         21    1    1    2  505  504  0.72617843073E+02  0.70379276877E+02 -0.17006634754E+03  0.19786145736E+03  0.00000000000E+00 0. -1.
         -4    1    1    2    0  503 -0.94359279077E+02  0.77000478280E+02  0.10107750421E+04  0.10180859163E+04  0.00000000000E+00 0. -1.
<scales pt_clust_3="78.28963" pt_clust_4="124.54815" pt_clust_5="89.66953" pt_clust_6="14000.00000"></scales>
<clustering>
<clus scale="   78.290">  2  3  1 -1</clus>
<clus scale="   89.670">  2  5  1 -1</clus>
<clus scale="  124.548">  2  4  1 -1</clus>
<clus scale="   78.290">  2  3  1 -1</clus>
</clustering>
</event>
<event>
 6    0  0.6525019E+002  0.8343854E+02  0.7546771E-02  0.1319567E+00
          2   -1    0    0  503    0 -0.00000000000E+00  0.00000000000E+00  0.15593340100E+04  0.15593340100E+04  0.00000000000E+00 0.  1.
         21   -1    0    0  505  502  0.00000000000E+00 -0.00000000000E+00 -0.13996250099E+03  0.13996250099E+03  0.00000000000E+00 0. -1.
         21    1    1    2  503  504 -0.36003021170E+02  0.46857573596E+02  0.63993861763E+02  0.87103754683E+02  0.00000000000E+00 0. -1.
         21    1    1    2  504  502  0.29698229457E+02 -0.11445879006E+03  0.11032263748E+02  0.11876241113E+03  0.00000000000E+00 0. -1.
         21    1    1    2  505  501  0.32124437623E+02  0.43040043619E+02 -0.64614102375E+02  0.84020277749E+02  0.00000000000E+00 0. -1.
          2    1    1    2  501    0 -0.25819645909E+02  0.24561172842E+02  0.14089594859E+04  0.14094100675E+04  0.00000000000E+00 0.  1.
<scales pt_clust_3="14000.00000" pt_clust_4="83.43854" pt_clust_5="54.02919" pt_clust_6="35.63573"></scales>
<clustering>
<clus scale="   35.636">  1  6  2 -1</clus>
<clus scale="   54.029">  2  5  1 -1</clus>
<clus scale="   83.439">  2  4  1 -1</clus>
<clus scale="   54.029">  2  3  1 -1</clus>
</clustering>
</event>
<event>
 6    0  0.6525019E+002  0.8251511E+02  0.7546771E-02  0.1322062E+00
          2   -1    0    0  505    0 -0.00000000000E+00  0.00000000000E+00  0.25076377392E+04  0.25076377392E+04  0.00000000000E+00 0. -1.
         21   -1    0    0  504  502  0.00000000000E+00 -0.00000000000E+00 -0.10477863019E+03  0.10477863019E+03  0.00000000000E+00 0. -1.
         21    1    1    2  503  502 -0.19264430279E+01 -0.34457635931E+02 -0.41145423460E+02  0.53702753452E+02  0.00000000000E+00 0. -1.
         21    1    1    2  504  501  0.21896383329E+01  0.13650607232E+03  0.43047139936E+02  0.14314942736E+03  0.00000000000E+00 0. -1.
         21    1    1    2  505  503 -0.56080828619E+02 -0.41630307185E+02  0.17987137533E+03  0.19295557385E+03  0.00000000000E+00 0.  1.
          2    1    1    2  501    0  0.55817633314E+02 -0.60418129201E+02  0.22210860172E+04  0.22226086148E+04  0.00000000000E+00 0. -1.
<scales pt_clust_3="34.51145" pt_clust_4="14000.00000" pt_clust_5="72.42603" pt_clust_6="82.51511"></scales>
<clustering>
<clus scale="   34.511">  2  3  1 -1</clus>
<clus scale="   72.426">  2  5  1 -1</clus>
<clus scale="   82.515">  1  6  2 -1</clus>
<clus scale="   34.511">  2  3  1 -1</clus>
</clustering>
</event>
<event>
 6    0  0.6525019E+002  0.7951379E+02  0.7546771E-02  0.1330437E+00
         21   -1    0    0  505  502  0.00000000000E+00  0.00000000000E+00  0.78943684990E+03  0.78943684990E+03  0.00000000000E+00 0. -1.
          2   -1    0    0  504    0 -0.00000000000E+00 -0.00000000000E+00 -0.33129486705E+03  0.33129486705E+03  0.00000000000E+00 0.  1.
         21    1    1    2  503  502  0.57996332065E+02  0.74808579301E+01  0.11848261285E+03  0.13212746617E+03  0.00000000000E+00 0. -1.
         21    1    1    2  504  503  0.16451335697E+02 -0.70989798240E+02 -0.11039942670E+03  0.13228088038E+03  0.00000000000E+00 0. -1.
         21    1    1    2  505  501 -0.13342448383E+02  0.62141289188E+02  0.64700079355E+03  0.65011505721E+03  0.00000000000E+00 0. -1.
          2    1    1    2  501    0 -0.61105219380E+02  0.13676511225E+01 -0.19694199685E+03  0.20620831319E+03  0.00000000000E+00 0.  1.
<scales pt_clust_3="58.47681" pt_clust_4="79.51379" pt_clust_5="14000.00000" pt_clust_6="60.71723"></scales>
<clustering>
<clus scale="   58.477">  1  3  2 -1</clus>
<clus scale="   60.717">  2  6  1 -1</clus>
<clus scale="   79.514">  2  4  1 -1</clus>
<clus scale="   58.477">  1  3  2 -1</clus>
</clustering>
</event>
<event>
 6    0  0.6525019E+002  0.1235941E+03  0.7546771E-02  0.1237283E+00
         21   -1    0    0  505  502  0.00000000000E+00  0.00000000000E+00  0.69137795123E+03  0.69137795123E+03  0.00000000000E+00 0.  1.
         -3   -1    0    0    0  501 -0.00000000000E+00 -0.00000000000E+00 -0.12306928621E+03  0.12306928621E+03  0.00000000000E+00 0.  1.
         21    1    1    2  503  501 -0.61220812793E+02 -0.10860417134E+02  0.52857323503E+02  0.81607801264E+02  0.00000000000E+00 0. -1.
         21    1    1    2  504  502 -0.10196126567E+02 -0.36191357530E+02  0.37339602103E+02  0.52990765629E+02  0.00000000000E+00 0. -1.
         21    1    1    2  505  503  0.38659143839E+02  0.15408023650E+03  0.53229550767E+03  0.55549415494E+03  0.00000000000E+00 0.  1.
         -3    1    1    2    0  504  0.32757795520E+02 -0.10702846183E+03 -0.54183768253E+02  0.12435451561E+03  0.00000000000E+00 0.  1.
<scales pt_clust_3="63.97589" pt_clust_4="37.60020" pt_clust_5="123.59415" pt_clust_6="14000.00000"></scales>
<clustering>
<clus scale="   37.600">  1  4  2 -1</clus>
<clus scale="   63.976">  2  3  1 -1</clus>
<clus scale="  123.594">  1  5  2 -1</clus>
<clus scale="   37.600">  1  3  2 -1</clus>
</clustering>
</event>
<event>
 6    0  0.6525019E+002  0.1735202E+03  0.7546771E-02  0.1174226E+00
         21   -1    0    0  505  502  0.00000000000E+00  0.00000000000E+00  0.35658903104E+03  0.35658903104E+03  0.00000000000E+00 0.  1.
          2   -1    0    0  503    0 -0.00000000000E+00 -0.00000000000E+00 -0.18003237648E+04  0.18003237648E+04  0.00000000000E+00 0.  1.
         21    1    1    2  503  504 -0.88986335079E+02 -0.16922686771E+03  0.10520532738E+02  0.19148624545E+03  0.00000000000E+00 0.  1.
         21    1    1    2  504  502 -0.95899855316E+02  0.88734017667E+02  0.13516290115E+03  0.18798807938E+03  0.00000000000E+00 0.  1.
         21    1    1    2  505  501  0.19627263048E+02  0.23063585437E+02  0.86894531927E+02  0.92020748241E+02  0.00000000000E+00 0.  1.
          2    1    1    2  501    0  0.16525892735E+03  0.57429264610E+02 -0.16763126996E+04  0.16854177228E+04  0.00000000000E+00 0.  1.
<scales pt_clust_3="173.52021" pt_clust_4="132.68297" pt_clust_5="30.28462" pt_clust_6="14000.00000"></scales>
<clustering>
<clus scale="   30.285">  1  5  2 -1</clus>
<clus scale="  132.683">  1  4  2 -1</clus>
<clus scale="  173.520">  1  3  2 -1</clus>
<clus scale="   30.285">  1  3  2 -1</clus>
</clustering>
</event>
<event>
 6    0  0.6525019E+002  0.1006959E+03  0.7546771E-02  0.1278839E+00
         21   -1    0    0  505  502  0.00000000000E+00  0.00000000000E+00  0.15053950868E+03  0.15053950868E+03  0.00000000000E+00 0. -1.
          1   -1    0    0  503    0 -0.00000000000E+00 -0.00000000000E+00 -0.16610072112E+04  0.16610072112E+04  0.00000000000E+00 0.  1.
         21    1    1    2  503  502 -0.12670063109E+02 -0.33041134438E+02 -0.11454369368E+03  0.11988538204E+03  0.00000000000E+00 0.  1.
         21    1    1    2  504  501  0.73821955736E+02  0.86873609220E+02  0.82194924095E+02  0.14054433704E+03  0.00000000000E+00 0. -1.
         21    1    1    2  505  504  0.93248447418E+01 -0.29514227610E+02  0.28845404698E+02  0.42309570230E+02  0.00000000000E+00 0. -1.
          1    1    1    2  501    0 -0.70476737368E+02 -0.24318247172E+02 -0.15069643377E+04  0.15088074306E+04  0.00000000000E+00 0.  1.
<scales pt_clust_3="35.95256" pt_clust_4="100.69591" pt_clust_5="30.95226" pt_clust_6="14000.00000"></scales>
<clustering>
<clus scale="   30.952">  1  5  2 -1</clus>
<clus scale="   35.953">  2  3  1 -1</clus>
<clus scale="  100.696">  1  4  2 -1</clus>
<clus scale="   30.952">  1  3  2 -1</clus>
</clustering>
</event>
<event>
 6    0  0.6525019E+002  0.9071980E+02  0.7546771E-02  0.1301118E+00
         21   -1    0    0  503  502  0.00000000000E+00  0.00000000000E+00  0.94127831411E+03  0.94127831411E+03  0.00000000000E+00 0.  1.
          1   -1    0    0  505    0 -0.00000000000E+00 -0.00000000000E+00 -0.13817591603E+04  0.13817591603E+04  0.00000000000E+00 0.  1.
         21    1    1    2  503  501  0.55235827861E+02 -0.61241831656E+02  0.73834078193E+03  0.74293247936E+03  0.00000000000E+00 0.  1.
         21    1    1    2  504  502 -0.84663721095E+02 -0.25539557336E+02  0.18859431261E+03  0.20829793424E+03  0.00000000000E+00 0. -1.
         21    1    1    2  505  504 -0.16235994201E+02  0.25898781950E+02 -0.55258647181E+03  0.55343126334E+03  0.00000000000E+00 0.  1.
          1    1    1    2  501    0  0.45663887435E+02  0.60882607041E+02 -0.81482946898E+03  0.81837579752E+03  0.00000000000E+00 0.  1.
<scales pt_clust_3="82.38816" pt_clust_4="14000.00000" pt_clust_5="30.56721" pt_clust_6="90.71980"></scales>
<clustering>
<clus scale="   30.567">  2  5  1 -1</clus>
<clus scale="   82.388">  1  3  2 -1</clus>
<clus scale="   90.720">  2  6  1 -1</clus>
<clus scale="   82.388">  1  3  2 -1</clus>
</clustering>
</event>
<event>
 6    0  0.6525019E+002  0.1855837E+03  0.7546771E-02  0.1162506E+00
         21   -1    0    0  505  502  0.00000000000E+00  0.00000000000E+00  0.16724236791E+03  0.16724236791E+03  0.00000000000E+00 0. -1.
          2   -1    0    0  503    0 -0.00000000000E+00 -0.00000000000E+00 -0.18398115493E+04  0.18398115493E+04  0.00000000000E+00 0.  1.
         21    1    1    2  503  504  0.18292416025E+02  0.51081487644E+02 -0.76292195731E+02  0.93618534454E+02  0.00000000000E+00 0. -1.
         21    1    1    2  504  502  0.41346807421E+02  0.17812775754E+03  0.68065470860E+02  0.19512038544E+03  0.00000000000E+00 0. -1.
         21    1    1    2  505  501 -0.50352629143E+02 -0.19557284805E+03 -0.35435006594E+03  0.40785793530E+03  0.00000000000E+00 0.  1.
          2    1    1    2  501    0 -0.92865943025E+01 -0.33636397135E+02 -0.13099923906E+04  0.13104570620E+04  0.00000000000E+00 0.  1.
<scales pt_clust_3="48.67755" pt_clust_4="14000.00000" pt_clust_5="185.58366" pt_clust_6="34.89481"></scales>
<clustering>
<clus scale="   34.895">  2  6  1 -1</clus>
<clus scale="   48.678">  2  3  1 -1</clus>
<clus scale="  185.584">  2  5  1 -1</clus>
<clus scale="  185.584">  1  3  2 -1</clus>
</clustering>
</event>
<event>
 6    0  0.6525019E+002  0.1801086E+03  0.7546771E-02  0.1167698E+00
         21   -1    0    0  501  502  0.00000000000E+00  0.00000000000E+00  0.37013805053E+02  0.37013805053E+02  0.00000000000E+00 0.  1.
          2   -1    0    0  505    0 -0.00000000000E+00 -0.00000000000E+00 -0.29607273529E+04  0.29607273529E+04  0.00000000000E+00 0.  1.
         21    1    1    2  503  504  0.29388601616E+02 -0.79058795048E+02 -0.81191073283E+02  0.11707251326E+03  0.00000000000E+00 0.  1.
         21    1    1    2  504  502  0.11465777222E+02 -0.98056025585E+02 -0.17056151313E+03  0.19707277327E+03  0.00000000000E+00 0.  1.
         21    1    1    2  505  503 -0.85547546575E+02  0.48536536367E+02 -0.69120917306E+03  0.69817211274E+03  0.00000000000E+00 0.  1.
          2    1    1    2  501    0  0.44693167736E+02  0.12857828427E+03 -0.19807517883E+04  0.19854237586E+04  0.00000000000E+00 0.  1.
<scales pt_clust_3="44.03001" pt_clust_4="44.03001" pt_clust_5="98.35740" pt_clust_6="173.69500"></scales>
<clustering>
<clus scale="   44.030">  3  4 -1 -1</clus>
<clus scale="   98.357">  2  5  1 -1</clus>
<clus scale="  173.695">  2  6  1 -1</clus>
<clus scale="  180.109">  1  3  2 -1</clus>
</clustering>
</event>
<event>
 6    0  0.6525019E+002  0.8903182E+02  0.7546771E-02  0.1305213E+00
         21   -1    0    0  503  502  0.00000000000E+00  0.00000000000E+00  0.21304707947E+04  0.21304707947E+04  0.00000000000E+00 0.  1.
          4   -1    0    0  505    0 -0.00000000000E+00 -0.00000000000E+00 -0.93376475723E+02  0.93376475723E+02  0.00000000000E+00 0.  1.
         21    1    1    2  503  501  0.31938577710E+02 -0.56420310419E+02  0.50960675615E+02  0.82464020234E+02  0.00000000000E+00 0. -1.
         21    1    1    2  504  502 -0.34176898849E+02 -0.22990561653E+02  0.18929061303E+04  0.18933542311E+04  0.00000000000E+00 0.  1.
         21    1    1    2  505  504 -0.87281069815E+02  0.61967686774E+02  0.11198740390E+03  0.15491661623E+03  0.00000000000E+00 0.  1.
          4    1    1    2  501    0  0.89519390954E+02  0.17443185297E+02 -0.18759890792E+02  0.93112402894E+02  0.00000000000E+00 0.  1.
<scales pt_clust_3="66.73033" pt_clust_4="41.19012" pt_clust_5="89.03182" pt_clust_6="14000.00000"></scales>
<clustering>
<clus scale="   41.190">  1  4  2 -1</clus>
<clus scale="   66.730">  1  3  2 -1</clus>
<clus scale="   89.032">  1  5  2 -1</clus>
<clus scale="   41.190">  1  3  2 -1</clus>
</clustering>
</event>
<event>
 6    0  0.6525019E+002  0.1832392E+03  0.7546771E-02  0.1164704E+00
         21   -1    0    0  505  502  0.00000000000E+00  0.00000000000E+00  0.72888012478E+03  0.72888012478E+03  0.00000000000E+00 0. -1.
          2   -1    0    0  504    0 -0.00000000000E+00 -0.00000000000E+00 -0.18602174833E+04  0.18602174833E+04  0.00000000000E+00 0. -1.
         21    1    1    2  503  501  0.25910649313E+03  0.83049049130E+02 -0.30392349605E+03  0.40792500634E+03  0.00000000000E+00 0. -1.
         21    1    1    2  504  502 -0.11391259067E+03 -0.12876098791E+03 -0.10971763178E+03  0.20394467153E+03  0.00000000000E+00 0. -1.
         21    1    1    2  505  503 -0.17141430032E+03  0.60925626856E+02  0.61645234061E+03  0.64273500185E+03  0.00000000000E+00 0. -1.
          2    1    1    2  501    0  0.26220397865E+02 -0.15213688074E+02 -0.13341485713E+04  0.13344929283E+04  0.00000000000E+00 0. -1.
<scales pt_clust_3="183.23925" pt_clust_4="170.36467" pt_clust_5="14000.00000" pt_clust_6="30.31444"></scales>
<clustering>
<clus scale="   30.314">  2  6  1 -1</clus>
<clus scale="  170.365">  2  4  1 -1</clus>
<clus scale="  183.239">  2  3  1 -1</clus>
<clus scale="  183.239">  1  3  2 -1</clus>
</clustering>
</event>
<event>
 6    0  0.6525019E+002  0.1312107E+03  0.7546771E-02  0.1225670E+00
         21   -1    0    0  505  502  0.00000000000E+00  0.00000000000E+00  0.15139327453E+03  0.15139327453E+03  0.00000000000E+00 0.  1.
          2   -1    0    0  503    0 -0.00000000000E+00 -0.00000000000E+00 -0.91589532310E+03  0.91589532310E+03  0.00000000000E+00 0. -1.
         21    1    1    2  503  502 -0.80530446968E+02  0.75227058025E+02 -0.98786945830E+02  0.14799703988E+03  0.00000000000E+00 0.  1.
         21    1    1    2  504  501 -0.29298202176E+02 -0.34861639801E+02  0.16765208431E+02  0.48526186684E+02  0.00000000000E+00 0.  1.
         21    1    1    2  505  504 -0.33513663811E+02 -0.37553973132E+02  0.80221989730E+02  0.94704985066E+02  0.00000000000E+00 0.  1.
          2    1    1    2  501    0  0.14334231296E+03 -0.28114450915E+01 -0.76270230090E+03  0.77606038599E+03  0.00000000000E+00 0. -1.
<scales pt_clust_3="131.21067" pt_clust_4="41.67064" pt_clust_5="105.39759" pt_clust_6="14000.00000"></scales>
<clustering>
<clus scale="   41.671">  4  5 -1 -1</clus>
<clus scale="  105.398">  1  4  2 -1</clus>
<clus scale="  131.211">  1  3  2 -1</clus>
<clus scale="  105.398">  1  3  2 -1</clus>
</clustering>
</event>
<event>
 6    0  0.6525019E+002  0.1732809E+03  0.7546771E-02  0.1174469E+00
          1   -1    0    0  505    0 -0.00000000000E+00  0.00000000000E+00  0.27011810280E+04  0.27011810280E+04  0.00000000000E+00 0. -1.
         21   -1    0    0  504  502  0.00000000000E+00 -0.00000000000E+00 -0.29968118878E+03  0.29968118878E+03  0.00000000000E+00 0.  1.
         21    1    1    2  503  501 -0.16245155170E+03  0.85430273054E+02  0.52612405727E+02  0.19093690958E+03  0.00000000000E+00 0.  1.
         21    1    1    2  504  503  0.16667178677E+03 -0.59306401646E+02 -0.15535118749E+02  0.17758962159E+03  0.00000000000E+00 0.  1.
         21    1    1    2  505  502  0.44118162687E+01  0.91020117319E+02 -0.11690702554E+03  0.14822745528E+03  0.00000000000E+00 0.  1.
          1    1    1    2  501    0 -0.86320513327E+01 -0.11714398873E+03  0.24813295777E+04  0.24841082303E+04  0.00000000000E+00 0. -1.
<scales pt_clust_3="14000.00000" pt_clust_4="173.28093" pt_clust_5="91.12698" pt_clust_6="116.70424"></scales>
<clustering>
<clus scale="   91.127">  2  5  1 -1</clus>
<clus scale="  116.704">  1  6  2 -1</clus>
<clus scale="  173.281">  2  4  1 -1</clus>
<clus scale="   91.127">  2  3  1 -1</clus>
</clustering>
</event>
<event>
 6    0  0.6525019E+002  0.8112704E+02  0.7546771E-02  0.1325883E+00
         21   -1    0    0  504  502  0.00000000000E+00  0.00000000000E+00  0.37099274050E+03  0.37099274050E+03  0.00000000000E+00 0. -1.
          2   -1    0    0  503    0 -0.00000000000E+00 -0.00000000000E+00 -0.55693745775E+03  0.55693745775E+03  0.00000000000E+00 0.  1.
         21    1    1    2  503  505  0.72995883166E+02  0.46370475127E+02 -0.67610269943E+02  0.10977143765E+03  0.00000000000E+00 0. -1.
         21    1    1    2  504  501 -0.99115967581E+02 -0.55275595604E+01  0.26907970991E+03  0.28680728588E+03  0.00000000000E+00 0. -1.
         21    1    1    2  505  502  0.19439717768E+02  0.23207816340E+02  0.66407956799E+02  0.72983026057E+02  0.00000000000E+00 0. -1.
          2    1    1    2  501    0  0.66803666469E+01 -0.64050731907E+02 -0.45382211402E+03  0.45836844866E+03  0.00000000000E+00 0.  1.
<scales pt_clust_3="81.12704" pt_clust_4="14000.00000" pt_clust_5="30.27384" pt_clust_6="64.23944"></scales>
<clustering>
<clus scale="   30.274">  1  5  2 -1</clus>
<clus scale="   64.239">  2  6  1 -1</clus>
<clus scale="   81.127">  2  3  1 -1</clus>
<clus scale="   30.274">  1  3  2 -1</clus>
</clustering>
</event>
<event>
 6    0  0.6525019E+002  0.2131017E+03  0.7546771E-02  0.1139133E+00
          2   -1    0    0  504    0 -0.00000000000E+00  0.00000000000E+00  0.15508954114E+04  0.15508954114E+04  0.00000000000E+00 0. -1.
         21   -1    0    0  503  502  0.00000000000E+00 -0.00000000000E+00 -0.67913391009E+03  0.67913391009E+03  0.00000000000E+00 0. -1.
         21    1    1    2  503  505 -0.17096836456E+03  0.21995720699E+03 -0.56621000252E+03  0.63103496064E+03  0.00000000000E+00 0. -1.
         21    1    1    2  504  502  0.32082109642E+02 -0.63226147899E+02 -0.25923939584E+02  0.75490782092E+02  0.00000000000E+00 0. -1.
         21    1    1    2  505  501  0.26037749124E+03 -0.61388469636E+02  0.93758708364E+03  0.97500488284E+03  0.00000000000E+00 0. -1.
          2    1    1    2  501    0 -0.12149123632E+03 -0.95342589460E+02  0.52630835981E+03  0.54849869596E+03  0.00000000000E+00 0. -1.
<scales pt_clust_3="14000.00000" pt_clust_4="70.89998" pt_clust_5="213.10165" pt_clust_6="154.68395"></scales>
<clustering>
<clus scale="   70.900">  2  4  1 -1</clus>
<clus scale="  154.684">  1  6  2 -1</clus>
<clus scale="  213.102">  1  5  2 -1</clus>
<clus scale="   70.900">  2  3  1 -1</clus>
</clustering>
</event>
<event>
 6    0  0.6525019E+002  0.7272543E+02  0.7546771E-02  0.1351063E+00
          2   -1    0    0  505    0 -0.00000000000E+00  0.00000000000E+00  0.13612266410E+03  0.13612266410E+03  0.00000000000E+00 0. -1.
         21   -1    0    0  501  502  0.00000000000E+00 -0.00000000000E+00 -0.24609469659E+03  0.24609469659E+03  0.00000000000E+00 0. -1.
         21    1    1    2  503  502 -0.55755698719E+01  0.37242051157E+02 -0.13023830260E+03  0.13557312719E+03  0.00000000000E+00 0. -1.
         21    1    1    2  504  503 -0.86593009301E+01  0.43716179750E+02 -0.42092984169E+02  0.61301771433E+02  0.00000000000E+00 0. -1.
         21    1    1    2  505  504 -0.41920797198E+02  0.27076520698E+02  0.33818897463E+02  0.60284401270E+02  0.00000000000E+00 0.  1.
          2    1    1    2  501    0  0.56155668000E+02 -0.10803475161E+03  0.28540356814E+02  0.12505806080E+03  0.00000000000E+00 0. -1.
<scales pt_clust_3="37.65710" pt_clust_4="72.72543" pt_clust_5="52.91787" pt_clust_6="14000.00000"></scales>
<clustering>
<clus scale="   37.657">  2  3  1 -1</clus>
<clus scale="   52.918">  1  5  2 -1</clus>
<clus scale="   72.725">  2  4  1 -1</clus>
<clus scale="   37.657">  2  3  1 -1</clus>
</clustering>
</event>
<event>
 6    0  0.6525019E+002  0.7550986E+02  0.7546771E-02  0.1342299E+00
         21   -1    0    0  505  502  0.00000000000E+00  0.00000000000E+00  0.35555461014E+03  0.35555461014E+03  0.00000000000E+00 0.  1.
          2   -1    0    0  504    0 -0.00000000000E+00 -0.00000000000E+00 -0.13948683061E+04  0.13948683061E+04  0.00000000000E+00 0.  1.
         21    1    1    2  503  502 -0.43261536486E+01 -0.39229117533E+02  0.20380881570E+03  0.20759497254E+03  0.00000000000E+00 0.  1.
         21    1    1    2  504  503 -0.10344530558E+03  0.64322590745E+02  0.10879041503E+03  0.16332079271E+03  0.00000000000E+00 0.  1.
         21    1    1    2  505  501  0.32567627598E+02 -0.21930966729E+02 -0.17523361900E+02  0.42996347302E+02  0.00000000000E+00 0. -1.
          2    1    1    2  501    0  0.75203831634E+02 -0.31625064833E+01 -0.13343895648E+04  0.13365108037E+04  0.00000000000E+00 0.  1.
<scales pt_clust_3="54.55323" pt_clust_4="14000.00000" pt_clust_5="39.26344" pt_clust_6="75.50986"></scales>
<clustering>
<clus scale="   39.263">  1  5  2 -1</clus>
<clus scale="   54.553">  1  3  2 -1</clus>
<clus scale="   75.510">  2  6  1 -1</clus>
<clus scale="   39.263">  1  3  2 -1</clus>
</clustering>
</event>
<event>
 6    0  0.6525019E+002  0.7468237E+02  0.7546771E-02  0.1344857E+00
          2   -1    0    0  505    0 -0.00000000000E+00  0.00000000000E+00  0.17687805602E+04  0.17687805602E+04  0.00000000000E+00 0.  1.
         21   -1    0    0  503  502  0.00000000000E+00 -0.00000000000E+00 -0.68340696119E+03  0.68340696119E+03  0.00000000000E+00 0.  1.
         21    1    1    2  503  504  0.49642113756E+02  0.52780030567E+01 -0.64954253799E+03  0.65145813790E+03  0.00000000000E+00 0.  1.
         21    1    1    2  504  501 -0.10954820989E+03 -0.14632066697E+02  0.11304245957E+03  0.15809334373E+03  0.00000000000E+00 0.  1.
         21    1    1    2  505  502  0.47342852083E+02  0.43376951234E+02  0.91219513370E+02  0.11155225305E+03  0.00000000000E+00 0.  1.
          2    1    1    2  501    0  0.12563244054E+02 -0.34022887593E+02  0.15306541640E+04  0.15310837867E+04  0.00000000000E+00 0.  1.
<scales pt_clust_3="49.95792" pt_clust_4="74.68237" pt_clust_5="14000.00000" pt_clust_6="36.26833"></scales>
<clustering>
<clus scale="   36.268">  1  6  2 -1</clus>
<clus scale="   49.958">  2  3  1 -1</clus>
<clus scale="   74.682">  2  4  1 -1</clus>
<clus scale="   49.958">  2  3  1 -1</clus>
</clustering>
</event>
<event>
 6    0  0.6525019E+002  0.1103071E+03  0.7546771E-02  0.1260002E+00
          2   -1    0    0  505    0 -0.00000000000E+00  0.00000000000E+00  0.61638158891E+03  0.61638158891E+03  0.00000000000E+00 0. -1.
         21   -1    0    0  501  502  0.00000000000E+00 -0.00000000000E+00 -0.20775177298E+03  0.20775177298E+03  0.00000000000E+00 0. -1.
         21    1    1    2  503  502 -0.32857790176E+02 -0.77125468295E+02 -0.36469068473E+02  0.91421907606E+02  0.00000000000E+00 0. -1.
         21    1    1    2  504  503  0.27516758803E+01  0.12691237339E+03 -0.87456454440E+02  0.15415237158E+03  0.00000000000E+00 0. -1.
         21    1    1    2  505  504  0.38836837923E+02 -0.10283181607E+03  0.50746520835E+03  0.51923368541E+03  0.00000000000E+00 0. -1.
          2    1    1    2  501    0 -0.87307236268E+01  0.53044910975E+02  0.25090130490E+02  0.59325397288E+02  0.00000000000E+00 0. -1.
<scales pt_clust_3="69.28917" pt_clust_4="14000.00000" pt_clust_5="110.30708" pt_clust_6="53.75861"></scales>
<clustering>
<clus scale="   53.759">  2  6  1 -1</clus>
<clus scale="   69.289">  2  3  1 -1</clus>
<clus scale="  110.307">  1  5  2 -1</clus>
<clus scale="   53.759">  2  3  1 -1</clus>
</clustering>
</event>
<event>
 6    0  0.6525019E+002  0.1291681E+03  0.7546771E-02  0.1228695E+00
          1   -1    0    0  504    0 -0.00000000000E+00  0.00000000000E+00  0.74461935305E+03  0.74461935305E+03  0.00000000000E+00 0. -1.
         21   -1    0    0  505  502  0.00000000000E+00 -0.00000000000E+00 -0.85675947490E+03  0.85675947490E+03  0.00000000000E+00 0. -1.
         21    1    1    2  503  502  0.31972449354E+00  0.66362216587E+02 -0.77691744203E+03  0.77974659842E+03  0.00000000000E+00 0. -1.
         21    1    1    2  504  503  0.52373739267E+02  0.66817346380E+02  0.53766684342E+02  0.10049090848E+03  0.00000000000E+00 0.  1.
         21    1    1    2  505  501 -0.15698997604E+03 -0.48934027522E+02  0.99161420341E+02  0.19202442269E+03  0.00000000000E+00 0. -1.
          1    1    1    2  501    0  0.10429651228E+03 -0.84245535446E+02  0.51184921550E+03  0.52911689835E+03  0.00000000000E+00 0. -1.
<scales pt_clust_3="66.36299" pt_clust_4="101.24245" pt_clust_5="14000.00000" pt_clust_6="129.16810"></scales>
<clustering>
<clus scale="   66.363">  2  3  1 -1</clus>
<clus scale="  101.242">  2  4  1 -1</clus>
<clus scale="  129.168">  1  6  2 -1</clus>
<clus scale="   66.363">  2  3  1 -1</clus>
</clustering>
</event>
<event>
 6    0  0.6525019E+002  0.6567780E+02  0.7546771E-02  0.1375440E+00
         21   -1    0    0  505  502  0.00000000000E+00  0.00000000000E+00  0.23221277968E+03  0.23221277968E+03  0.00000000000E+00 0. -1.
          1   -1    0    0  503    0 -0.00000000000E+00 -0.00000000000E+00 -0.76949979074E+03  0.76949979074E+03  0.00000000000E+00 0.  1.
         21    1    1    2  503  504 -0.25124918077E+02  0.11198273071E+03 -0.75670731170E+02  0.13746800734E+03  0.00000000000E+00 0. -1.
         21    1    1    2  504  502  0.35399158163E+02 -0.13048989460E+01  0.11427682343E+03  0.11964111138E+03  0.00000000000E+00 0. -1.
         21    1    1    2  505  501 -0.22684728767E+01 -0.47646046802E+02  0.75941501640E+02  0.89679448127E+02  0.00000000000E+00 0. -1.
          1    1    1    2  501    0 -0.80057672090E+01 -0.63031784965E+02 -0.65183460496E+03  0.65492400357E+03  0.00000000000E+00 0.  1.
<scales pt_clust_3="65.67780" pt_clust_4="35.42320" pt_clust_5="53.82409" pt_clust_6="14000.00000"></scales>
<clustering>
<clus scale="   35.423">  1  4  2 -1</clus>
<clus scale="   53.824">  1  5  2 -1</clus>
<clus scale="   65.678">  1  3  2 -1</clus>
<clus scale="   35.423">  1  3  2 -1</clus>
</clustering>
</event>
<event>
 6    0  0.6525019E+002  0.1365699E+03  0.7546771E-02  0.1218020E+00
          2   -1    0    0  504    0 -0.00000000000E+00  0.00000000000E+00  0.29887588702E+04  0.29887588702E+04  0.00000000000E+00 0.  1.
         21   -1    0    0  505  502  0.00000000000E+00 -0.00000000000E+00 -0.57011194524E+03  0.57011194524E+03  0.00000000000E+00 0. -1.
         21    1    1    2  503  501 -0.60139179372E+02  0.55613593732E+02 -0.15210499181E+03  0.17275856343E+03  0.00000000000E+00 0. -1.
         21    1    1    2  504  502 -0.62251457865E+02  0.24315290082E+02  0.10048298022E+02  0.67582879719E+02  0.00000000000E+00 0. -1.
         21    1    1    2  505  503  0.72138753310E+02  0.47725475937E+02 -0.37235226562E+03  0.38226683153E+03  0.00000000000E+00 0. -1.
          2    1    1    2  501    0  0.50251883927E+02 -0.12765435975E+03  0.29330558844E+04  0.29362625408E+04  0.00000000000E+00 0.  1.
<scales pt_clust_3="14000.00000" pt_clust_4="66.83171" pt_clust_5="70.77546" pt_clust_6="136.56987"></scales>
<clustering>
<clus scale="   66.832">  2  4  1 -1</clus>
<clus scale="   70.775">  2  5  1 -1</clus>
<clus scale="  136.570">  1  6  2 -1</clus>
<clus scale="   66.832">  2  3  1 -1</clus>
</clustering>
</event>
<event>
 6    0  0.6525019E+002  0.1320043E+03  0.7546771E-02  0.1224512E+00
          2   -1    0    0  503    0 -0.00000000000E+00  0.00000000000E+00  0.12789689170E+04  0.12789689170E+04  0.00000000000E+00 0.  1.
         21   -1    0    0  504  502  0.00000000000E+00 -0.00000000000E+00 -0.11425205371E+03  0.11425205371E+03  0.00000000000E+00 0. -1.
         21    1    1    2  503  502  0.21909495946E+02  0.10776730683E+03  0.85945069075E+03  0.86645790911E+03  0.00000000000E+00 0.  1.
         21    1    1    2  504  505  0.71799710190E+02  0.17034696375E+02 -0.49587971039E+02  0.88906389735E+02  0.00000000000E+00 0. -1.
         21    1    1    2  505  501 -0.28958417662E+02 -0.14816336102E+03  0.11919495356E+03  0.19234970355E+03  0.00000000000E+00 0. -1.
          2    1    1    2  501    0 -0.64750788473E+02  0.23361357806E+02  0.23565919000E+03  0.24550696829E+03  0.00000000000E+00 0.  1.
<scales pt_clust_3="132.00427" pt_clust_4="72.70563" pt_clust_5="14000.00000" pt_clust_6="68.83617"></scales>
<clustering>
<clus scale="   68.836">  1  6  2 -1</clus>
<clus scale="   72.706">  2  4  1 -1</clus>
<clus scale="  132.004">  1  3  2 -1</clus>
<clus scale="   72.706">  2  3  1 -1</clus>
</clustering>
</event>
<event>
 6    0  0.6525019E+002  0.7813212E+02  0.7546771E-02  0.1334437E+00
         21   -1    0    0  504  502  0.00000000000E+00  0.00000000000E+00  0.76002392925E+03  0.76002392925E+03  0.00000000000E+00 0.  1.
          2   -1    0    0  503    0 -0.00000000000E+00 -0.00000000000E+00 -0.16254268968E+04  0.16254268968E+04  0.00000000000E+00 0. -1.
         21    1    1    2  503  505  0.57913038654E+02  0.40696048050E+02 -0.13566665447E+04  0.13585117599E+04  0.00000000000E+00 0. -1.
         21    1    1    2  504  501  0.13671947260E+02 -0.37547037309E+02  0.48928029964E+03  0.49090927244E+03  0.00000000000E+00 0.  1.
         21    1    1    2  505  502 -0.91224295890E+02  0.46242177237E+02  0.25643904223E+03  0.27608186014E+03  0.00000000000E+00 0.  1.
          2    1    1    2  501    0  0.19639309977E+02 -0.49391187979E+02 -0.25445576473E+03  0.25994793353E+03  0.00000000000E+00 0. -1.
<scales pt_clust_3="78.13212" pt_clust_4="39.95876" pt_clust_5="14000.00000" pt_clust_6="53.55888"></scales>
<clustering>
<clus scale="   39.959">  1  4  2 -1</clus>
<clus scale="   53.559">  2  6  1 -1</clus>
<clus scale="   78.132">  2  3  1 -1</clus>
<clus scale="   39.959">  1  3  2 -1</clus>
</clustering>
</event>
<event>
 6    0  0.6525019E+002  0.1872063E+03  0.7546771E-02  0.1161005E+00
         21   -1    0    0  505  502  0.00000000000E+00  0.00000000000E+00  0.18484874715E+03  0.18484874715E+03  0.00000000000E+00 0.  1.
          2   -1    0    0  504    0 -0.00000000000E+00 -0.00000000000E+00 -0.14376131508E+04  0.14376131508E+04  0.00000000000E+00 0.  1.
         21    1    1    2  503  501 -0.15557911203E+03 -0.46915479558E+02 -0.21006081336E+03  0.26557761131E+03  0.00000000000E+00 0.  1.
         21    1    1    2  504  502  0.22077303949E+03 -0.15714065193E+02 -0.22311365736E+03  0.31427276514E+03  0.00000000000E+00 0.  1.
         21    1    1    2  505  503 -0.94103852930E+01  0.91216146769E+02  0.91397692738E+02  0.12946999274E+03  0.00000000000E+00 0.  1.
          2    1    1    2  501    0 -0.55783542166E+02 -0.28586602018E+02 -0.91098762570E+03  0.91314152877E+03  0.00000000000E+00 0.  1.
<scales pt_clust_3="187.20634" pt_clust_4="14000.00000" pt_clust_5="90.90228" pt_clust_6="62.68171"></scales>
<clustering>
<clus scale="   62.682">  2  6  1 -1</clus>
<clus scale="   90.902">  1  5  2 -1</clus>
<clus scale="  187.206">  1  3  2 -1</clus>
<clus scale="   90.902">  1  3  2 -1</clus>
</clustering>
</event>
<event>
 6    0  0.6727961E+002  0.8775395E+02  0.7546771E-02  0.1308384E+00
         -2   -1    0    0    0  501 -0.00000000000E+00  0.00000000000E+00  0.35835695213E+03  0.35835695213E+03  0.00000000000E+00 0.  1.
         21   -1    0    0  504  502  0.00000000000E+00 -0.00000000000E+00 -0.61233804108E+03  0.61233804108E+03  0.00000000000E+00 0.  1.
         21    1    1    2  503  502  0.22530854289E+02 -0.41726517384E+02 -0.34552647666E+02  0.58673904836E+02  0.00000000000E+00 0.  1.
         21    1    1    2  504  505  0.35808163055E+02 -0.66076029615E-01 -0.38603195923E+02  0.52653923338E+02  0.00000000000E+00 0.  1.
         21    1    1    2  505  501 -0.61802485343E+02  0.12898566924E+03 -0.50437204203E+03  0.52425948427E+03  0.00000000000E+00 0.  1.
         -2    1    1    2    0  503  0.34634679995E+01 -0.87193075831E+02  0.32354679666E+03  0.33510768077E+03  0.00000000000E+00 0.  1.
<scales pt_clust_3="48.89367" pt_clust_4="35.80822" pt_clust_5="87.75395" pt_clust_6="14000.00000"></scales>
<clustering>
<clus scale="   35.808">  2  4  1 -1</clus>
<clus scale="   48.894">  2  3  1 -1</clus>
<clus scale="   87.754">  2  5  1 -1</clus>
<clus scale="   35.808">  2  3  1 -1</clus>
</clustering>
</event>
<event>
 6    0  0.6525019E+002  0.7075346E+02  0.7546771E-02  0.1357549E+00
          1   -1    0    0  504    0 -0.00000000000E+00  0.00000000000E+00  0.19023953589E+03  0.19023953589E+03  0.00000000000E+00 0.  1.
         21   -1    0    0  503  502  0.00000000000E+00 -0.00000000000E+00 -0.28514191975E+03  0.28514191975E+03  0.00000000000E+00 0.  1.
         21    1    1    2  503  505  0.50357839730E+02  0.24900463348E+02 -0.73881629660E+02  0.92814009171E+02  0.00000000000E+00 0.  1.
         21    1    1    2  504  502  0.66631453358E+02 -0.32913577021E+02 -0.59616500516E+02  0.95274242389E+02  0.00000000000E+00 0.  1.
         21    1    1    2  505  501 -0.91507053185E+02 -0.14467180924E+02 -0.10482790479E+03  0.13989899832E+03  0.00000000000E+00 0. -1.
          1    1    1    2  501    0 -0.25482239903E+02  0.22480294596E+02  0.14342365111E+03  0.14739420576E+03  0.00000000000E+00 0.  1.
<scales pt_clust_3="53.86933" pt_clust_4="14000.00000" pt_clust_5="70.75346" pt_clust_6="33.98100"></scales>
<clustering>
<clus scale="   33.981">  1  6  2 -1</clus>
<clus scale="   53.869">  2  3  1 -1</clus>
<clus scale="   70.753">  2  5  1 -1</clus>
<clus scale="   53.869">  2  3  1 -1</clus>
</clustering>
</event>
<event>
 6    0  0.6525019E+002  0.1374862E+03  0.7546771E-02  0.1216752E+00
         21   -1    0    0  503  502  0.00000000000E+00  0.00000000000E+00  0.26582701360E+03  0.26582701360E+03  0.00000000000E+00 0.  1.
          2   -1    0    0  504    0 -0.00000000000E+00 -0.00000000000E+00 -0.32587752070E+03  0.32587752070E+03  0.00000000000E+00 0.  1.
         21    1    1    2  503  505 -0.11512946601E+03  0.20740373767E+02 -0.48570604333E+02  0.12666515169E+03  0.00000000000E+00 0.  1.
         21    1    1    2  504  502  0.14209875654E+03  0.32126402344E+02  0.18157577797E+03  0.23279588802E+03  0.00000000000E+00 0.  1.
         21    1    1    2  505  501 -0.63706894294E+02 -0.47354071838E+02 -0.17226143038E+03  0.18967070648E+03  0.00000000000E+00 0.  1.
          2    1    1    2  501    0  0.36737603770E+02 -0.55127042729E+01 -0.20794250360E+02  0.42572788107E+02  0.00000000000E+00 0.  1.
<scales pt_clust_3="137.48622" pt_clust_4="14000.00000" pt_clust_5="65.30686" pt_clust_6="37.14891"></scales>
<clustering>
<clus scale="   37.149">  2  6  1 -1</clus>
<clus scale="   65.307">  2  5  1 -1</clus>
<clus scale="  137.486">  2  3  1 -1</clus>
<clus scale="  137.486">  1  3  2 -1</clus>
</clustering>
</event>
<event>
 6    0  0.6525019E+002  0.1205860E+03  0.7546771E-02  0.1242133E+00
          2   -1    0    0  503    0 -0.00000000000E+00  0.00000000000E+00  0.23339791657E+04  0.23339791657E+04  0.00000000000E+00 0. -1.
         21   -1    0    0  504  502  0.00000000000E+00 -0.00000000000E+00 -0.21858154313E+03  0.21858154313E+03  0.00000000000E+00 0.  1.
         21    1    1    2  503  502 -0.50385591354E+02  0.16327521016E+02 -0.20411004031E+03  0.21087011242E+03  0.00000000000E+00 0.  1.
         21    1    1    2  504  505  0.35545569193E+02  0.32053018092E+00  0.81122367695E+02  0.88568779879E+02  0.00000000000E+00 0. -1.
         21    1    1    2  505  501  0.64959044657E+02  0.74124264416E+02  0.40550492849E+03  0.41731083270E+03  0.00000000000E+00 0.  1.
          2    1    1    2  501    0 -0.50119022496E+02 -0.90772315613E+02  0.18328803667E+04  0.18358109838E+04  0.00000000000E+00 0. -1.
<scales pt_clust_3="52.96504" pt_clust_4="35.35033" pt_clust_5="35.35033" pt_clust_6="105.24318"></scales>
<clustering>
<clus scale="   35.350">  4  5 -1 -1</clus>
<clus scale="   52.965">  2  3  1 -1</clus>
<clus scale="  105.243">  1  6  2 -1</clus>
<clus scale="   52.965">  2  3  1 -1</clus>
</clustering>
</event>
<event>
 6    0  0.6525019E+002  0.1072201E+03  0.7546771E-02  0.1265806E+00
         21   -1    0    0  504  502  0.00000000000E+00  0.00000000000E+00  0.25534228906E+02  0.25534228906E+02  0.00000000000E+00 0. -1.
          2   -1    0    0  502    0 -0.00000000000E+00 -0.00000000000E+00 -0.38874226459E+04  0.38874226459E+04  0.00000000000E+00 0.  1.
         21    1    1    2  503  501 -0.20878378140E+02  0.92228539882E+02 -0.16612562771E+04  0.16639454404E+04  0.00000000000E+00 0.  1.
         21    1    1    2  504  505 -0.16820074931E+02 -0.52637345803E+02 -0.21029632809E+02  0.59125718177E+02  0.00000000000E+00 0. -1.
         21    1    1    2  505  503 -0.14312998321E+00 -0.86994761135E+02 -0.40458912798E+03  0.41383628578E+03  0.00000000000E+00 0. -1.
          2    1    1    2  501    0  0.37841583054E+02  0.47403567056E+02 -0.17750133791E+04  0.17760494305E+04  0.00000000000E+00 0.  1.
<scales pt_clust_3="107.22013" pt_clust_4="55.25943" pt_clust_5="14000.00000" pt_clust_6="56.55377"></scales>
<clustering>
<clus scale="   55.259">  1  4  2 -1</clus>
<clus scale="   56.554">  2  6  1 -1</clus>
<clus scale="  107.220">  2  3  1 -1</clus>
<clus scale="   55.259">  1  3  2 -1</clus>
</clustering>
</event>
<event>
 6    0  0.6525019E+002  0.1987337E+03  0.7546771E-02  0.1150812E+00
          1   -1    0    0  505    0 -0.00000000000E+00  0.00000000000E+00  0.74200304509E+03  0.74200304509E+03  0.00000000000E+00 0.  1.
         21   -1    0    0  503  502  0.00000000000E+00 -0.00000000000E+00 -0.57330845068E+03  0.57330845068E+03  0.00000000000E+00 0. -1.
         21    1    1    2  503  504  0.22022618442E+02  0.22013671629E+02 -0.23907307745E+03  0.24109237612E+03  0.00000000000E+00 0. -1.
         21    1    1    2  504  501  0.45004118456E+02  0.42598375613E+02 -0.93808841151E+02  0.11242815911E+03  0.00000000000E+00 0. -1.
         21    1    1    2  505  502 -0.26146511337E+03 -0.64675953365E+02 -0.13135378883E+03  0.29966781992E+03  0.00000000000E+00 0. -1.
          1    1    1    2  501    0  0.19443837648E+03  0.63906122921E-01  0.63293030185E+03  0.66212314061E+03  0.00000000000E+00 0.  1.
<scales pt_clust_3="31.13836" pt_clust_4="71.60051" pt_clust_5="198.73369" pt_clust_6="14000.00000"></scales>
<clustering>
<clus scale="   31.138">  2  3  1 -1</clus>
<clus scale="   71.601">  2  4  1 -1</clus>
<clus scale="  198.734">  2  5  1 -1</clus>
<clus scale="   31.138">  2  3  1 -1</clus>
</clustering>
</event>
<event>
 6    0  0.6525019E+002  0.8630334E+02  0.7546771E-02  0.1312059E+00
          1   -1    0    0  505    0 -0.00000000000E+00  0.00000000000E+00  0.39361235289E+03  0.39361235289E+03  0.00000000000E+00 0.  1.
         21   -1    0    0  504  502  0.00000000000E+00 -0.00000000000E+00 -0.24213767984E+03  0.24213767984E+03  0.00000000000E+00 0.  1.
         21    1    1    2  503  502  0.80067890858E+02 -0.53452965110E+02 -0.13233403607E+03  0.16364713175E+03  0.00000000000E+00 0.  1.
         21    1    1    2  504  501 -0.21033633203E+02  0.81930631363E+02 -0.45090030452E+02  0.95854853437E+02  0.00000000000E+00 0.  1.
         21    1    1    2  505  503 -0.37627267492E+02 -0.63628290835E+02  0.39260537125E+02  0.83700420720E+02  0.00000000000E+00 0.  1.
          1    1    1    2  501    0 -0.21406990164E+02  0.35150624581E+02  0.28963820246E+03  0.29254762682E+03  0.00000000000E+00 0.  1.
<scales pt_clust_3="14000.00000" pt_clust_4="86.30334" pt_clust_5="66.00830" pt_clust_6="41.15611"></scales>
<clustering>
<clus scale="   41.156">  1  6  2 -1</clus>
<clus scale="   66.008">  1  5  2 -1</clus>
<clus scale="   86.303">  1  4  2 -1</clus>
<clus scale="   86.303">  2  3  1 -1</clus>
</clustering>
</event>
<event>
 6    0  0.6525019E+002  0.1019814E+03  0.7546771E-02  0.1276184E+00
          2   -1    0    0  505    0 -0.00000000000E+00  0.00000000000E+00  0.24606588785E+04  0.24606588785E+04  0.00000000000E+00 0.  1.
         21   -1    0    0  504  502  0.00000000000E+00 -0.00000000000E+00 -0.28466908895E+02  0.28466908895E+02  0.00000000000E+00 0. -1.
         21    1    1    2  503  501  0.67750460931E+02 -0.28814114686E+02  0.88621097582E+03  0.88926389324E+03  0.00000000000E+00 0.  1.
         21    1    1    2  504  503 -0.76679982506E+02  0.52580581431E+02  0.63719511565E+02  0.11271518715E+03  0.00000000000E+00 0. -1.
         21    1    1    2  505  502 -0.48290147704E+02 -0.28711280164E+02  0.48706915065E+03  0.49029851467E+03  0.00000000000E+00 0. -1.
          2    1    1    2  501    0  0.57219669280E+02  0.49448134199E+01  0.99519233154E+03  0.99684819230E+03  0.00000000000E+00 0.  1.
<scales pt_clust_3="34.80769" pt_clust_4="94.05894" pt_clust_5="56.18074" pt_clust_6="34.80769"></scales>
<clustering>
<clus scale="   34.808">  3  6 -1 -1</clus>
<clus scale="   56.181">  1  5  2 -1</clus>
<clus scale="   94.059">  2  4  1 -1</clus>
<clus scale="   94.059">  2  3  1 -1</clus>
</clustering>
</event>
<event>
 6    0  0.6525019E+002  0.1713641E+03  0.7546771E-02  0.1176433E+00
         21   -1    0    0  505  502  0.00000000000E+00  0.00000000000E+00  0.76005481581E+02  0.76005481581E+02  0.00000000000E+00 0.  1.
          1   -1    0    0  503    0 -0.00000000000E+00 -0.00000000000E+00 -0.15372601012E+04  0.15372601012E+04  0.00000000000E+00 0.  1.
         21    1    1    2  503  504  0.77747836473E+01 -0.15311378539E+03 -0.41759292570E+03  0.44484618705E+03  0.00000000000E+00 0.  1.
         21    1    1    2  504  502  0.32242394083E+01 -0.75011747587E+02 -0.24762781293E+02  0.79059176148E+02  0.00000000000E+00 0.  1.
         21    1    1    2  505  501  0.24173268282E+02  0.48781077874E+02 -0.24643495898E+00  0.54442641268E+02  0.00000000000E+00 0.  1.
          1    1    1    2  501    0 -0.35172291337E+02  0.17934445510E+03 -0.10186524777E+04  0.10349175783E+04  0.00000000000E+00 0.  1.
<scales pt_clust_3="14000.00000" pt_clust_4="50.74066" pt_clust_5="54.44208" pt_clust_6="171.36413"></scales>
<clustering>
<clus scale="   54.442">  1  5  2 -1</clus>
<clus scale="   50.741">  1  4  2 -1</clus>
<clus scale="  171.364">  2  6  1 -1</clus>
<clus scale="   54.442">  1  3  2 -1</clus>
</clustering>
</event>
<event>
 6    0  0.6525019E+002  0.9449762E+02  0.7546771E-02  0.1292312E+00
          1   -1    0    0  505    0 -0.00000000000E+00  0.00000000000E+00  0.19449206277E+04  0.19449206277E+04  0.00000000000E+00 0. -1.
         21   -1    0    0  504  502  0.00000000000E+00 -0.00000000000E+00 -0.18124398639E+03  0.18124398639E+03  0.00000000000E+00 0. -1.
         21    1    1    2  503  502 -0.42427871499E+02 -0.85132165081E+01  0.33179874770E+02  0.54529837933E+02  0.00000000000E+00 0.  1.
         21    1    1    2  504  501 -0.63414236929E+02  0.37320992591E+02 -0.14797344763E+03  0.16525847372E+03  0.00000000000E+00 0. -1.
         21    1    1    2  505  503  0.39521436956E+02  0.38764281678E+02  0.47455480841E+02  0.72915267091E+02  0.00000000000E+00 0. -1.
          1    1    1    2  501    0  0.66320671473E+02 -0.67572057762E+02  0.18310147334E+04  0.18334610354E+04  0.00000000000E+00 0. -1.
<scales pt_clust_3="43.27354" pt_clust_4="14000.00000" pt_clust_5="52.68300" pt_clust_6="94.49762"></scales>
<clustering>
<clus scale="   43.274">  2  3  1 -1</clus>
<clus scale="   52.683">  2  5  1 -1</clus>
<clus scale="   94.498">  1  6  2 -1</clus>
<clus scale="   43.274">  2  3  1 -1</clus>
</clustering>
</event>
<event>
 6    0  0.6525019E+002  0.1456064E+03  0.7546771E-02  0.1205978E+00
         21   -1    0    0  503  502  0.00000000000E+00  0.00000000000E+00  0.51066456845E+03  0.51066456845E+03  0.00000000000E+00 0. -1.
          2   -1    0    0  504    0 -0.00000000000E+00 -0.00000000000E+00 -0.11624526529E+04  0.11624526529E+04  0.00000000000E+00 0. -1.
         21    1    1    2  503  505 -0.71967997528E+02 -0.39180841600E+02  0.34760162959E+03  0.35712942179E+03  0.00000000000E+00 0. -1.
         21    1    1    2  504  502 -0.26265398785E+02 -0.73378976950E+02  0.10617204948E+03  0.13170743913E+03  0.00000000000E+00 0. -1.
         21    1    1    2  505  501  0.72377261891E+02  0.17165657470E+03 -0.18874231728E+03  0.26519447583E+03  0.00000000000E+00 0.  1.
          2    1    1    2  501    0  0.25856134423E+02 -0.59096756151E+02 -0.91681944628E+03  0.91908588465E+03  0.00000000000E+00 0. -1.
<scales pt_clust_3="14000.00000" pt_clust_4="80.42177" pt_clust_5="145.60636" pt_clust_6="64.50555"></scales>
<clustering>
<clus scale="   64.506">  2  6  1 -1</clus>
<clus scale="   80.422">  1  4  2 -1</clus>
<clus scale="  145.606">  2  5  1 -1</clus>
<clus scale="   80.422">  1  3  2 -1</clus>
</clustering>
</event>
<event>
 6    0  0.8179812E+002  0.8228694E+02  0.7546771E-02  0.1322684E+00
         -4   -1    0    0    0  501 -0.00000000000E+00  0.00000000000E+00  0.70006941910E+03  0.70006941910E+03  0.00000000000E+00 0. -1.
         21   -1    0    0  504  502  0.00000000000E+00 -0.00000000000E+00 -0.51878236512E+03  0.51878236512E+03  0.00000000000E+00 0. -1.
         21    1    1    2  503  505 -0.37274326978E+02 -0.10321078489E+03 -0.35355265256E+03  0.37019092331E+03  0.00000000000E+00 0. -1.
         21    1    1    2  504  501 -0.20482950147E+02  0.38235840935E+02 -0.13537930404E+03  0.14215866748E+03  0.00000000000E+00 0. -1.
         21    1    1    2  505  502  0.29548450212E+02 -0.12123319226E+02  0.67720348254E+00  0.31945960364E+02  0.00000000000E+00 0. -1.
         -4    1    1    2    0  503  0.28208826913E+02  0.77098263184E+02  0.66954180710E+03  0.67455623306E+03  0.00000000000E+00 0. -1.
<scales pt_clust_3="82.28694" pt_clust_4="37.00784" pt_clust_5="31.93878" pt_clust_6="14000.00000"></scales>
<clustering>
<clus scale="   31.939">  2  5  1 -1</clus>
<clus scale="   37.008">  2  4  1 -1</clus>
<clus scale="   82.287">  2  3  1 -1</clus>
<clus scale="   31.939">  2  3  1 -1</clus>
</clustering>
</event>
<event>
 6    0  0.6525019E+002  0.1020807E+03  0.7546771E-02  0.1275980E+00
         21   -1    0    0  504  502  0.00000000000E+00  0.00000000000E+00  0.15282981950E+03  0.15282981950E+03  0.00000000000E+00 0. -1.
          2   -1    0    0  505    0 -0.00000000000E+00 -0.00000000000E+00 -0.80982429555E+03  0.80982429555E+03  0.00000000000E+00 0. -1.
         21    1    1    2  503  501 -0.46226254616E+02 -0.89559948357E+02 -0.84526499047E+02  0.13153927173E+03  0.00000000000E+00 0. -1.
         21    1    1    2  504  503  0.38861525028E+02  0.98739923010E+02  0.95399980390E+02  0.14269178947E+03  0.00000000000E+00 0. -1.
         21    1    1    2  505  502 -0.33178565423E+02  0.62784006977E+01 -0.20292795938E+02  0.39395851125E+02  0.00000000000E+00 0. -1.
          2    1    1    2  501    0  0.40543295011E+02 -0.15458375351E+02 -0.64757516145E+03  0.64902720272E+03  0.00000000000E+00 0. -1.
<scales pt_clust_3="102.08068" pt_clust_4="14000.00000" pt_clust_5="33.76737" pt_clust_6="43.22191"></scales>
<clustering>
<clus scale="   33.767">  1  5  2 -1</clus>
<clus scale="   43.222">  2  6  1 -1</clus>
<clus scale="  102.081">  2  3  1 -1</clus>
<clus scale="   33.767">  1  3  2 -1</clus>
</clustering>
</event>
<event>
 6    0  0.6525019E+002  0.9236426E+02  0.7546771E-02  0.1297225E+00
          1   -1    0    0  504    0 -0.00000000000E+00  0.00000000000E+00  0.22337092342E+04  0.22337092342E+04  0.00000000000E+00 0.  1.
         21   -1    0    0  505  502  0.00000000000E+00 -0.00000000000E+00 -0.58209988953E+02  0.58209988953E+02  0.00000000000E+00 0.  1.
         21    1    1    2  503  501  0.42093452765E+02 -0.53911646838E+02  0.54671636072E+02  0.87563189876E+02  0.00000000000E+00 0.  1.
         21    1    1    2  504  502 -0.27657322103E+02  0.33262453660E+02  0.64016779857E+02  0.77262321947E+02  0.00000000000E+00 0.  1.
         21    1    1    2  505  503 -0.94591791731E+00 -0.72904769144E+02  0.49734525561E+01  0.73080334940E+02  0.00000000000E+00 0.  1.
          1    1    1    2  501    0 -0.13490212744E+02  0.93553962322E+02  0.20518373768E+04  0.20540133764E+04  0.00000000000E+00 0.  1.
<scales pt_clust_3="92.36426" pt_clust_4="43.25874" pt_clust_5="54.44654" pt_clust_6="14000.00000"></scales>
<clustering>
<clus scale="   43.259">  2  4  1 -1</clus>
<clus scale="   54.447">  2  5  1 -1</clus>
<clus scale="   92.364">  2  3  1 -1</clus>
<clus scale="   43.259">  2  3  1 -1</clus>
</clustering>
</event>
<event>
 6    0  0.6525019E+002  0.2082804E+03  0.7546771E-02  0.1142935E+00
          1   -1    0    0  503    0 -0.00000000000E+00  0.00000000000E+00  0.67655515968E+03  0.67655515968E+03  0.00000000000E+00 0. -1.
         21   -1    0    0  504  502  0.00000000000E+00 -0.00000000000E+00 -0.31053968182E+03  0.31053968182E+03  0.00000000000E+00 0. -1.
         21    1    1    2  503  502 -0.25652153339E+03 -0.46449931961E+02 -0.12573421620E+03  0.28943045175E+03  0.00000000000E+00 0. -1.
         21    1    1    2  504  505  0.20222590043E+01  0.46856264597E+02 -0.47119195166E+02  0.66481708888E+02  0.00000000000E+00 0. -1.
         21    1    1    2  505  501  0.13094148066E+03  0.39364283746E+02  0.89440251367E+02  0.16338536273E+03  0.00000000000E+00 0.  1.
          1    1    1    2  501    0  0.12355779374E+03 -0.39770616383E+02  0.44942863786E+03  0.46779731813E+03  0.00000000000E+00 0. -1.
<scales pt_clust_3="14000.00000" pt_clust_4="46.89988" pt_clust_5="208.28036" pt_clust_6="129.36111"></scales>
<clustering>
<clus scale="   46.900">  2  4  1 -1</clus>
<clus scale="  129.361">  1  6  2 -1</clus>
<clus scale="  208.280">  1  5  2 -1</clus>
<clus scale="   46.900">  2  3  1 -1</clus>
</clustering>
</event>
<event>
 6    0  0.6525019E+002  0.1055422E+03  0.7546771E-02  0.1269055E+00
         21   -1    0    0  504  502  0.00000000000E+00  0.00000000000E+00  0.16297867530E+04  0.16297867530E+04  0.00000000000E+00 0.  1.
          2   -1    0    0  503    0 -0.00000000000E+00 -0.00000000000E+00 -0.18928836402E+04  0.18928836402E+04  0.00000000000E+00 0.  1.
         21    1    1    2  503  505  0.17468724911E+02  0.36634990067E+02 -0.42509905164E+03  0.42703217976E+03  0.00000000000E+00 0. -1.
         21    1    1    2  504  501 -0.89454718585E+02  0.22142142355E+02  0.81107552918E+02  0.12276341591E+03  0.00000000000E+00 0. -1.
         21    1    1    2  505  502 -0.15346812391E+02 -0.41394380248E+02  0.15251941068E+04  0.15258329144E+04  0.00000000000E+00 0.  1.
          2    1    1    2  501    0  0.87332806065E+02 -0.17382752174E+02 -0.14442994953E+04  0.14470418830E+04  0.00000000000E+00 0.  1.
<scales pt_clust_3="40.58668" pt_clust_4="14000.00000" pt_clust_5="44.13890" pt_clust_6="105.54222"></scales>
<clustering>
<clus scale="   40.587">  2  3  1 -1</clus>
<clus scale="   44.139">  1  5  2 -1</clus>
<clus scale="  105.542">  2  6  1 -1</clus>
<clus scale="   44.139">  1  3  2 -1</clus>
</clustering>
</event>
<event>
 6    0  0.6525019E+002  0.1845225E+03  0.7546771E-02  0.1163497E+00
         21   -1    0    0  505  502  0.00000000000E+00  0.00000000000E+00  0.30206184256E+03  0.30206184256E+03  0.00000000000E+00 0. -1.
          2   -1    0    0  503    0 -0.00000000000E+00 -0.00000000000E+00 -0.92656913991E+03  0.92656913991E+03  0.00000000000E+00 0.  1.
         21    1    1    2  503  502  0.10479982959E+03  0.82862762835E+02 -0.24093599751E+03  0.27549845125E+03  0.00000000000E+00 0.  1.
         21    1    1    2  504  501 -0.18071282831E+03 -0.10969975437E+03 -0.71789548846E+02  0.22325971815E+03  0.00000000000E+00 0. -1.
         21    1    1    2  505  504  0.57899324260E+02 -0.95446701156E+02  0.18602473600E+03  0.21695070158E+03  0.00000000000E+00 0. -1.
          2    1    1    2  501    0  0.18013674464E+02  0.12228369269E+03 -0.49780648699E+03  0.51292211149E+03  0.00000000000E+00 0.  1.
<scales pt_clust_3="184.52250" pt_clust_4="14000.00000" pt_clust_5="111.63514" pt_clust_6="117.26364"></scales>
<clustering>
<clus scale="  111.635">  1  5  2 -1</clus>
<clus scale="  117.264">  2  6  1 -1</clus>
<clus scale="  184.522">  2  3  1 -1</clus>
<clus scale="  111.635">  1  3  2 -1</clus>
</clustering>
</event>
<event>
 6    0  0.6525019E+002  0.1077065E+03  0.7546771E-02  0.1264877E+00
         21   -1    0    0  503  502  0.00000000000E+00  0.00000000000E+00  0.20936186923E+02  0.20936186923E+02  0.00000000000E+00 0. -1.
          2   -1    0    0  504    0 -0.00000000000E+00 -0.00000000000E+00 -0.18730669203E+04  0.18730669203E+04  0.00000000000E+00 0. -1.
         21    1    1    2  503  501 -0.56226477030E+02 -0.70815362560E+01 -0.82476986545E+02  0.10007006638E+03  0.00000000000E+00 0. -1.
         21    1    1    2  504  505  0.81783134780E+02  0.45384312237E+02 -0.36598044590E+03  0.37774317163E+03  0.00000000000E+00 0. -1.
         21    1    1    2  505  502  0.53636044083E+02 -0.16388578664E+02 -0.15532343335E+03  0.16513866804E+03  0.00000000000E+00 0. -1.
          2    1    1    2  501    0 -0.79192701833E+02 -0.21914197318E+02 -0.12483498676E+04  0.12510512012E+04  0.00000000000E+00 0. -1.
<scales pt_clust_3="56.67067" pt_clust_4="47.63284" pt_clust_5="47.63284" pt_clust_6="88.41285"></scales>
<clustering>
<clus scale="   47.633">  4  5 -1 -1</clus>
<clus scale="   56.671">  1  3  2 -1</clus>
<clus scale="   88.413">  2  6  1 -1</clus>
<clus scale="   56.671">  1  3  2 -1</clus>
</clustering>
</event>
<event>
 6    0  0.6525019E+002  0.7911453E+02  0.7546771E-02  0.1331583E+00
          1   -1    0    0  503    0 -0.00000000000E+00  0.00000000000E+00  0.18269834835E+03  0.18269834835E+03  0.00000000000E+00 0. -1.
         21   -1    0    0  505  502  0.00000000000E+00 -0.00000000000E+00 -0.50083131117E+03  0.50083131117E+03  0.00000000000E+00 0. -1.
         21    1    1    2  503  504  0.93658979794E+00 -0.40650001317E+02  0.23309032113E+02  0.46868014525E+02  0.00000000000E+00 0. -1.
         21    1    1    2  504  502 -0.80323181877E+02 -0.16244648364E+02 -0.13487889405E+02  0.83051943432E+02  0.00000000000E+00 0.  1.
         21    1    1    2  505  501  0.73900312627E+01  0.76901161417E+02 -0.42452903273E+03  0.43150121764E+03  0.00000000000E+00 0. -1.
          1    1    1    2  501    0  0.71996560816E+02 -0.20006511736E+02  0.96574927211E+02  0.12210848393E+03  0.00000000000E+00 0. -1.
<scales pt_clust_3="40.66079" pt_clust_4="79.11453" pt_clust_5="76.30200" pt_clust_6="14000.00000"></scales>
<clustering>
<clus scale="   40.661">  1  3  2 -1</clus>
<clus scale="   76.302">  2  5  1 -1</clus>
<clus scale="   79.115">  2  4  1 -1</clus>
<clus scale="   76.302">  2  3  1 -1</clus>
</clustering>
</event>
<event>
 6    0  0.6525019E+002  0.7511171E+02  0.7546771E-02  0.1343525E+00
          1   -1    0    0  504    0 -0.00000000000E+00  0.00000000000E+00  0.22828025887E+04  0.22828025887E+04  0.00000000000E+00 0.  1.
         21   -1    0    0  501  502  0.00000000000E+00 -0.00000000000E+00 -0.72801027045E+02  0.72801027045E+02  0.00000000000E+00 0.  1.
         21    1    1    2  503  502 -0.33080970773E+02  0.66667016838E+02 -0.17459912688E+02  0.76444033857E+02  0.00000000000E+00 0.  1.
         21    1    1    2  504  505 -0.67778836766E+02 -0.13921177064E+02  0.51319734517E+02  0.86148041389E+02  0.00000000000E+00 0.  1.
         21    1    1    2  505  503  0.67448954509E+02 -0.55265276668E+02  0.22097164025E+03  0.23755436865E+03  0.00000000000E+00 0. -1.
          1    1    1    2  501    0  0.33410853030E+02  0.25194368938E+01  0.19551700996E+04  0.19554571718E+04  0.00000000000E+00 0.  1.
<scales pt_clust_3="75.11171" pt_clust_4="62.22480" pt_clust_5="14000.00000" pt_clust_6="33.50571"></scales>
<clustering>
<clus scale="   33.506">  1  6  2 -1</clus>
<clus scale="   62.225">  1  4  2 -1</clus>
<clus scale="   75.112">  2  3  1 -1</clus>
<clus scale="   75.112">  2  3  1 -1</clus>
</clustering>
</event>
<event>
 6    0  0.6525019E+002  0.8925119E+02  0.7546771E-02  0.1304675E+00
          1   -1    0    0  504    0 -0.00000000000E+00  0.00000000000E+00  0.32931769496E+04  0.32931769496E+04  0.00000000000E+00 0. -1.
         21   -1    0    0  503  502  0.00000000000E+00 -0.00000000000E+00 -0.42855429390E+02  0.42855429390E+02  0.00000000000E+00 0. -1.
         21    1    1    2  503  505 -0.36302313689E+02 -0.26876921272E+02  0.85246910637E+02  0.96474155344E+02  0.00000000000E+00 0. -1.
         21    1    1    2  504  502  0.50870766018E+02 -0.45514625995E+02  0.25340829698E+02  0.72811906063E+02  0.00000000000E+00 0. -1.
         21    1    1    2  505  501  0.74958437568E+02  0.77813480465E+02  0.21484806391E+03  0.24048574941E+03  0.00000000000E+00 0. -1.
          1    1    1    2  501    0 -0.89526889897E+02 -0.54219331976E+01  0.29248857159E+04  0.29262605681E+04  0.00000000000E+00 0. -1.
<scales pt_clust_3="45.16887" pt_clust_4="68.50896" pt_clust_5="89.25119" pt_clust_6="14000.00000"></scales>
<clustering>
<clus scale="   45.169">  2  3  1 -1</clus>
<clus scale="   68.509">  2  4  1 -1</clus>
<clus scale="   89.251">  2  5  1 -1</clus>
<clus scale="   45.169">  2  3  1 -1</clus>
</clustering>
</event>
<event>
 6    0  0.6525019E+002  0.1180210E+03  0.7546771E-02  0.1246398E+00
         21   -1    0    0  505  502  0.00000000000E+00  0.00000000000E+00  0.35244496913E+02  0.35244496913E+02  0.00000000000E+00 0.  1.
          1   -1    0    0  504    0 -0.00000000000E+00 -0.00000000000E+00 -0.21384243363E+04  0.21384243363E+04  0.00000000000E+00 0.  1.
         21    1    1    2  503  502  0.19840856478E+02 -0.32932940942E+02 -0.16076560636E+01  0.38481459729E+02  0.00000000000E+00 0.  1.
         21    1    1    2  504  503  0.95780866949E+02  0.36287791116E+02 -0.77658227011E+03  0.78330760274E+03  0.00000000000E+00 0.  1.
         21    1    1    2  505  501  0.32006107041E+02 -0.38092538093E+02 -0.60514111215E+02  0.78341496044E+02  0.00000000000E+00 0.  1.
          1    1    1    2  501    0 -0.14762783047E+03  0.34737687919E+02 -0.12644758020E+04  0.12735382747E+04  0.00000000000E+00 0.  1.
<scales pt_clust_3="38.44786" pt_clust_4="14000.00000" pt_clust_5="69.96693" pt_clust_6="118.02103"></scales>
<clustering>
<clus scale="   38.448">  1  3  2 -1</clus>
<clus scale="   69.967">  1  5  2 -1</clus>
<clus scale="  118.021">  1  6  2 -1</clus>
<clus scale="   38.448">  1  3  2 -1</clus>
</clustering>
</event>
<event>
 6    0  0.6525019E+002  0.1019614E+03  0.7546771E-02  0.1276225E+00
         21   -1    0    0  504  502  0.00000000000E+00  0.00000000000E+00  0.82464997816E+03  0.82464997816E+03  0.00000000000E+00 0. -1.
          2   -1    0    0  505    0 -0.00000000000E+00 -0.00000000000E+00 -0.11101084025E+03  0.11101084025E+03  0.00000000000E+00 0.  1.
         21    1    1    2  503  502 -0.58390839246E+01  0.55121847565E+02  0.51790236318E+03  0.52086022191E+03  0.00000000000E+00 0. -1.
         21    1    1    2  504  501 -0.44344820836E+02 -0.35140398294E+02  0.66734668901E+02  0.87491866825E+02  0.00000000000E+00 0.  1.
         21    1    1    2  505  503 -0.30630249508E+02  0.53012556452E+02  0.19198256263E+03  0.20150892705E+03  0.00000000000E+00 0.  1.
          2    1    1    2  501    0  0.80814154269E+02 -0.72994005724E+02 -0.62980456799E+02  0.12579980262E+03  0.00000000000E+00 0.  1.
<scales pt_clust_3="55.43025" pt_clust_4="50.49339" pt_clust_5="101.96137" pt_clust_6="14000.00000"></scales>
<clustering>
<clus scale="   55.430">  1  3  2 -1</clus>
<clus scale="   50.493">  1  4  2 -1</clus>
<clus scale="  101.961">  1  5  2 -1</clus>
<clus scale="   55.430">  1  3  2 -1</clus>
</clustering>
</event>
<event>
 6    0  0.6525019E+002  0.1515995E+03  0.7546771E-02  0.1198521E+00
          1   -1    0    0  503    0 -0.00000000000E+00  0.00000000000E+00  0.13998397356E+04  0.13998397356E+04  0.00000000000E+00 0. -1.
         21   -1    0    0  505  502  0.00000000000E+00 -0.00000000000E+00 -0.11445278855E+03  0.11445278855E+03  0.00000000000E+00 0.  1.
         21    1    1    2  503  504  0.48128833062E+02 -0.22583859676E+02  0.20412248740E+03  0.21093222881E+03  0.00000000000E+00 0. -1.
         21    1    1    2  504  502 -0.15471459465E+03  0.27682927439E+02 -0.15232076617E+01  0.15717910303E+03  0.00000000000E+00 0.  1.
         21    1    1    2  505  501  0.14343838503E+03  0.24418506701E+02  0.13904110736E+03  0.20125422556E+03  0.00000000000E+00 0. -1.
          1    1    1    2  501    0 -0.36852623442E+02 -0.29517574465E+02  0.94374655992E+03  0.94492696671E+03  0.00000000000E+00 0. -1.
<scales pt_clust_3="47.75383" pt_clust_4="151.59955" pt_clust_5="14000.00000" pt_clust_6="47.21655"></scales>
<clustering>
<clus scale="   47.217">  1  6  2 -1</clus>
<clus scale="   47.754">  1  3  2 -1</clus>
<clus scale="  151.600">  2  4  1 -1</clus>
<clus scale="  151.600">  2  3  1 -1</clus>
</clustering>
</event>
<event>
 6    0  0.6525019E+002  0.9710546E+02  0.7546771E-02  0.1286503E+00
          2   -1    0    0  504    0 -0.00000000000E+00  0.00000000000E+00  0.12081159553E+04  0.12081159553E+04  0.00000000000E+00 0.  1.
         21   -1    0    0  503  502  0.00000000000E+00 -0.00000000000E+00 -0.69050103093E+03  0.69050103093E+03  0.00000000000E+00 0.  1.
         21    1    1    2  503  501  0.69233527754E+01  0.33156818571E+02 -0.41093611580E+02  0.53254035941E+02  0.00000000000E+00 0. -1.
         21    1    1    2  504  505  0.54518076370E+02  0.34186430340E+02  0.65182470131E+02  0.91595235044E+02  0.00000000000E+00 0.  1.
         21    1    1    2  505  502 -0.76501940948E+02 -0.10619347556E+03 -0.62293184343E+03  0.63653254652E+03  0.00000000000E+00 0.  1.
          2    1    1    2  501    0  0.15060511803E+02  0.38850226646E+02  0.11164579092E+04  0.11172351687E+04  0.00000000000E+00 0.  1.
<scales pt_clust_3="33.87193" pt_clust_4="14000.00000" pt_clust_5="97.10546" pt_clust_6="41.68743"></scales>
<clustering>
<clus scale="   33.872">  2  3  1 -1</clus>
<clus scale="   41.687">  1  6  2 -1</clus>
<clus scale="   97.105">  2  5  1 -1</clus>
<clus scale="   33.872">  2  3  1 -1</clus>
</clustering>
</event>
<event>
 6    0  0.6525019E+002  0.1364266E+03  0.7546771E-02  0.1218220E+00
         21   -1    0    0  503  502  0.00000000000E+00  0.00000000000E+00  0.19058529063E+03  0.19058529063E+03  0.00000000000E+00 0.  1.
          2   -1    0    0  504    0 -0.00000000000E+00 -0.00000000000E+00 -0.18067921153E+04  0.18067921153E+04  0.00000000000E+00 0.  1.
         21    1    1    2  503  505  0.10035821367E+02  0.14001427377E+03  0.14371699644E+03  0.20089621608E+03  0.00000000000E+00 0.  1.
         21    1    1    2  504  502 -0.58965741580E+02 -0.57692703097E+02 -0.10120155088E+03  0.13056477539E+03  0.00000000000E+00 0. -1.
         21    1    1    2  505  501  0.13588796066E+02 -0.75910444083E+02 -0.44289438547E+03  0.44955810257E+03  0.00000000000E+00 0. -1.
          2    1    1    2  501    0  0.35341124147E+02 -0.64111265862E+01 -0.12158278847E+04  0.12163583119E+04  0.00000000000E+00 0.  1.
<scales pt_clust_3="136.42663" pt_clust_4="78.62912" pt_clust_5="14000.00000" pt_clust_6="35.91793"></scales>
<clustering>
<clus scale="   35.918">  2  6  1 -1</clus>
<clus scale="   78.629">  2  4  1 -1</clus>
<clus scale="  136.427">  1  3  2 -1</clus>
<clus scale="  136.427">  1  3  2 -1</clus>
</clustering>
</event>
<event>
 6    0  0.6525019E+002  0.2819596E+03  0.7546771E-02  0.1094623E+00
         21   -1    0    0  503  502  0.00000000000E+00  0.00000000000E+00  0.50152822153E+02  0.50152822153E+02  0.00000000000E+00 0. -1.
          1   -1    0    0  505    0 -0.00000000000E+00 -0.00000000000E+00 -0.18228441599E+04  0.18228441599E+04  0.00000000000E+00 0. -1.
         21    1    1    2  503  504  0.13804286050E+02 -0.40600358649E+02 -0.52360051048E+02  0.67679556599E+02  0.00000000000E+00 0. -1.
         21    1    1    2  504  501  0.44941153991E+02  0.41352520300E+02 -0.10613701214E+03  0.12245327110E+03  0.00000000000E+00 0.  1.
         21    1    1    2  505  502 -0.10527153043E+03 -0.22402520568E+03 -0.81403550247E+03  0.85083675707E+03  0.00000000000E+00 0. -1.
          1    1    1    2  501    0  0.46526090388E+02  0.22327304403E+03 -0.80015877208E+03  0.83202739727E+03  0.00000000000E+00 0. -1.
<scales pt_clust_3="42.88295" pt_clust_4="55.32553" pt_clust_5="261.21419" pt_clust_6="55.32553"></scales>
<clustering>
<clus scale="   42.883">  1  3  2 -1</clus>
<clus scale="   55.326">  4  6 -1 -1</clus>
<clus scale="  261.214">  2  5  1 -1</clus>
<clus scale="   42.883">  1  3  2 -1</clus>
</clustering>
</event>
<event>
 6    0  0.6525019E+002  0.7234987E+02  0.7546771E-02  0.1352280E+00
         21   -1    0    0  503  502  0.00000000000E+00  0.00000000000E+00  0.11693320563E+04  0.11693320563E+04  0.00000000000E+00 0. -1.
          2   -1    0    0  505    0 -0.00000000000E+00 -0.00000000000E+00 -0.12960773660E+04  0.12960773660E+04  0.00000000000E+00 0. -1.
         21    1    1    2  503  504  0.28833772750E+02  0.66119732478E+02  0.11362805590E+04  0.11385678348E+04  0.00000000000E+00 0. -1.
         21    1    1    2  504  501 -0.20613439341E+02 -0.12426004863E+03 -0.24793701561E+03  0.27809753195E+03  0.00000000000E+00 0. -1.
         21    1    1    2  505  502 -0.29056014789E+02  0.34680733802E+02 -0.14280598753E+02  0.47444080697E+02  0.00000000000E+00 0. -1.
          2    1    1    2  501    0  0.20835681379E+02  0.23459582345E+02 -0.10008082544E+04  0.10012999748E+04  0.00000000000E+00 0. -1.
<scales pt_clust_3="72.34987" pt_clust_4="14000.00000" pt_clust_5="45.84034" pt_clust_6="31.37639"></scales>
<clustering>
<clus scale="   31.376">  2  6  1 -1</clus>
<clus scale="   45.840">  2  5  1 -1</clus>
<clus scale="   72.350">  1  3  2 -1</clus>
<clus scale="   72.350">  1  3  2 -1</clus>
</clustering>
</event>
<event>
 6    0  0.6525019E+002  0.7248658E+02  0.7546771E-02  0.1351836E+00
         21   -1    0    0  505  502  0.00000000000E+00  0.00000000000E+00  0.43394076854E+03  0.43394076854E+03  0.00000000000E+00 0. -1.
          2   -1    0    0  503    0 -0.00000000000E+00 -0.00000000000E+00 -0.60015988885E+03  0.60015988885E+03  0.00000000000E+00 0. -1.
         21    1    1    2  503  504  0.41518139921E+02  0.75971306102E+02 -0.66619587289E+02  0.10924085639E+03  0.00000000000E+00 0.  1.
         21    1    1    2  504  502 -0.47194764966E+02  0.19641603394E+02 -0.61745514729E+01  0.51490421536E+02  0.00000000000E+00 0. -1.
         21    1    1    2  505  501 -0.31681841897E+02 -0.29891273760E+02  0.38578347791E+03  0.38823461874E+03  0.00000000000E+00 0. -1.
          2    1    1    2  501    0  0.37358466942E+02 -0.65721635735E+02 -0.47920845945E+03  0.48513476073E+03  0.00000000000E+00 0. -1.
<scales pt_clust_3="72.48658" pt_clust_4="62.70714" pt_clust_5="43.55717" pt_clust_6="14000.00000"></scales>
<clustering>
<clus scale="   43.557">  1  5  2 -1</clus>
<clus scale="   62.707">  1  4  2 -1</clus>
<clus scale="   72.487">  1  3  2 -1</clus>
<clus scale="   43.557">  1  3  2 -1</clus>
</clustering>
</event>
<event>
 6    0  0.6525019E+002  0.1639205E+03  0.7546771E-02  0.1184340E+00
         21   -1    0    0  501  502  0.00000000000E+00  0.00000000000E+00  0.52910581789E+03  0.52910581789E+03  0.00000000000E+00 0.  1.
          1   -1    0    0  504    0 -0.00000000000E+00 -0.00000000000E+00 -0.93996540773E+03  0.93996540773E+03  0.00000000000E+00 0.  1.
         21    1    1    2  503  502 -0.36338595165E+02  0.70010328509E+01  0.47484046958E+03  0.47628035810E+03  0.00000000000E+00 0.  1.
         21    1    1    2  504  505 -0.28998647985E+02 -0.17407806795E+03 -0.29410503407E+03  0.34298960099E+03  0.00000000000E+00 0.  1.
         21    1    1    2  505  503  0.26493670933E+02  0.15270818406E+03 -0.18606065548E+03  0.24215753467E+03  0.00000000000E+00 0.  1.
          1    1    1    2  501    0  0.38843572218E+02  0.14368851042E+02 -0.40553436987E+03  0.40764373186E+03  0.00000000000E+00 0.  1.
<scales pt_clust_3="37.00686" pt_clust_4="14000.00000" pt_clust_5="163.92046" pt_clust_6="40.79431"></scales>
<clustering>
<clus scale="   37.007">  1  3  2 -1</clus>
<clus scale="   40.794">  2  6  1 -1</clus>
<clus scale="  163.920">  1  5  2 -1</clus>
<clus scale="   37.007">  1  3  2 -1</clus>
</clustering>
</event>
<event>
 6    0  0.6525019E+002  0.7874879E+02  0.7546771E-02  0.1332640E+00
         21   -1    0    0  505  502  0.00000000000E+00  0.00000000000E+00  0.43383693907E+03  0.43383693907E+03  0.00000000000E+00 0.  1.
         -1   -1    0    0    0  501 -0.00000000000E+00 -0.00000000000E+00 -0.13074960351E+04  0.13074960351E+04  0.00000000000E+00 0. -1.
         21    1    1    2  503  504 -0.92005274806E+02 -0.47437701429E+02 -0.41123693781E+03  0.42406500107E+03  0.00000000000E+00 0.  1.
         21    1    1    2  504  502  0.69459593334E+02 -0.37478982899E+02  0.41498600433E+03  0.42242477799E+03  0.00000000000E+00 0.  1.
         21    1    1    2  505  501  0.43398818495E+02  0.50258545577E+02 -0.12670203142E+03  0.14304818634E+03  0.00000000000E+00 0.  1.
         -1    1    1    2    0  503 -0.20853137024E+02  0.34658138751E+02 -0.75070613110E+03  0.75179500874E+03  0.00000000000E+00 0. -1.
<scales pt_clust_3="14000.00000" pt_clust_4="78.74879" pt_clust_5="70.08141" pt_clust_6="40.44799"></scales>
<clustering>
<clus scale="   40.448">  2  6  1 -1</clus>
<clus scale="   70.081">  2  5  1 -1</clus>
<clus scale="   78.749">  1  4  2 -1</clus>
<clus scale="   78.749">  1  3  2 -1</clus>
</clustering>
</event>
<event>
 6    0  0.6525019E+002  0.1228188E+03  0.7546771E-02  0.1238518E+00
          2   -1    0    0  504    0 -0.00000000000E+00  0.00000000000E+00  0.70561197342E+03  0.70561197342E+03  0.00000000000E+00 0.  1.
         21   -1    0    0  505  502  0.00000000000E+00 -0.00000000000E+00 -0.14048537436E+03  0.14048537436E+03  0.00000000000E+00 0.  1.
         21    1    1    2  503  502  0.11866821616E+03 -0.44981342124E+02  0.27378782844E+02  0.12982705579E+03  0.00000000000E+00 0.  1.
         21    1    1    2  504  503 -0.90250828555E+02  0.58258656246E+02  0.11208081501E+03  0.15524623079E+03  0.00000000000E+00 0.  1.
         21    1    1    2  505  501  0.37282879149E+02  0.22097474347E+02 -0.57570078959E+02  0.72059874004E+02  0.00000000000E+00 0.  1.
          2    1    1    2  501    0 -0.65700266751E+02 -0.35374788468E+02  0.48323708016E+03  0.48896418719E+03  0.00000000000E+00 0.  1.
<scales pt_clust_3="14000.00000" pt_clust_4="122.81882" pt_clust_5="43.33949" pt_clust_6="72.97971"></scales>
<clustering>
<clus scale="   43.339">  2  5  1 -1</clus>
<clus scale="   72.980">  1  6  2 -1</clus>
<clus scale="  122.819">  1  4  2 -1</clus>
<clus scale="   43.339">  2  3  1 -1</clus>
</clustering>
</event>
<event>
 6    0  0.6525019E+002  0.5830313E+02  0.7546771E-02  0.1405094E+00
         21   -1    0    0  504  502  0.00000000000E+00  0.00000000000E+00  0.15404549536E+03  0.15404549536E+03  0.00000000000E+00 0. -1.
          2   -1    0    0  502    0 -0.00000000000E+00 -0.00000000000E+00 -0.12833030823E+04  0.12833030823E+04  0.00000000000E+00 0.  1.
         21    1    1    2  503  505 -0.63927039024E+02 -0.29935561798E+02  0.49570209500E+02  0.86255491700E+02  0.00000000000E+00 0. -1.
         21    1    1    2  504  503  0.54679056111E+02 -0.24109964151E+02  0.68152042375E+02  0.90640997503E+02  0.00000000000E+00 0. -1.
         21    1    1    2  505  501  0.28285341962E+02  0.84426929094E+02 -0.30350204568E+03  0.31629331112E+03  0.00000000000E+00 0. -1.
          2    1    1    2  501    0 -0.19037359049E+02 -0.30381403145E+02 -0.94347779316E+03  0.94415877737E+03  0.00000000000E+00 0.  1.
<scales pt_clust_3="14000.00000" pt_clust_4="58.30313" pt_clust_5="57.73303" pt_clust_6="35.85318"></scales>
<clustering>
<clus scale="   35.853">  2  6  1 -1</clus>
<clus scale="   57.733">  2  5  1 -1</clus>
<clus scale="   58.303">  1  4  2 -1</clus>
<clus scale="   58.303">  1  3  2 -1</clus>
</clustering>
</event>
<event>
 6    0  0.8080816E+002  0.1253719E+03  0.7546771E-02  0.1234489E+00
          2   -1    0    0  504    0 -0.00000000000E+00  0.00000000000E+00  0.36957966043E+04  0.36957966043E+04  0.00000000000E+00 0.  1.
         21   -1    0    0  505  502  0.00000000000E+00 -0.00000000000E+00 -0.14144709196E+03  0.14144709196E+03  0.00000000000E+00 0. -1.
         21    1    1    2  503  502  0.41474489001E+02 -0.36724288903E+02 -0.11173123651E+03  0.12471036783E+03  0.00000000000E+00 0. -1.
         21    1    1    2  504  503 -0.11809738142E+03 -0.50789012986E+02  0.16480805227E+03  0.20901724673E+03  0.00000000000E+00 0.  1.
         21    1    1    2  505  501  0.52071656182E+02  0.62960566782E+02  0.17579392151E+04  0.17598368601E+04  0.00000000000E+00 0.  1.
          2    1    1    2  501    0  0.24551236238E+02  0.24552735107E+02  0.17433334815E+04  0.17436792215E+04  0.00000000000E+00 0.  1.
<scales pt_clust_3="55.39681" pt_clust_4="116.33284" pt_clust_5="30.47089" pt_clust_6="30.47089"></scales>
<clustering>
<clus scale="   30.471">  5  6 -1 -1</clus>
<clus scale="   55.397">  2  3  1 -1</clus>
<clus scale="  116.333">  2  4  1 -1</clus>
<clus scale="   55.397">  2  3  1 -1</clus>
</clustering>
</event>
<event>
 6    0  0.6525019E+002  0.9379362E+02  0.7546771E-02  0.1293916E+00
         21   -1    0    0  504  502  0.00000000000E+00  0.00000000000E+00  0.35786156136E+02  0.35786156136E+02  0.00000000000E+00 0. -1.
          2   -1    0    0  503    0 -0.00000000000E+00 -0.00000000000E+00 -0.14271208393E+04  0.14271208393E+04  0.00000000000E+00 0.  1.
         21    1    1    2  503  502 -0.36251177293E+02  0.25283647862E+02 -0.20781212687E+02  0.48839220971E+02  0.00000000000E+00 0. -1.
         21    1    1    2  504  505  0.11066940084E+03 -0.29880928514E+00 -0.18545635645E+03  0.21596727927E+03  0.00000000000E+00 0. -1.
         21    1    1    2  505  501 -0.12313172462E+03 -0.76339061042E+01 -0.77538779315E+03  0.78514070580E+03  0.00000000000E+00 0. -1.
          2    1    1    2  501    0  0.48713501070E+02 -0.17350932472E+02 -0.40970932092E+03  0.41295978944E+03  0.00000000000E+00 0.  1.
<scales pt_clust_3="44.19741" pt_clust_4="14000.00000" pt_clust_5="93.79362" pt_clust_6="48.53447"></scales>
<clustering>
<clus scale="   44.197">  1  3  2 -1</clus>
<clus scale="   48.534">  2  6  1 -1</clus>
<clus scale="   93.794">  2  5  1 -1</clus>
<clus scale="   44.197">  1  3  2 -1</clus>
</clustering>
</event>
<event>
 6    0  0.6525019E+002  0.8424707E+02  0.7546771E-02  0.1317413E+00
         21   -1    0    0  505  502  0.00000000000E+00  0.00000000000E+00  0.75980018693E+03  0.75980018693E+03  0.00000000000E+00 0.  1.
          1   -1    0    0  504    0 -0.00000000000E+00 -0.00000000000E+00 -0.87766830554E+03  0.87766830554E+03  0.00000000000E+00 0.  1.
         21    1    1    2  503  501  0.78892002940E+02  0.82444104718E+02 -0.10234548347E+03  0.15328266868E+03  0.00000000000E+00 0.  1.
         21    1    1    2  504  502  0.53162040377E+02  0.27909353890E+02  0.36444320662E+03  0.36935617691E+03  0.00000000000E+00 0.  1.
         21    1    1    2  505  503 -0.79526612640E+02 -0.10298340245E+03  0.35492682172E+03  0.37802527967E+03  0.00000000000E+00 0.  1.
          1    1    1    2  501    0 -0.52527430677E+02 -0.73700561612E+01 -0.73489266349E+03  0.73680436721E+03  0.00000000000E+00 0.  1.
<scales pt_clust_3="84.24707" pt_clust_4="59.17867" pt_clust_5="14000.00000" pt_clust_6="53.04195"></scales>
<clustering>
<clus scale="   53.042">  2  6  1 -1</clus>
<clus scale="   59.179">  1  4  2 -1</clus>
<clus scale="   84.247">  2  3  1 -1</clus>
<clus scale="   59.179">  1  3  2 -1</clus>
</clustering>
</event>
<event>
 6    0  0.6525019E+002  0.1661431E+03  0.7546771E-02  0.1181931E+00
         -3   -1    0    0    0  501 -0.00000000000E+00  0.00000000000E+00  0.25223663359E+03  0.25223663359E+03  0.00000000000E+00 0.  1.
         21   -1    0    0  505  502  0.00000000000E+00 -0.00000000000E+00 -0.13682061733E+04  0.13682061733E+04  0.00000000000E+00 0.  1.
         21    1    1    2  503  504  0.62850218979E+02 -0.11159749466E+03  0.33192880823E+02  0.13230993227E+03  0.00000000000E+00 0.  1.
         21    1    1    2  504  501  0.45798725523E+02  0.35877627514E+02 -0.11462380262E+02  0.59296826026E+02  0.00000000000E+00 0.  1.
         21    1    1    2  505  503 -0.80924662531E+02  0.14804154232E+03 -0.12669614687E+04  0.12781457125E+04  0.00000000000E+00 0.  1.
         -3    1    1    2    0  502 -0.27724281970E+02 -0.72321675175E+02  0.12926142842E+03  0.15069033608E+03  0.00000000000E+00 0.  1.
<scales pt_clust_3="166.14308" pt_clust_4="58.17841" pt_clust_5="14000.00000" pt_clust_6="50.32740"></scales>
<clustering>
<clus scale="   58.178">  1  4  2 -1</clus>
<clus scale="   50.327">  1  6  2 -1</clus>
<clus scale="  166.143">  1  3  2 -1</clus>
<clus scale="  166.143">  2  3  1 -1</clus>
</clustering>
</event>
<event>
 6    0  0.6525019E+002  0.9080962E+02  0.7546771E-02  0.1300903E+00
          1   -1    0    0  503    0 -0.00000000000E+00  0.00000000000E+00  0.19610099517E+03  0.19610099517E+03  0.00000000000E+00 0. -1.
         21   -1    0    0  504  502  0.00000000000E+00 -0.00000000000E+00 -0.34545801658E+03  0.34545801658E+03  0.00000000000E+00 0.  1.
         21    1    1    2  503  505 -0.35686215460E+02  0.48717787362E+02 -0.24805552544E+01  0.60440730751E+02  0.00000000000E+00 0.  1.
         21    1    1    2  504  501 -0.77740208655E+02 -0.96354958076E+02 -0.24468631777E+03  0.27422474741E+03  0.00000000000E+00 0.  1.
         21    1    1    2  505  502  0.19273992108E+02  0.32512879062E+02 -0.29417950485E+02  0.47895614490E+02  0.00000000000E+00 0. -1.
          1    1    1    2  501    0  0.94152432007E+02  0.15124291651E+02  0.12722780210E+03  0.15899791910E+03  0.00000000000E+00 0. -1.
<scales pt_clust_3="62.01402" pt_clust_4="90.80962" pt_clust_5="37.79648" pt_clust_6="14000.00000"></scales>
<clustering>
<clus scale="   37.796">  2  5  1 -1</clus>
<clus scale="   62.014">  1  3  2 -1</clus>
<clus scale="   90.810">  2  4  1 -1</clus>
<clus scale="   37.796">  2  3  1 -1</clus>
</clustering>
</event>
<event>
 6    0  0.6525019E+002  0.1134832E+03  0.7546771E-02  0.1254252E+00
         -4   -1    0    0    0  501 -0.00000000000E+00  0.00000000000E+00  0.14800137106E+04  0.14800137106E+04  0.00000000000E+00 0. -1.
         21   -1    0    0  501  502  0.00000000000E+00 -0.00000000000E+00 -0.13254042579E+04  0.13254042579E+04  0.00000000000E+00 0.  1.
         21    1    1    2  503  502  0.22002387038E+02 -0.35707818350E+02 -0.82811767007E+03  0.82917912950E+03  0.00000000000E+00 0.  1.
         21    1    1    2  504  505 -0.17181565319E+03  0.75254756842E+02 -0.25018291446E+03  0.31269056237E+03  0.00000000000E+00 0.  1.
         21    1    1    2  505  503  0.38093023219E+02 -0.57357026780E+02 -0.20753944569E+03  0.21866304776E+03  0.00000000000E+00 0. -1.
         -4    1    1    2    0  504  0.11172024293E+03  0.17810088288E+02  0.14404494828E+04  0.14448852289E+04  0.00000000000E+00 0. -1.
<scales pt_clust_3="41.94226" pt_clust_4="113.48318" pt_clust_5="86.83863" pt_clust_6="14000.00000"></scales>
<clustering>
<clus scale="   41.942">  2  3  1 -1</clus>
<clus scale="   86.839">  2  5  1 -1</clus>
<clus scale="  113.483">  2  4  1 -1</clus>
<clus scale="   41.942">  2  3  1 -1</clus>
</clustering>
</event>
<event>
 6    0  0.6525019E+002  0.8932953E+02  0.7546771E-02  0.1304484E+00
         -3   -1    0    0    0  501 -0.00000000000E+00  0.00000000000E+00  0.18309042416E+03  0.18309042416E+03  0.00000000000E+00 0.  1.
         21   -1    0    0  505  502  0.00000000000E+00 -0.00000000000E+00 -0.63131890000E+03  0.63131890000E+03  0.00000000000E+00 0.  1.
         21    1    1    2  503  501 -0.27002464832E+02  0.77593942255E+02 -0.15536423681E+03  0.17574981952E+03  0.00000000000E+00 0. -1.
         21    1    1    2  504  503  0.28236231920E+02 -0.88750663741E+02 -0.28203813993E+03  0.29701763834E+03  0.00000000000E+00 0.  1.
         21    1    1    2  505  504 -0.29854621359E+02 -0.19871198470E+02 -0.17165714878E+03  0.17536345021E+03  0.00000000000E+00 0. -1.
         -3    1    1    2    0  502  0.28620854270E+02  0.31027919956E+02  0.16083104968E+03  0.16627841609E+03  0.00000000000E+00 0.  1.
<scales pt_clust_3="89.32953" pt_clust_4="14000.00000" pt_clust_5="35.86311" pt_clust_6="42.00509"></scales>
<clustering>
<clus scale="   35.863">  2  5  1 -1</clus>
<clus scale="   42.005">  1  6  2 -1</clus>
<clus scale="   89.330">  1  3  2 -1</clus>
<clus scale="   35.863">  2  3  1 -1</clus>
</clustering>
</event>
<event>
 6    0  0.6525019E+002  0.1515772E+03  0.7546771E-02  0.1198548E+00
         21   -1    0    0  505  502  0.00000000000E+00  0.00000000000E+00  0.12662284320E+04  0.12662284320E+04  0.00000000000E+00 0. -1.
          2   -1    0    0  504    0 -0.00000000000E+00 -0.00000000000E+00 -0.23344685537E+04  0.23344685537E+04  0.00000000000E+00 0. -1.
         21    1    1    2  503  502 -0.31751905771E+02 -0.10689170442E+02  0.65657274006E+03  0.65742695782E+03  0.00000000000E+00 0. -1.
         21    1    1    2  504  503 -0.97117441813E+02  0.85496277336E+02  0.14576807527E+03  0.19490957573E+03  0.00000000000E+00 0. -1.
         21    1    1    2  505  501  0.11863176091E+03 -0.12541224373E+03  0.42161217471E+03  0.45558594298E+03  0.00000000000E+00 0. -1.
          2    1    1    2  501    0  0.10237586679E+02  0.50605136832E+02 -0.22921931118E+04  0.22927745092E+04  0.00000000000E+00 0. -1.
<scales pt_clust_3="33.50286" pt_clust_4="14000.00000" pt_clust_5="151.57722" pt_clust_6="51.62230"></scales>
<clustering>
<clus scale="   33.503">  1  3  2 -1</clus>
<clus scale="   51.622">  2  6  1 -1</clus>
<clus scale="  151.577">  1  5  2 -1</clus>
<clus scale="   33.503">  1  3  2 -1</clus>
</clustering>
</event>
<event>
 6    0  0.6525019E+002  0.1285677E+03  0.7546771E-02  0.1229597E+00
         -2   -1    0    0    0  501 -0.00000000000E+00  0.00000000000E+00  0.29686103367E+03  0.29686103367E+03  0.00000000000E+00 0. -1.
         21   -1    0    0  503  502  0.00000000000E+00 -0.00000000000E+00 -0.30535751584E+03  0.30535751584E+03  0.00000000000E+00 0.  1.
         21    1    1    2  503  501 -0.84435475827E+02  0.19214079713E+02 -0.53661564009E+02  0.10187293011E+03  0.00000000000E+00 0.  1.
         21    1    1    2  504  505  0.43875968147E+02 -0.88992046756E+02  0.64507148309E+02  0.11834634405E+03  0.00000000000E+00 0. -1.
         21    1    1    2  505  502  0.78667658431E+02  0.13763226045E+03 -0.15747686684E+03  0.22345067283E+03  0.00000000000E+00 0.  1.
         -2    1    1    2    0  504 -0.38108150751E+02 -0.67854293403E+02  0.13813480037E+03  0.15854860252E+03  0.00000000000E+00 0. -1.
<scales pt_clust_3="90.99100" pt_clust_4="14000.00000" pt_clust_5="128.56768" pt_clust_6="77.82311"></scales>
<clustering>
<clus scale="   77.823">  1  6  2 -1</clus>
<clus scale="   90.991">  2  3  1 -1</clus>
<clus scale="  128.568">  2  5  1 -1</clus>
<clus scale="   90.991">  2  3  1 -1</clus>
</clustering>
</event>
<event>
 6    0  0.6525019E+002  0.1638369E+03  0.7546771E-02  0.1184432E+00
         21   -1    0    0  503  502  0.00000000000E+00  0.00000000000E+00  0.48915722593E+02  0.48915722593E+02  0.00000000000E+00 0.  1.
          3   -1    0    0  504    0 -0.00000000000E+00 -0.00000000000E+00 -0.19739919681E+04  0.19739919681E+04  0.00000000000E+00 0.  1.
         21    1    1    2  503  501 -0.10722528763E+03 -0.61509389306E+01 -0.82056752038E+03  0.82756640330E+03  0.00000000000E+00 0.  1.
         21    1    1    2  504  505  0.18403983765E+03  0.16507082224E+02 -0.39239332035E+03  0.43372302620E+03  0.00000000000E+00 0.  1.
         21    1    1    2  505  502 -0.40180566161E+02 -0.26473508579E+02  0.26093708193E+00  0.48118527010E+02  0.00000000000E+00 0.  1.
          3    1    1    2  501    0 -0.36633983858E+02  0.16117365286E+02 -0.71237634190E+03  0.71349973423E+03  0.00000000000E+00 0.  1.
<scales pt_clust_3="39.43476" pt_clust_4="150.56362" pt_clust_5="48.11782" pt_clust_6="39.43476"></scales>
<clustering>
<clus scale="   39.435">  3  6 -1 -1</clus>
<clus scale="   48.118">  1  5  2 -1</clus>
<clus scale="  150.564">  1  4  2 -1</clus>
<clus scale="   48.118">  1  3  2 -1</clus>
</clustering>
</event>
<event>
 6    0  0.6525019E+002  0.1150731E+03  0.7546771E-02  0.1251453E+00
         21   -1    0    0  501  502  0.00000000000E+00  0.00000000000E+00  0.50987587305E+02  0.50987587305E+02  0.00000000000E+00 0.  1.
          2   -1    0    0  505    0 -0.00000000000E+00 -0.00000000000E+00 -0.33718397657E+04  0.33718397657E+04  0.00000000000E+00 0.  1.
         21    1    1    2  503  504  0.68980414937E+02  0.39405933587E+02 -0.12713998979E+03  0.14991898562E+03  0.00000000000E+00 0.  1.
         21    1    1    2  504  502  0.81870014306E+01  0.67096411595E+02 -0.22904018701E+02  0.71369107561E+02  0.00000000000E+00 0.  1.
         21    1    1    2  505  503 -0.34571298686E+02 -0.19172502774E+03 -0.64131982501E+03  0.67025724831E+03  0.00000000000E+00 0.  1.
          2    1    1    2  501    0 -0.42596117682E+02  0.85222682558E+02 -0.25294883449E+04  0.25312820116E+04  0.00000000000E+00 0.  1.
<scales pt_clust_3="14000.00000" pt_clust_4="67.59405" pt_clust_5="115.07313" pt_clust_6="97.17219"></scales>
<clustering>
<clus scale="   67.594">  1  4  2 -1</clus>
<clus scale="   97.172">  2  6  1 -1</clus>
<clus scale="  115.073">  2  5  1 -1</clus>
<clus scale="   67.594">  1  3  2 -1</clus>
</clustering>
</event>
<event>
 6    0  0.6525019E+002  0.8291526E+02  0.7546771E-02  0.1320976E+00
         -1   -1    0    0    0  501 -0.00000000000E+00  0.00000000000E+00  0.13733133546E+03  0.13733133546E+03  0.00000000000E+00 0.  1.
         21   -1    0    0  504  502  0.00000000000E+00 -0.00000000000E+00 -0.16293824897E+03  0.16293824897E+03  0.00000000000E+00 0.  1.
         21    1    1    2  503  505  0.45635666528E+02 -0.94560786209E+02 -0.66755901836E+02  0.12442148841E+03  0.00000000000E+00 0.  1.
         21    1    1    2  504  503  0.17711900391E+02  0.37974056355E+02 -0.14302629529E+02  0.44275338315E+02  0.00000000000E+00 0.  1.
         21    1    1    2  505  501  0.12715661801E+02  0.35547194365E+02  0.31299623575E+02  0.49040366213E+02  0.00000000000E+00 0. -1.
         -1    1    1    2    0  502 -0.76063228720E+02  0.21039535489E+02  0.24151994284E+02  0.82532391488E+02  0.00000000000E+00 0.  1.
<scales pt_clust_3="14000.00000" pt_clust_4="47.70261" pt_clust_5="37.75303" pt_clust_6="82.91526"></scales>
<clustering>
<clus scale="   37.753">  1  5  2 -1</clus>
<clus scale="   47.703">  2  4  1 -1</clus>
<clus scale="   82.915">  1  6  2 -1</clus>
<clus scale="   47.703">  2  3  1 -1</clus>
</clustering>
</event>
<event>
 6    0  0.6525019E+002  0.1864474E+03  0.7546771E-02  0.1161705E+00
         21   -1    0    0  503  502  0.00000000000E+00  0.00000000000E+00  0.11505933353E+03  0.11505933353E+03  0.00000000000E+00 0. -1.
          2   -1    0    0  504    0 -0.00000000000E+00 -0.00000000000E+00 -0.82822030877E+03  0.82822030877E+03  0.00000000000E+00 0. -1.
         21    1    1    2  503  501  0.55702701970E+02 -0.61923369634E+02 -0.91168200170E+02  0.12348657998E+03  0.00000000000E+00 0. -1.
         21    1    1    2  504  505 -0.13958118648E+00  0.16498754432E+03 -0.29740221790E+03  0.34010143850E+03  0.00000000000E+00 0. -1.
         21    1    1    2  505  502 -0.16730024550E+03 -0.15313094243E+03 -0.17553602598E+03  0.28679496873E+03  0.00000000000E+00 0. -1.
          2    1    1    2  501    0  0.11173712472E+03  0.50066767744E+02 -0.14905453119E+03  0.19289665508E+03  0.00000000000E+00 0. -1.
<scales pt_clust_3="83.29042" pt_clust_4="186.44742" pt_clust_5="14000.00000" pt_clust_6="129.29591"></scales>
<clustering>
<clus scale="   83.290">  1  3  2 -1</clus>
<clus scale="  129.296">  2  6  1 -1</clus>
<clus scale="  186.447">  2  4  1 -1</clus>
<clus scale="   83.290">  1  3  2 -1</clus>
</clustering>
</event>
<event>
 6    0  0.6525019E+002  0.1245628E+03  0.7546771E-02  0.1235754E+00
         21   -1    0    0  505  502  0.00000000000E+00  0.00000000000E+00  0.12863496476E+04  0.12863496476E+04  0.00000000000E+00 0.  1.
          3   -1    0    0  504    0 -0.00000000000E+00 -0.00000000000E+00 -0.17696414517E+03  0.17696414517E+03  0.00000000000E+00 0. -1.
         21    1    1    2  503  502 -0.52295374088E+00  0.14094102572E+03  0.10346021701E+04  0.10441581760E+04  0.00000000000E+00 0.  1.
         21    1    1    2  504  503 -0.50335541434E+02 -0.75288864043E+02  0.13861096005E+03  0.16557499216E+03  0.00000000000E+00 0. -1.
         21    1    1    2  505  501  0.49378529146E+02  0.14616149736E+02  0.76319285646E+02  0.92067933263E+02  0.00000000000E+00 0. -1.
          3    1    1    2  501    0  0.14799660282E+01 -0.80268311414E+02 -0.14014691339E+03  0.16151269130E+03  0.00000000000E+00 0. -1.
<scales pt_clust_3="124.56283" pt_clust_4="14000.00000" pt_clust_5="51.49632" pt_clust_6="80.16139"></scales>
<clustering>
<clus scale="   51.496">  1  5  2 -1</clus>
<clus scale="   80.161">  2  6  1 -1</clus>
<clus scale="  124.563">  1  3  2 -1</clus>
<clus scale="   51.496">  1  3  2 -1</clus>
</clustering>
</event>
<event>
 6    0  0.6525019E+002  0.1229299E+03  0.7546771E-02  0.1238340E+00
         21   -1    0    0  505  502  0.00000000000E+00  0.00000000000E+00  0.17464763350E+03  0.17464763350E+03  0.00000000000E+00 0. -1.
          2   -1    0    0  503    0 -0.00000000000E+00 -0.00000000000E+00 -0.18259788300E+04  0.18259788300E+04  0.00000000000E+00 0. -1.
         21    1    1    2  503  502 -0.23208898348E+01  0.49985620514E+02 -0.35352421057E+02  0.61267793027E+02  0.00000000000E+00 0.  1.
         21    1    1    2  504  501 -0.50723962507E+02 -0.94454314457E+02 -0.81227911189E+02  0.13450840661E+03  0.00000000000E+00 0. -1.
         21    1    1    2  505  504 -0.40275495845E+02 -0.38467283464E+02  0.12686445636E+03  0.13855120984E+03  0.00000000000E+00 0. -1.
          2    1    1    2  501    0  0.93320348186E+02  0.82935977407E+02 -0.16616153206E+04  0.16662990540E+04  0.00000000000E+00 0. -1.
<scales pt_clust_3="50.03947" pt_clust_4="14000.00000" pt_clust_5="42.25791" pt_clust_6="122.92986"></scales>
<clustering>
<clus scale="   50.039">  1  3  2 -1</clus>
<clus scale="   42.258">  1  5  2 -1</clus>
<clus scale="  122.930">  2  6  1 -1</clus>
<clus scale="   50.039">  1  3  2 -1</clus>
</clustering>
</event>
<event>
 6    0  0.6525019E+002  0.1234062E+03  0.7546771E-02  0.1237581E+00
         21   -1    0    0  503  502  0.00000000000E+00  0.00000000000E+00  0.42284196630E+03  0.42284196630E+03  0.00000000000E+00 0.  1.
          2   -1    0    0  505    0 -0.00000000000E+00 -0.00000000000E+00 -0.60656383641E+03  0.60656383641E+03  0.00000000000E+00 0.  1.
         21    1    1    2  503  501  0.12584284193E+03  0.94384889056E+00  0.39630570631E+03  0.41580707614E+03  0.00000000000E+00 0.  1.
         21    1    1    2  504  502 -0.84945267481E+02  0.14703485536E+02 -0.14183692444E+03  0.16598073409E+03  0.00000000000E+00 0.  1.
         21    1    1    2  505  504 -0.96897850752E+01  0.30851795568E+02 -0.21958463225E+03  0.22195300391E+03  0.00000000000E+00 0.  1.
          2    1    1    2  501    0 -0.31207789375E+02 -0.46499129995E+02 -0.21860601973E+03  0.22566498858E+03  0.00000000000E+00 0.  1.
<scales pt_clust_3="123.40620" pt_clust_4="14000.00000" pt_clust_5="32.33768" pt_clust_6="46.67967"></scales>
<clustering>
<clus scale="   32.338">  2  5  1 -1</clus>
<clus scale="   46.680">  2  6  1 -1</clus>
<clus scale="  123.406">  1  3  2 -1</clus>
<clus scale="  123.406">  1  3  2 -1</clus>
</clustering>
</event>
<event>
 6    0  0.6525019E+002  0.1036007E+03  0.7546771E-02  0.1272901E+00
         21   -1    0    0  505  502  0.00000000000E+00  0.00000000000E+00  0.56823418928E+03  0.56823418928E+03  0.00000000000E+00 0. -1.
          2   -1    0    0  504    0 -0.00000000000E+00 -0.00000000000E+00 -0.11296845813E+04  0.11296845813E+04  0.00000000000E+00 0. -1.
         21    1    1    2  503  502 -0.89145000824E+02 -0.39016856586E+02  0.38138792691E+03  0.39360627162E+03  0.00000000000E+00 0. -1.
         21    1    1    2  504  503  0.12700244015E+03  0.82923180383E+02  0.82752205283E+02  0.17278252553E+03  0.00000000000E+00 0. -1.
         21    1    1    2  505  501 -0.75293770558E+02 -0.45079585150E+02  0.16052951738E+02  0.89213329394E+02  0.00000000000E+00 0. -1.
          2    1    1    2  501    0  0.37436331231E+02  0.11732613532E+01 -0.10416434759E+04  0.10423166440E+04  0.00000000000E+00 0. -1.
<scales pt_clust_3="103.60071" pt_clust_4="14000.00000" pt_clust_5="74.49799" pt_clust_6="37.45471"></scales>
<clustering>
<clus scale="   37.455">  2  6  1 -1</clus>
<clus scale="   74.498">  2  5  1 -1</clus>
<clus scale="  103.601">  1  3  2 -1</clus>
<clus scale="  103.601">  1  3  2 -1</clus>
</clustering>
</event>
<event>
 6    0  0.6525019E+002  0.9896973E+02  0.7546771E-02  0.1282477E+00
         21   -1    0    0  503  502  0.00000000000E+00  0.00000000000E+00  0.64674231882E+03  0.64674231882E+03  0.00000000000E+00 0. -1.
          1   -1    0    0  505    0 -0.00000000000E+00 -0.00000000000E+00 -0.15341686794E+04  0.15341686794E+04  0.00000000000E+00 0. -1.
         21    1    1    2  503  504 -0.16580833026E+00 -0.38368649559E+02  0.45618986542E+03  0.45780058330E+03  0.00000000000E+00 0. -1.
         21    1    1    2  504  501  0.12140286403E+03 -0.32874127112E+02  0.27135673582E+02  0.12866898775E+03  0.00000000000E+00 0. -1.
         21    1    1    2  505  502 -0.82326409866E+02  0.53153999468E+02  0.90004092645E+02  0.13305533478E+03  0.00000000000E+00 0. -1.
          1    1    1    2  501    0 -0.38910645831E+02  0.18088777204E+02 -0.14607559922E+04  0.14613860924E+04  0.00000000000E+00 0. -1.
<scales pt_clust_3="38.36901" pt_clust_4="98.96973" pt_clust_5="14000.00000" pt_clust_6="42.88313"></scales>
<clustering>
<clus scale="   38.369">  1  3  2 -1</clus>
<clus scale="   42.883">  2  6  1 -1</clus>
<clus scale="   98.970">  2  4  1 -1</clus>
<clus scale="   38.369">  1  3  2 -1</clus>
</clustering>
</event>
<event>
 6    0  0.6525019E+002  0.2490409E+03  0.7546771E-02  0.1113912E+00
         21   -1    0    0  504  502  0.00000000000E+00  0.00000000000E+00  0.81770458020E+03  0.81770458020E+03  0.00000000000E+00 0. -1.
          2   -1    0    0  503    0 -0.00000000000E+00 -0.00000000000E+00 -0.14573089233E+04  0.14573089233E+04  0.00000000000E+00 0. -1.
         21    1    1    2  503  502 -0.13910200588E+03  0.22743106178E+03  0.23812971626E+02  0.26765895000E+03  0.00000000000E+00 0. -1.
         21    1    1    2  504  505 -0.75517448563E+02  0.11908650739E+03  0.43241367973E+03  0.45482531998E+03  0.00000000000E+00 0. -1.
         21    1    1    2  505  501  0.95156722446E+02 -0.12960378508E+03  0.18665307721E+03  0.24635607191E+03  0.00000000000E+00 0.  1.
          2    1    1    2  501    0  0.11946273200E+03 -0.21691378408E+03 -0.12824840716E+04  0.13061731616E+04  0.00000000000E+00 0. -1.
<scales pt_clust_3="249.04094" pt_clust_4="141.01234" pt_clust_5="79.55752" pt_clust_6="14000.00000"></scales>
<clustering>
<clus scale="  141.012">  1  4  2 -1</clus>
<clus scale="   79.558">  1  5  2 -1</clus>
<clus scale="  249.041">  1  3  2 -1</clus>
<clus scale="  141.012">  1  3  2 -1</clus>
</clustering>
</event>
<event>
 6    0  0.6525019E+002  0.8454586E+02  0.7546771E-02  0.1316624E+00
         -4   -1    0    0    0  501 -0.00000000000E+00  0.00000000000E+00  0.34002281203E+03  0.34002281203E+03  0.00000000000E+00 0. -1.
         21   -1    0    0  503  502  0.00000000000E+00 -0.00000000000E+00 -0.59565012487E+03  0.59565012487E+03  0.00000000000E+00 0. -1.
         21    1    1    2  503  504 -0.81539262173E+02  0.25200840879E+02 -0.34476699658E+03  0.35517321913E+03  0.00000000000E+00 0. -1.
         21    1    1    2  504  501 -0.46982897344E+02 -0.75382080248E+02 -0.43778490768E+02  0.99027303909E+02  0.00000000000E+00 0. -1.
         21    1    1    2  505  502  0.90512856332E+02  0.32237878681E+02 -0.15941573004E+03  0.18613229963E+03  0.00000000000E+00 0. -1.
         -4    1    1    2    0  505  0.38009303185E+02  0.17943360688E+02  0.29233390454E+03  0.29534011422E+03  0.00000000000E+00 0. -1.
<scales pt_clust_3="84.54586" pt_clust_4="69.04796" pt_clust_5="14000.00000" pt_clust_6="42.03179"></scales>
<clustering>
<clus scale="   42.032">  1  6  2 -1</clus>
<clus scale="   69.048">  1  4  2 -1</clus>
<clus scale="   84.546">  2  3  1 -1</clus>
<clus scale="   84.546">  2  3  1 -1</clus>
</clustering>
</event>
<event>
 6    0  0.6525019E+002  0.1267619E+03  0.7546771E-02  0.1232341E+00
         21   -1    0    0  504  502  0.00000000000E+00  0.00000000000E+00  0.18554248980E+03  0.18554248980E+03  0.00000000000E+00 0. -1.
          2   -1    0    0  503    0 -0.00000000000E+00 -0.00000000000E+00 -0.24904954905E+04  0.24904954905E+04  0.00000000000E+00 0. -1.
         21    1    1    2  503  505 -0.63502408784E+02  0.28287863020E+00 -0.20773822738E+03  0.21722754673E+03  0.00000000000E+00 0.  1.
         21    1    1    2  504  501  0.10781790562E+03  0.22409327482E+02  0.33218398231E+01  0.11017219863E+03  0.00000000000E+00 0. -1.
         21    1    1    2  505  502  0.23029893308E+02 -0.23990486785E+02  0.12130244692E+03  0.12577838872E+03  0.00000000000E+00 0. -1.
          2    1    1    2  501    0 -0.67345390147E+02  0.12982806734E+01 -0.22218390601E+04  0.22228598463E+04  0.00000000000E+00 0. -1.
<scales pt_clust_3="61.75959" pt_clust_4="126.76191" pt_clust_5="33.25537" pt_clust_6="14000.00000"></scales>
<clustering>
<clus scale="   33.255">  1  5  2 -1</clus>
<clus scale="   61.760">  2  3  1 -1</clus>
<clus scale="  126.762">  1  4  2 -1</clus>
<clus scale="   33.255">  1  3  2 -1</clus>
</clustering>
</event>
<event>
 6    0  0.6525019E+002  0.1045256E+03  0.7546771E-02  0.1271057E+00
         21   -1    0    0  503  502  0.00000000000E+00  0.00000000000E+00  0.25890922030E+03  0.25890922030E+03  0.00000000000E+00 0. -1.
          2   -1    0    0  504    0 -0.00000000000E+00 -0.00000000000E+00 -0.15704225780E+04  0.15704225780E+04  0.00000000000E+00 0. -1.
         21    1    1    2  503  501  0.55924728357E+02 -0.98530578705E+02  0.83449066760E+02  0.14071104052E+03  0.00000000000E+00 0. -1.
         21    1    1    2  504  505 -0.23953268638E+02 -0.27254957279E+02 -0.47928988947E+02  0.60114721626E+02  0.00000000000E+00 0. -1.
         21    1    1    2  505  502  0.30714818049E+02  0.10879160395E+03  0.11719942969E+03  0.16283341014E+03  0.00000000000E+00 0. -1.
          2    1    1    2  501    0 -0.62686277768E+02  0.16993932034E+02 -0.14642328652E+04  0.14656726260E+04  0.00000000000E+00 0. -1.
<scales pt_clust_3="104.52558" pt_clust_4="36.28487" pt_clust_5="14000.00000" pt_clust_6="86.33318"></scales>
<clustering>
<clus scale="   36.285">  2  4  1 -1</clus>
<clus scale="   86.333">  2  6  1 -1</clus>
<clus scale="  104.526">  2  3  1 -1</clus>
<clus scale="  104.526">  1  3  2 -1</clus>
</clustering>
</event>
<event>
 6    0  0.6525019E+002  0.1421294E+03  0.7546771E-02  0.1210492E+00
         21   -1    0    0  504  502  0.00000000000E+00  0.00000000000E+00  0.35716390028E+03  0.35716390028E+03  0.00000000000E+00 0.  1.
         -2   -1    0    0    0  501 -0.00000000000E+00 -0.00000000000E+00 -0.53814360105E+03  0.53814360105E+03  0.00000000000E+00 0.  1.
         21    1    1    2  503  501 -0.10693739222E+03  0.56930145584E+01  0.17378902987E+02  0.10848982689E+03  0.00000000000E+00 0.  1.
         21    1    1    2  504  505  0.28574370801E+02 -0.98575596322E+01  0.25483348956E+01  0.30334141809E+02  0.00000000000E+00 0.  1.
         21    1    1    2  505  503  0.15046626240E+03  0.30470450672E+02  0.25310766651E+03  0.29602708547E+03  0.00000000000E+00 0.  1.
         -2    1    1    2    0  502 -0.72103240978E+02 -0.26305905598E+02 -0.45401460517E+03  0.46045644717E+03  0.00000000000E+00 0.  1.
<scales pt_clust_3="14000.00000" pt_clust_4="30.22691" pt_clust_5="142.12941" pt_clust_6="76.53045"></scales>
<clustering>
<clus scale="   30.227">  1  4  2 -1</clus>
<clus scale="   76.530">  2  6  1 -1</clus>
<clus scale="  142.129">  1  5  2 -1</clus>
<clus scale="   30.227">  1  3  2 -1</clus>
</clustering>
</event>
<event>
 6    0  0.6525019E+002  0.2541479E+03  0.7546771E-02  0.1110711E+00
          2   -1    0    0  504    0 -0.00000000000E+00  0.00000000000E+00  0.10122885308E+04  0.10122885308E+04  0.00000000000E+00 0. -1.
         21   -1    0    0  503  502  0.00000000000E+00 -0.00000000000E+00 -0.12920912249E+04  0.12920912249E+04  0.00000000000E+00 0. -1.
         21    1    1    2  503  505 -0.16634046339E+02  0.29232593225E+02 -0.10235282141E+04  0.10240806809E+04  0.00000000000E+00 0. -1.
         21    1    1    2  504  502 -0.17435480784E+03  0.15780210395E+03 -0.16391228313E+03  0.28665020424E+03  0.00000000000E+00 0.  1.
         21    1    1    2  505  501  0.19080451277E+03 -0.12908916297E+03  0.27665793435E+03  0.36001387020E+03  0.00000000000E+00 0. -1.
          2    1    1    2  501    0  0.18434140866E+00 -0.57945534204E+02  0.63097986873E+03  0.63363500034E+03  0.00000000000E+00 0. -1.
<scales pt_clust_3="33.63385" pt_clust_4="14000.00000" pt_clust_5="254.14792" pt_clust_6="57.80097"></scales>
<clustering>
<clus scale="   33.634">  2  3  1 -1</clus>
<clus scale="   57.801">  1  6  2 -1</clus>
<clus scale="  254.148">  1  5  2 -1</clus>
<clus scale="   33.634">  2  3  1 -1</clus>
</clustering>
</event>
<event>
 6    0  0.6525019E+002  0.1237851E+03  0.7546771E-02  0.1236980E+00
         21   -1    0    0  504  502  0.00000000000E+00  0.00000000000E+00  0.55976498262E+03  0.55976498262E+03  0.00000000000E+00 0. -1.
          1   -1    0    0  505    0 -0.00000000000E+00 -0.00000000000E+00 -0.12179458048E+04  0.12179458048E+04  0.00000000000E+00 0. -1.
         21    1    1    2  503  502  0.10586041944E+02 -0.11266689755E+03  0.26493237441E+03  0.28808862716E+03  0.00000000000E+00 0. -1.
         21    1    1    2  504  501 -0.15703797288E+02  0.13899567678E+03  0.26153251417E+03  0.29659005948E+03  0.00000000000E+00 0. -1.
         21    1    1    2  505  503  0.34668987285E+02 -0.54436819916E+02 -0.27496886922E+03  0.28244147196E+03  0.00000000000E+00 0. -1.
          1    1    1    2  501    0 -0.29551231941E+02  0.28108040687E+02 -0.90967684157E+03  0.91059062885E+03  0.00000000000E+00 0. -1.
<scales pt_clust_3="14000.00000" pt_clust_4="123.78512" pt_clust_5="30.04713" pt_clust_6="40.78403"></scales>
<clustering>
<clus scale="   40.784">  2  6  1 -1</clus>
<clus scale="   30.047">  2  5  1 -1</clus>
<clus scale="  123.785">  2  4  1 -1</clus>
<clus scale="  123.785">  1  3  2 -1</clus>
</clustering>
</event>
<event>
 6    0  0.6525019E+002  0.1274140E+03  0.7546771E-02  0.1231344E+00
          2   -1    0    0  504    0 -0.00000000000E+00  0.00000000000E+00  0.30063600411E+04  0.30063600411E+04  0.00000000000E+00 0.  1.
         21   -1    0    0  505  502  0.00000000000E+00 -0.00000000000E+00 -0.10162195466E+04  0.10162195466E+04  0.00000000000E+00 0. -1.
         21    1    1    2  503  501  0.95870299012E+02 -0.66799207086E+02  0.58342069364E+02  0.13060262385E+03  0.00000000000E+00 0. -1.
         21    1    1    2  504  502  0.33821218218E+02 -0.31434982897E+01 -0.38139278317E+03  0.38290235235E+03  0.00000000000E+00 0.  1.
         21    1    1    2  505  503 -0.42495243173E+01  0.43601167911E+02 -0.59572610149E+03  0.59733467026E+03  0.00000000000E+00 0. -1.
          2    1    1    2  501    0 -0.12544199291E+03  0.26341537466E+02  0.29089173097E+04  0.29117399412E+04  0.00000000000E+00 0.  1.
<scales pt_clust_3="127.41405" pt_clust_4="33.96699" pt_clust_5="49.11192" pt_clust_6="14000.00000"></scales>
<clustering>
<clus scale="   33.967">  2  4  1 -1</clus>
<clus scale="   49.112">  2  5  1 -1</clus>
<clus scale="  127.414">  2  3  1 -1</clus>
<clus scale="   33.967">  2  3  1 -1</clus>
</clustering>
</event>
<event>
 6    0  0.6525019E+002  0.9687969E+02  0.7546771E-02  0.1286998E+00
         -2   -1    0    0    0  501 -0.00000000000E+00  0.00000000000E+00  0.54832410996E+03  0.54832410996E+03  0.00000000000E+00 0.  1.
         21   -1    0    0  505  502  0.00000000000E+00 -0.00000000000E+00 -0.11144173423E+03  0.11144173423E+03  0.00000000000E+00 0. -1.
         21    1    1    2  503  502  0.44253159863E+02  0.58814649674E+02  0.20853746894E+02  0.76500875378E+02  0.00000000000E+00 0. -1.
         21    1    1    2  504  503  0.69634105567E+02 -0.41814351814E+02  0.17690769739E+03  0.19466299615E+03  0.00000000000E+00 0.  1.
         21    1    1    2  505  501 -0.96360791312E+02  0.40026312252E+02 -0.33453655670E+02  0.10957488240E+03  0.00000000000E+00 0. -1.
         -2    1    1    2    0  504 -0.17526474118E+02 -0.57026610112E+02  0.27257458712E+03  0.27902709026E+03  0.00000000000E+00 0.  1.
<scales pt_clust_3="63.68535" pt_clust_4="14000.00000" pt_clust_5="96.87969" pt_clust_6="59.65913"></scales>
<clustering>
<clus scale="   59.659">  1  6  2 -1</clus>
<clus scale="   63.685">  2  3  1 -1</clus>
<clus scale="   96.880">  2  5  1 -1</clus>
<clus scale="   63.685">  2  3  1 -1</clus>
</clustering>
</event>
<event>
 6    0  0.6525019E+002  0.1472775E+03  0.7546771E-02  0.1203859E+00
         21   -1    0    0  505  502  0.00000000000E+00  0.00000000000E+00  0.86686283977E+03  0.86686283977E+03  0.00000000000E+00 0. -1.
          2   -1    0    0  504    0 -0.00000000000E+00 -0.00000000000E+00 -0.17194365012E+04  0.17194365012E+04  0.00000000000E+00 0.  1.
         21    1    1    2  503  502  0.13419926531E+03  0.80305031312E+02  0.68622600108E+03  0.70382133061E+03  0.00000000000E+00 0. -1.
         21    1    1    2  504  503 -0.35067169921E+02  0.12095425257E+02 -0.17594067076E+02  0.41055534520E+02  0.00000000000E+00 0.  1.
         21    1    1    2  505  501 -0.38901586632E+02  0.32096169545E+02  0.15321398692E+03  0.16130103325E+03  0.00000000000E+00 0. -1.
          2    1    1    2  501    0 -0.60230508757E+02 -0.12449662611E+03 -0.16744195824E+04  0.16801214426E+04  0.00000000000E+00 0.  1.
<scales pt_clust_3="14000.00000" pt_clust_4="37.09455" pt_clust_5="50.51624" pt_clust_6="147.27749"></scales>
<clustering>
<clus scale="   37.095">  2  4  1 -1</clus>
<clus scale="   50.516">  1  5  2 -1</clus>
<clus scale="  147.277">  2  6  1 -1</clus>
<clus scale="   50.516">  1  3  2 -1</clus>
</clustering>
</event>
<event>
 6    0  0.6525019E+002  0.2145462E+03  0.7546771E-02  0.1138016E+00
         -1   -1    0    0    0  501 -0.00000000000E+00  0.00000000000E+00  0.13758678846E+03  0.13758678846E+03  0.00000000000E+00 0.  1.
         21   -1    0    0  504  502  0.00000000000E+00 -0.00000000000E+00 -0.14936336562E+04  0.14936336562E+04  0.00000000000E+00 0.  1.
         21    1    1    2  503  505 -0.14166993216E+03  0.20587944919E+03 -0.37726953362E+03  0.45253620659E+03  0.00000000000E+00 0.  1.
         21    1    1    2  504  503 -0.13290404050E+02 -0.84377726912E+02 -0.48189735284E+03  0.48940912773E+03  0.00000000000E+00 0.  1.
         21    1    1    2  505  501 -0.89657322244E+02 -0.18749645124E+03 -0.31501851763E+03  0.37739902108E+03  0.00000000000E+00 0.  1.
         -1    1    1    2    0  502  0.24461765846E+03  0.65994728963E+02 -0.18186146363E+03  0.31187608923E+03  0.00000000000E+00 0.  1.
<scales pt_clust_3="225.70331" pt_clust_4="85.41801" pt_clust_5="214.54621" pt_clust_6="14000.00000"></scales>
<clustering>
<clus scale="   85.418">  2  4  1 -1</clus>
<clus scale="  225.703">  2  3  1 -1</clus>
<clus scale="  214.546">  2  5  1 -1</clus>
<clus scale="   85.418">  2  3  1 -1</clus>
</clustering>
</event>
<event>
 6    0  0.6525019E+002  0.1247718E+03  0.7546771E-02  0.1235426E+00
         21   -1    0    0  504  502  0.00000000000E+00  0.00000000000E+00  0.18982746135E+02  0.18982746135E+02  0.00000000000E+00 0.  1.
         -3   -1    0    0    0  501 -0.00000000000E+00 -0.00000000000E+00 -0.21650127869E+04  0.21650127869E+04  0.00000000000E+00 0.  1.
         21    1    1    2  503  502  0.10522160261E+03 -0.70607942363E+02 -0.58131872121E+03  0.59496934611E+03  0.00000000000E+00 0.  1.
         21    1    1    2  504  505 -0.81133138479E+01 -0.35625799998E+02 -0.85985256660E+02  0.93426376629E+02  0.00000000000E+00 0. -1.
         21    1    1    2  505  501 -0.10466144986E+03  0.69948474712E+02 -0.48145142581E+03  0.49763669842E+03  0.00000000000E+00 0.  1.
         -3    1    1    2    0  503  0.75531611012E+01  0.36285267648E+02 -0.99727463709E+03  0.99796311188E+03  0.00000000000E+00 0.  1.
<scales pt_clust_3="14000.00000" pt_clust_4="36.53797" pt_clust_5="124.77176" pt_clust_6="36.23910"></scales>
<clustering>
<clus scale="   36.538">  1  4  2 -1</clus>
<clus scale="   36.239">  2  6  1 -1</clus>
<clus scale="  124.772">  1  5  2 -1</clus>
<clus scale="   36.538">  1  3  2 -1</clus>
</clustering>
</event>
<event>
 6    0  0.6525019E+002  0.7112078E+02  0.7546771E-02  0.1356323E+00
         21   -1    0    0  505  502  0.00000000000E+00  0.00000000000E+00  0.15828735935E+03  0.15828735935E+03  0.00000000000E+00 0.  1.
          2   -1    0    0  504    0 -0.00000000000E+00 -0.00000000000E+00 -0.23163311552E+03  0.23163311552E+03  0.00000000000E+00 0.  1.
         21    1    1    2  503  501 -0.83489873008E+02 -0.14043059910E+02  0.57485485926E+01  0.84857599763E+02  0.00000000000E+00 0.  1.
         21    1    1    2  504  502  0.50827171055E+02 -0.36764631389E+02 -0.12665736926E+03  0.14134047059E+03  0.00000000000E+00 0.  1.
         21    1    1    2  505  503  0.63624307386E+02  0.22040493273E+02  0.84184497960E+02  0.10780011842E+03  0.00000000000E+00 0.  1.
          2    1    1    2  501    0 -0.30961605432E+02  0.28767198026E+02 -0.36621433458E+02  0.55922286092E+02  0.00000000000E+00 0.  1.
<scales pt_clust_3="71.12078" pt_clust_4="32.62062" pt_clust_5="14000.00000" pt_clust_6="42.26314"></scales>
<clustering>
<clus scale="   42.263">  2  6  1 -1</clus>
<clus scale="   32.621">  2  4  1 -1</clus>
<clus scale="   71.121">  2  3  1 -1</clus>
<clus scale="   71.121">  1  3  2 -1</clus>
</clustering>
</event>
<event>
 6    0  0.6525019E+002  0.1601180E+03  0.7546771E-02  0.1188564E+00
          4   -1    0    0  503    0 -0.00000000000E+00  0.00000000000E+00  0.15501695095E+04  0.15501695095E+04  0.00000000000E+00 0. -1.
         21   -1    0    0  504  502  0.00000000000E+00 -0.00000000000E+00 -0.92525227047E+02  0.92525227047E+02  0.00000000000E+00 0. -1.
         21    1    1    2  503  502  0.47569840041E+02  0.10338064951E+01  0.18118531540E+03  0.18732879372E+03  0.00000000000E+00 0. -1.
         21    1    1    2  504  505 -0.13647996867E+03 -0.10998484295E+03  0.24688093379E+02  0.17701115638E+03  0.00000000000E+00 0. -1.
         21    1    1    2  505  501  0.27988558278E+02  0.12820477768E+03  0.34149894112E+03  0.36584334243E+03  0.00000000000E+00 0. -1.
          4    1    1    2  501    0  0.60921570348E+02 -0.19253741227E+02  0.91027193258E+03  0.91251144406E+03  0.00000000000E+00 0. -1.
<scales pt_clust_3="47.58107" pt_clust_4="160.11801" pt_clust_5="14000.00000" pt_clust_6="94.50334"></scales>
<clustering>
<clus scale="   47.581">  1  3  2 -1</clus>
<clus scale="   94.503">  1  6  2 -1</clus>
<clus scale="  160.118">  2  4  1 -1</clus>
<clus scale="  160.118">  2  3  1 -1</clus>
</clustering>
</event>
<event>
 6    0  0.6525019E+002  0.1694035E+03  0.7546771E-02  0.1178471E+00
          2   -1    0    0  502    0 -0.00000000000E+00  0.00000000000E+00  0.27756144308E+04  0.27756144308E+04  0.00000000000E+00 0.  1.
         21   -1    0    0  503  502  0.00000000000E+00 -0.00000000000E+00 -0.25272880609E+03  0.25272880609E+03  0.00000000000E+00 0.  1.
         21    1    1    2  503  505 -0.14978923941E+02  0.29832978467E+02 -0.90673227595E+02  0.96623025047E+02  0.00000000000E+00 0.  1.
         21    1    1    2  504  501  0.28092681958E+03 -0.10058939333E+03  0.76154963762E+03  0.81792172887E+03  0.00000000000E+00 0. -1.
         21    1    1    2  505  504 -0.11084969626E+03  0.54580683698E+02 -0.97913222824E+02  0.15765058007E+03  0.00000000000E+00 0.  1.
          2    1    1    2  501    0 -0.15509819938E+03  0.16175731164E+02  0.19499224376E+04  0.19561479029E+04  0.00000000000E+00 0.  1.
<scales pt_clust_3="33.38225" pt_clust_4="14000.00000" pt_clust_5="145.83912" pt_clust_6="169.40353"></scales>
<clustering>
<clus scale="   33.382">  2  3  1 -1</clus>
<clus scale="  145.839">  2  5  1 -1</clus>
<clus scale="  169.404">  1  6  2 -1</clus>
<clus scale="   33.382">  2  3  1 -1</clus>
</clustering>
</event>
<event>
 6    0  0.6525019E+002  0.8662496E+02  0.7546771E-02  0.1311237E+00
         21   -1    0    0  505  502  0.00000000000E+00  0.00000000000E+00  0.84770421656E+02  0.84770421656E+02  0.00000000000E+00 0.  1.
          2   -1    0    0  504    0 -0.00000000000E+00 -0.00000000000E+00 -0.22617061846E+04  0.22617061846E+04  0.00000000000E+00 0. -1.
         21    1    1    2  503  501  0.48581016175E+02  0.56127944984E+02  0.15622916292E+02  0.75858663673E+02  0.00000000000E+00 0.  1.
         21    1    1    2  504  502  0.47909304933E+02 -0.11009483692E+03 -0.24228081036E+03  0.27040001051E+03  0.00000000000E+00 0. -1.
         21    1    1    2  505  503 -0.12954305542E+02  0.29416755286E+02  0.13245568281E+02  0.34764991050E+02  0.00000000000E+00 0.  1.
          2    1    1    2  501    0 -0.83536015567E+02  0.24550136650E+02 -0.19635234371E+04  0.19654529410E+04  0.00000000000E+00 0. -1.
<scales pt_clust_3="87.37360" pt_clust_4="14000.00000" pt_clust_5="32.14280" pt_clust_6="86.62496"></scales>
<clustering>
<clus scale="   32.143">  1  5  2 -1</clus>
<clus scale="   87.374">  1  3  2 -1</clus>
<clus scale="   86.625">  2  6  1 -1</clus>
<clus scale="   32.143">  1  3  2 -1</clus>
</clustering>
</event>
<event>
 6    0  0.3252493E+003  0.1147042E+03  0.7546771E-02  0.1252098E+00
         21   -1    0    0  503  502  0.00000000000E+00  0.00000000000E+00  0.19285562824E+04  0.19285562824E+04  0.00000000000E+00 0. -1.
         -2   -1    0    0    0  501 -0.00000000000E+00 -0.00000000000E+00 -0.73105040710E+03  0.73105040710E+03  0.00000000000E+00 0.  1.
         21    1    1    2  503  501 -0.74278644683E+02 -0.16146455940E+02  0.15444317967E+04  0.15463012642E+04  0.00000000000E+00 0. -1.
         21    1    1    2  504  502  0.30788993959E+01  0.43802209008E+02  0.18699645172E+03  0.19208275844E+03  0.00000000000E+00 0.  1.
         21    1    1    2  505  504 -0.46732979666E+01 -0.11450032048E+03  0.17159536701E+03  0.20634227168E+03  0.00000000000E+00 0. -1.
         -2    1    1    2    0  505  0.75873043253E+02  0.86844567417E+02 -0.70551774018E+03  0.71488039510E+03  0.00000000000E+00 0.  1.
<scales pt_clust_3="75.08119" pt_clust_4="43.91029" pt_clust_5="114.70416" pt_clust_6="14000.00000"></scales>
<clustering>
<clus scale="   43.910">  1  4  2 -1</clus>
<clus scale="   75.081">  1  3  2 -1</clus>
<clus scale="  114.704">  1  5  2 -1</clus>
<clus scale="   43.910">  1  3  2 -1</clus>
</clustering>
</event>
<event>
 6    0  0.6525019E+002  0.1655675E+03  0.7546771E-02  0.1182551E+00
          2   -1    0    0  503    0 -0.00000000000E+00  0.00000000000E+00  0.21371916252E+04  0.21371916252E+04  0.00000000000E+00 0.  1.
         21   -1    0    0  505  502  0.00000000000E+00 -0.00000000000E+00 -0.10557400220E+03  0.10557400220E+03  0.00000000000E+00 0. -1.
         21    1    1    2  503  504  0.33320621487E+02 -0.24584689938E+02 -0.42925188640E+01  0.41630475782E+02  0.00000000000E+00 0. -1.
         21    1    1    2  504  502 -0.32835515543E+02  0.10971566901E+02 -0.20071535154E+02  0.40017657161E+02  0.00000000000E+00 0. -1.
         21    1    1    2  505  501 -0.84743215266E+02  0.15521667090E+03  0.11019501759E+03  0.20836643051E+03  0.00000000000E+00 0.  1.
          2    1    1    2  501    0  0.84258109321E+02 -0.14160354787E+03  0.19457866594E+04  0.19527510640E+04  0.00000000000E+00 0.  1.
<scales pt_clust_3="31.56281" pt_clust_4="34.62003" pt_clust_5="165.56753" pt_clust_6="14000.00000"></scales>
<clustering>
<clus scale="   34.620">  2  4  1 -1</clus>
<clus scale="   31.563">  2  3  1 -1</clus>
<clus scale="  165.568">  2  5  1 -1</clus>
<clus scale="   34.620">  2  3  1 -1</clus>
</clustering>
</event>
<event>
 6    0  0.6525019E+002  0.8587975E+02  0.7546771E-02  0.1313148E+00
          4   -1    0    0  503    0 -0.00000000000E+00  0.00000000000E+00  0.16850508736E+03  0.16850508736E+03  0.00000000000E+00 0. -1.
         21   -1    0    0  504  502  0.00000000000E+00 -0.00000000000E+00 -0.25519998497E+04  0.25519998497E+04  0.00000000000E+00 0. -1.
         21    1    1    2  503  502 -0.31941657814E+02 -0.12260332717E+03 -0.13695675822E+03  0.18657169925E+03  0.00000000000E+00 0. -1.
         21    1    1    2  504  505  0.33630527394E+02 -0.25173864787E+02 -0.56289422588E+03  0.56445960473E+03  0.00000000000E+00 0.  1.
         21    1    1    2  505  501 -0.42340637651E+02  0.10554634569E+03 -0.18186964672E+04  0.18222485013E+04  0.00000000000E+00 0. -1.
          4    1    1    2  501    0  0.40651768072E+02  0.42230846269E+02  0.13505268897E+03  0.14722513177E+03  0.00000000000E+00 0. -1.
<scales pt_clust_3="14000.00000" pt_clust_4="42.00876" pt_clust_5="85.87975" pt_clust_6="58.63351"></scales>
<clustering>
<clus scale="   42.009">  2  4  1 -1</clus>
<clus scale="   58.634">  1  6  2 -1</clus>
<clus scale="   85.880">  2  5  1 -1</clus>
<clus scale="   42.009">  2  3  1 -1</clus>
</clustering>
</event>
<event>
 6    0  0.6525019E+002  0.8197330E+02  0.7546771E-02  0.1323543E+00
         21   -1    0    0  505  502  0.00000000000E+00  0.00000000000E+00  0.17758474739E+03  0.17758474739E+03  0.00000000000E+00 0.  1.
          1   -1    0    0  504    0 -0.00000000000E+00 -0.00000000000E+00 -0.22056302897E+03  0.22056302897E+03  0.00000000000E+00 0.  1.
         21    1    1    2  503  501 -0.35439351727E+02  0.99144615753E+02 -0.75328017798E+02  0.12946008168E+03  0.00000000000E+00 0.  1.
         21    1    1    2  504  502  0.80724938688E+02  0.30690613766E+01  0.93407342277E+02  0.12349439848E+03  0.00000000000E+00 0.  1.
         21    1    1    2  505  503 -0.15392387680E+02 -0.59911701683E+02  0.40553472259E+01  0.61990188241E+02  0.00000000000E+00 0.  1.
          1    1    1    2  501    0 -0.29893199281E+02 -0.42301975447E+02 -0.65112953281E+02  0.83203107965E+02  0.00000000000E+00 0.  1.
<scales pt_clust_3="14000.00000" pt_clust_4="81.97330" pt_clust_5="71.52867" pt_clust_6="51.79827"></scales>
<clustering>
<clus scale="   51.798">  2  6  1 -1</clus>
<clus scale="   71.529">  1  5  2 -1</clus>
<clus scale="   81.973">  1  4  2 -1</clus>
<clus scale="   71.529">  1  3  2 -1</clus>
</clustering>
</event>
<event>
 6    0  0.6525019E+002  0.8588715E+02  0.7546771E-02  0.1313129E+00
         21   -1    0    0  503  502  0.00000000000E+00  0.00000000000E+00  0.38193155843E+03  0.38193155843E+03  0.00000000000E+00 0. -1.
          3   -1    0    0  504    0 -0.00000000000E+00 -0.00000000000E+00 -0.38457953140E+04  0.38457953140E+04  0.00000000000E+00 0. -1.
         21    1    1    2  503  505  0.42667548261E+02  0.18827576693E+01  0.16588955011E+02  0.45817659034E+02  0.00000000000E+00 0.  1.
         21    1    1    2  504  502  0.53615479142E+01 -0.12454084478E+03  0.29921255611E+03  0.32414089830E+03  0.00000000000E+00 0. -1.
         21    1    1    2  505  501 -0.37845669302E+02  0.37436927638E+02  0.20197462388E+02  0.56936418247E+02  0.00000000000E+00 0.  1.
          3    1    1    2  501    0 -0.10183426873E+02  0.85221159473E+02 -0.37998627291E+04  0.38008318968E+04  0.00000000000E+00 0. -1.
<scales pt_clust_3="42.70907" pt_clust_4="85.88715" pt_clust_5="50.16219" pt_clust_6="14000.00000"></scales>
<clustering>
<clus scale="   42.709">  1  3  2 -1</clus>
<clus scale="   50.162">  1  5  2 -1</clus>
<clus scale="   85.887">  1  4  2 -1</clus>
<clus scale="   42.709">  1  3  2 -1</clus>
</clustering>
</event>
<event>
 6    0  0.6525019E+002  0.7694096E+02  0.7546771E-02  0.1337964E+00
         -2   -1    0    0    0  501 -0.00000000000E+00  0.00000000000E+00  0.14261515112E+04  0.14261515112E+04  0.00000000000E+00 0.  1.
         21   -1    0    0  504  502  0.00000000000E+00 -0.00000000000E+00 -0.35533258483E+03  0.35533258483E+03  0.00000000000E+00 0. -1.
         21    1    1    2  503  502  0.13665359343E+02  0.41713178735E+02  0.27704010283E+02  0.51906102839E+02  0.00000000000E+00 0. -1.
         21    1    1    2  504  505 -0.61409585664E+02  0.52669758663E+01 -0.22590673605E+03  0.23416389910E+03  0.00000000000E+00 0. -1.
         21    1    1    2  505  501  0.10842281430E+03 -0.93240852757E+02 -0.66505070489E+02  0.15770950411E+03  0.00000000000E+00 0. -1.
         -2    1    1    2    0  503 -0.60678587984E+02  0.46260698155E+02  0.13355267227E+04  0.13377045900E+04  0.00000000000E+00 0.  1.
<scales pt_clust_3="43.89455" pt_clust_4="61.91896" pt_clust_5="14000.00000" pt_clust_6="76.94096"></scales>
<clustering>
<clus scale="   43.895">  2  3  1 -1</clus>
<clus scale="   61.919">  2  4  1 -1</clus>
<clus scale="   76.941">  1  6  2 -1</clus>
<clus scale="   43.895">  2  3  1 -1</clus>
</clustering>
</event>
<event>
 6    0  0.6525019E+002  0.7348808E+02  0.7546771E-02  0.1348618E+00
         21   -1    0    0  504  502  0.00000000000E+00  0.00000000000E+00  0.27598108501E+04  0.27598108501E+04  0.00000000000E+00 0. -1.
         -2   -1    0    0    0  501 -0.00000000000E+00 -0.00000000000E+00 -0.59373636281E+03  0.59373636281E+03  0.00000000000E+00 0. -1.
         21    1    1    2  503  502 -0.30003527796E+02  0.68011245426E+02  0.19422035813E+04  0.19436256050E+04  0.00000000000E+00 0. -1.
         21    1    1    2  504  505  0.42782322508E+02  0.29133432491E+01  0.63446998555E+03  0.63591742959E+03  0.00000000000E+00 0.  1.
         21    1    1    2  505  501 -0.78763924196E+02 -0.90883386517E+02  0.15949600322E+03  0.19975615320E+03  0.00000000000E+00 0.  1.
         -2    1    1    2    0  503  0.65985129484E+02  0.19958797842E+02 -0.57009508279E+03  0.57424802511E+03  0.00000000000E+00 0. -1.
<scales pt_clust_3="14000.00000" pt_clust_4="42.88140" pt_clust_5="73.48808" pt_clust_6="68.97843"></scales>
<clustering>
<clus scale="   42.881">  1  4  2 -1</clus>
<clus scale="   68.978">  2  6  1 -1</clus>
<clus scale="   73.488">  2  5  1 -1</clus>
<clus scale="   42.881">  1  3  2 -1</clus>
</clustering>
</event>
<event>
 6    0  0.6525019E+002  0.1176792E+03  0.7546771E-02  0.1246976E+00
          1   -1    0    0  503    0 -0.00000000000E+00  0.00000000000E+00  0.29926041860E+04  0.29926041860E+04  0.00000000000E+00 0.  1.
         21   -1    0    0  505  502  0.00000000000E+00 -0.00000000000E+00 -0.34464418486E+02  0.34464418486E+02  0.00000000000E+00 0.  1.
         21    1    1    2  503  502 -0.12511801259E+03  0.15163230877E+02  0.50420387391E+03  0.51971721841E+03  0.00000000000E+00 0.  1.
         21    1    1    2  504  501  0.11546108498E+03 -0.20538314809E+02  0.50307709737E+03  0.51656524314E+03  0.00000000000E+00 0.  1.
         21    1    1    2  505  504 -0.35795478700E+02 -0.12554533038E+02 -0.13584060055E+01  0.37957579770E+02  0.00000000000E+00 0.  1.
          1    1    1    2  501    0  0.45452406311E+02  0.17929616971E+02  0.19522172022E+04  0.19528285631E+04  0.00000000000E+00 0.  1.
<scales pt_clust_3="117.67917" pt_clust_4="14000.00000" pt_clust_5="37.93327" pt_clust_6="48.07840"></scales>
<clustering>
<clus scale="   37.933">  2  5  1 -1</clus>
<clus scale="   48.078">  1  6  2 -1</clus>
<clus scale="  117.679">  1  3  2 -1</clus>
<clus scale="   37.933">  2  3  1 -1</clus>
</clustering>
</event>
<event>
 6    0  0.6525019E+002  0.2454235E+03  0.7546771E-02  0.1116232E+00
         21   -1    0    0  503  502  0.00000000000E+00  0.00000000000E+00  0.10029469450E+04  0.10029469450E+04  0.00000000000E+00 0.  1.
          2   -1    0    0  505    0 -0.00000000000E+00 -0.00000000000E+00 -0.16829001152E+03  0.16829001152E+03  0.00000000000E+00 0.  1.
         21    1    1    2  503  501  0.91304333143E+02 -0.27293385631E+02  0.18248180672E+03  0.20586650999E+03  0.00000000000E+00 0.  1.
         21    1    1    2  504  502 -0.68296359923E+02 -0.84258596559E+01  0.30119164381E+03  0.30895273779E+03  0.00000000000E+00 0. -1.
         21    1    1    2  505  504 -0.13919206115E+02  0.27149630795E+03  0.31769052997E+03  0.41812828457E+03  0.00000000000E+00 0.  1.
          2    1    1    2  501    0 -0.90887671047E+01 -0.23577706266E+03  0.33292953013E+02  0.23828942420E+03  0.00000000000E+00 0.  1.
<scales pt_clust_3="78.14056" pt_clust_4="68.81415" pt_clust_5="14000.00000" pt_clust_6="245.42348"></scales>
<clustering>
<clus scale="   68.814">  1  4  2 -1</clus>
<clus scale="   78.141">  1  3  2 -1</clus>
<clus scale="  245.423">  2  6  1 -1</clus>
<clus scale="   68.814">  1  3  2 -1</clus>
</clustering>
</event>
<event>
 6    0  0.6525019E+002  0.1105025E+03  0.7546771E-02  0.1259642E+00
         21   -1    0    0  505  502  0.00000000000E+00  0.00000000000E+00  0.26997023909E+03  0.26997023909E+03  0.00000000000E+00 0.  1.
         -3   -1    0    0    0  501 -0.00000000000E+00 -0.00000000000E+00 -0.80736925262E+03  0.80736925262E+03  0.00000000000E+00 0. -1.
         21    1    1    2  503  501  0.89415195113E+02  0.62148757555E+02  0.88031560022E+02  0.14002535750E+03  0.00000000000E+00 0.  1.
         21    1    1    2  504  502 -0.92796352262E+02 -0.94472264486E+00 -0.14546736860E+03  0.17254799571E+03  0.00000000000E+00 0.  1.
         21    1    1    2  505  503  0.26178672336E+02 -0.40789845080E+02  0.13788764162E+03  0.14615791480E+03  0.00000000000E+00 0.  1.
         -3    1    1    2    0  504 -0.22797515188E+02 -0.20414189829E+02 -0.61785084657E+03  0.61860822371E+03  0.00000000000E+00 0. -1.
<scales pt_clust_3="14000.00000" pt_clust_4="110.50245" pt_clust_5="48.57876" pt_clust_6="30.60173"></scales>
<clustering>
<clus scale="   30.602">  2  6  1 -1</clus>
<clus scale="   48.579">  1  5  2 -1</clus>
<clus scale="  110.502">  2  4  1 -1</clus>
<clus scale="   48.579">  1  3  2 -1</clus>
</clustering>
</event>
<event>
 6    0  0.6525019E+002  0.8527297E+02  0.7546771E-02  0.1314720E+00
          1   -1    0    0  503    0 -0.00000000000E+00  0.00000000000E+00  0.14822064307E+04  0.14822064307E+04  0.00000000000E+00 0. -1.
         21   -1    0    0  504  502  0.00000000000E+00 -0.00000000000E+00 -0.38411067208E+03  0.38411067208E+03  0.00000000000E+00 0.  1.
         21    1    1    2  503  505 -0.59958691105E+02  0.11131052636E+03 -0.49647850577E+02  0.13583072916E+03  0.00000000000E+00 0.  1.
         21    1    1    2  504  501 -0.84966580862E+01 -0.73400043036E+02 -0.83085624822E+01  0.74355845276E+02  0.00000000000E+00 0.  1.
         21    1    1    2  505  502 -0.16718575359E+02 -0.30622060675E+02 -0.24751535695E+03  0.24996214371E+03  0.00000000000E+00 0.  1.
          1    1    1    2  501    0  0.85173924550E+02 -0.72884226522E+01  0.14035675287E+04  0.14061683847E+04  0.00000000000E+00 0. -1.
<scales pt_clust_3="85.27297" pt_clust_4="83.86001" pt_clust_5="34.88870" pt_clust_6="14000.00000"></scales>
<clustering>
<clus scale="   34.889">  2  5  1 -1</clus>
<clus scale="   83.860">  2  4  1 -1</clus>
<clus scale="   85.273">  2  3  1 -1</clus>
<clus scale="   34.889">  2  3  1 -1</clus>
</clustering>
</event>
<event>
 6    0  0.6525019E+002  0.6837757E+02  0.7546771E-02  0.1365699E+00
         21   -1    0    0  505  502  0.00000000000E+00  0.00000000000E+00  0.36550161293E+02  0.36550161293E+02  0.00000000000E+00 0. -1.
          1   -1    0    0  503    0 -0.00000000000E+00 -0.00000000000E+00 -0.14236809053E+04  0.14236809053E+04  0.00000000000E+00 0. -1.
         21    1    1    2  503  504  0.76869468273E+02 -0.52103614606E+02 -0.95302922278E+02  0.13306520508E+03  0.00000000000E+00 0. -1.
         21    1    1    2  504  502  0.36015410478E+02  0.22190453429E+02 -0.80046246589E+02  0.90536885347E+02  0.00000000000E+00 0.  1.
         21    1    1    2  505  501 -0.45953000289E+02  0.44619823863E+02 -0.78671587491E+02  0.10144863526E+03  0.00000000000E+00 0. -1.
          1    1    1    2  501    0 -0.66931878461E+02 -0.14706662686E+02 -0.11331099876E+04  0.11351803409E+04  0.00000000000E+00 0. -1.
<scales pt_clust_3="68.37757" pt_clust_4="42.30279" pt_clust_5="62.09415" pt_clust_6="14000.00000"></scales>
<clustering>
<clus scale="   42.303">  1  4  2 -1</clus>
<clus scale="   62.094">  1  5  2 -1</clus>
<clus scale="   68.378">  1  3  2 -1</clus>
<clus scale="   42.303">  1  3  2 -1</clus>
</clustering>
</event>
<event>
 6    0  0.6525019E+002  0.9499033E+02  0.7546771E-02  0.1291198E+00
         21   -1    0    0  503  502  0.00000000000E+00  0.00000000000E+00  0.78059172333E+02  0.78059172333E+02  0.00000000000E+00 0. -1.
          2   -1    0    0  505    0 -0.00000000000E+00 -0.00000000000E+00 -0.25976323806E+04  0.25976323806E+04  0.00000000000E+00 0.  1.
         21    1    1    2  503  501 -0.12967475254E+02 -0.30057477679E+02  0.43869492731E+02  0.54737005502E+02  0.00000000000E+00 0. -1.
         21    1    1    2  504  502  0.11115055918E+03  0.37103090710E+02 -0.10551917221E+03  0.15768760842E+03  0.00000000000E+00 0.  1.
         21    1    1    2  505  504 -0.29076166344E+02 -0.36243385355E+02 -0.18698682603E+04  0.18704454863E+04  0.00000000000E+00 0.  1.
          2    1    1    2  501    0 -0.69106917582E+02  0.29197772324E+02 -0.58805526848E+03  0.59282145267E+03  0.00000000000E+00 0.  1.
<scales pt_clust_3="32.73541" pt_clust_4="94.99033" pt_clust_5="46.78195" pt_clust_6="14000.00000"></scales>
<clustering>
<clus scale="   32.735">  1  3  2 -1</clus>
<clus scale="   46.782">  2  5  1 -1</clus>
<clus scale="   94.990">  1  4  2 -1</clus>
<clus scale="   32.735">  1  3  2 -1</clus>
</clustering>
</event>
<event>
 6    0  0.6525019E+002  0.9853836E+02  0.7546771E-02  0.1283400E+00
         21   -1    0    0  505  502  0.00000000000E+00  0.00000000000E+00  0.48513375223E+02  0.48513375223E+02  0.00000000000E+00 0. -1.
          2   -1    0    0  503    0 -0.00000000000E+00 -0.00000000000E+00 -0.30511399575E+04  0.30511399575E+04  0.00000000000E+00 0. -1.
         21    1    1    2  503  504 -0.79844754696E+02  0.12165399978E+02 -0.39214262562E+03  0.40037360132E+03  0.00000000000E+00 0.  1.
         21    1    1    2  504  502  0.79421646772E+02  0.70030170747E+02 -0.24073521362E+02  0.10858893692E+03  0.00000000000E+00 0. -1.
         21    1    1    2  505  501  0.42856849823E+02 -0.45131143936E+02 -0.55152998032E+03  0.55503049368E+03  0.00000000000E+00 0. -1.
          2    1    1    2  501    0 -0.42433741898E+02 -0.37064426790E+02 -0.20348804550E+04  0.20356603008E+04  0.00000000000E+00 0. -1.
<scales pt_clust_3="14000.00000" pt_clust_4="98.53836" pt_clust_5="68.23719" pt_clust_6="56.34176"></scales>
<clustering>
<clus scale="   56.342">  2  6  1 -1</clus>
<clus scale="   68.237">  2  5  1 -1</clus>
<clus scale="   98.538">  1  4  2 -1</clus>
<clus scale="   98.538">  1  3  2 -1</clus>
</clustering>
</event>
<event>
 6    0  0.6525019E+002  0.1345981E+03  0.7546771E-02  0.1220788E+00
          1   -1    0    0  503    0 -0.00000000000E+00  0.00000000000E+00  0.54596985818E+03  0.54596985818E+03  0.00000000000E+00 0. -1.
         21   -1    0    0  504  502  0.00000000000E+00 -0.00000000000E+00 -0.26809594922E+03  0.26809594922E+03  0.00000000000E+00 0. -1.
         21    1    1    2  503  505 -0.17564120725E+03  0.36446905782E+02  0.55476305478E+02  0.18776536181E+03  0.00000000000E+00 0. -1.
         21    1    1    2  504  501  0.10156522530E+03  0.40143735319E+01 -0.16343092511E+02  0.10295002116E+03  0.00000000000E+00 0. -1.
         21    1    1    2  505  502  0.38739849904E+02 -0.14984680529E+02 -0.13799173733E+03  0.14410772426E+03  0.00000000000E+00 0. -1.
          1    1    1    2  501    0  0.35336132053E+02 -0.25476598785E+02  0.37673243332E+03  0.37924270016E+03  0.00000000000E+00 0. -1.
<scales pt_clust_3="134.59809" pt_clust_4="14000.00000" pt_clust_5="41.53693" pt_clust_6="43.95974"></scales>
<clustering>
<clus scale="   41.537">  2  5  1 -1</clus>
<clus scale="   43.960">  1  6  2 -1</clus>
<clus scale="  134.598">  1  3  2 -1</clus>
<clus scale="   41.537">  2  3  1 -1</clus>
</clustering>
</event>
<event>
 6    0  0.6525019E+002  0.9895685E+02  0.7546771E-02  0.1282505E+00
          2   -1    0    0  503    0 -0.00000000000E+00  0.00000000000E+00  0.18796123631E+04  0.18796123631E+04  0.00000000000E+00 0. -1.
         21   -1    0    0  505  502  0.00000000000E+00 -0.00000000000E+00 -0.70580953398E+02  0.70580953398E+02  0.00000000000E+00 0. -1.
         21    1    1    2  503  504  0.55179350380E+02 -0.77809357851E+02  0.96305255581E+03  0.96776509657E+03  0.00000000000E+00 0.  1.
         21    1    1    2  504  502 -0.28925234108E+02  0.95011934871E+02 -0.16371123790E+02  0.10065759102E+03  0.00000000000E+00 0. -1.
         21    1    1    2  505  501 -0.88597292313E+02 -0.37656744885E+02  0.28752298077E+03  0.30321110651E+03  0.00000000000E+00 0. -1.
          2    1    1    2  501    0  0.62343176042E+02  0.20454167864E+02  0.57482699693E+03  0.57855952241E+03  0.00000000000E+00 0. -1.
<scales pt_clust_3="14000.00000" pt_clust_4="98.95685" pt_clust_5="81.45702" pt_clust_6="65.61284"></scales>
<clustering>
<clus scale="   65.613">  1  6  2 -1</clus>
<clus scale="   81.457">  1  5  2 -1</clus>
<clus scale="   98.957">  2  4  1 -1</clus>
<clus scale="   98.957">  2  3  1 -1</clus>
</clustering>
</event>
<event>
 6    0  0.6525019E+002  0.7434379E+02  0.7546771E-02  0.1345915E+00
         -1   -1    0    0    0  501 -0.00000000000E+00  0.00000000000E+00  0.88412746831E+02  0.88412746831E+02  0.00000000000E+00 0. -1.
         21   -1    0    0  505  502  0.00000000000E+00 -0.00000000000E+00 -0.12962341159E+04  0.12962341159E+04  0.00000000000E+00 0.  1.
         21    1    1    2  503  504  0.14553075240E+02  0.59870023343E+02 -0.77481822098E+03  0.77726410393E+03  0.00000000000E+00 0.  1.
         21    1    1    2  504  502  0.41672545501E+02 -0.72986782220E+01 -0.35027437497E+03  0.35282008094E+03  0.00000000000E+00 0.  1.
         21    1    1    2  505  501 -0.10053746231E+03 -0.19861752804E+02 -0.14104798826E+03  0.17434679677E+03  0.00000000000E+00 0.  1.
         -1    1    1    2    0  503  0.44311841567E+02 -0.32709592317E+02  0.58319215114E+02  0.80215881122E+02  0.00000000000E+00 0. -1.
<scales pt_clust_3="74.34379" pt_clust_4="42.30688" pt_clust_5="14000.00000" pt_clust_6="55.51605"></scales>
<clustering>
<clus scale="   42.307">  2  4  1 -1</clus>
<clus scale="   55.516">  1  6  2 -1</clus>
<clus scale="   74.344">  2  3  1 -1</clus>
<clus scale="   42.307">  2  3  1 -1</clus>
</clustering>
</event>
<event>
 6    0  0.6525019E+002  0.8367504E+02  0.7546771E-02  0.1318934E+00
         21   -1    0    0  505  502  0.00000000000E+00  0.00000000000E+00  0.62642739912E+03  0.62642739912E+03  0.00000000000E+00 0. -1.
          2   -1    0    0  503    0 -0.00000000000E+00 -0.00000000000E+00 -0.24735166679E+04  0.24735166679E+04  0.00000000000E+00 0. -1.
         21    1    1    2  503  504  0.78453622343E+02  0.70779732392E+02 -0.11324475121E+04  0.11373663038E+04  0.00000000000E+00 0. -1.
         21    1    1    2  504  502  0.31474285960E+02 -0.10097202137E+02  0.50672244421E+03  0.50779938916E+03  0.00000000000E+00 0. -1.
         21    1    1    2  505  501 -0.11430309666E+03  0.89441182666E+01  0.87393572400E+02  0.14416251820E+03  0.00000000000E+00 0.  1.
          2    1    1    2  501    0  0.43751883586E+01 -0.69626648522E+02 -0.13087577732E+04  0.13106158558E+04  0.00000000000E+00 0. -1.
<scales pt_clust_3="83.67504" pt_clust_4="33.05426" pt_clust_5="14000.00000" pt_clust_6="69.85834"></scales>
<clustering>
<clus scale="   33.054">  1  4  2 -1</clus>
<clus scale="   69.858">  2  6  1 -1</clus>
<clus scale="   83.675">  2  3  1 -1</clus>
<clus scale="   33.054">  1  3  2 -1</clus>
</clustering>
</event>
<event>
 6    0  0.6525019E+002  0.7836913E+02  0.7546771E-02  0.1333744E+00
         21   -1    0    0  504  502  0.00000000000E+00  0.00000000000E+00  0.15617460238E+04  0.15617460238E+04  0.00000000000E+00 0. -1.
          1   -1    0    0  503    0 -0.00000000000E+00 -0.00000000000E+00 -0.34697247743E+03  0.34697247743E+03  0.00000000000E+00 0.  1.
         21    1    1    2  503  505 -0.94582361191E+02  0.42808960941E+01  0.67330277428E+02  0.11617880779E+03  0.00000000000E+00 0. -1.
         21    1    1    2  504  501  0.11245137779E+03  0.36242504954E+02  0.11556930314E+04  0.11617164948E+04  0.00000000000E+00 0. -1.
         21    1    1    2  505  502 -0.41149215243E+02 -0.20623815841E+02  0.30884340697E+03  0.31225446310E+03  0.00000000000E+00 0. -1.
          1    1    1    2  501    0  0.23280198640E+02 -0.19899585206E+02 -0.31709316943E+03  0.31856873551E+03  0.00000000000E+00 0.  1.
<scales pt_clust_3="78.36913" pt_clust_4="14000.00000" pt_clust_5="45.36210" pt_clust_6="30.62615"></scales>
<clustering>
<clus scale="   30.626">  2  6  1 -1</clus>
<clus scale="   45.362">  1  5  2 -1</clus>
<clus scale="   78.369">  2  3  1 -1</clus>
<clus scale="   45.362">  1  3  2 -1</clus>
</clustering>
</event>
<event>
 6    0  0.6525019E+002  0.1126233E+03  0.7546771E-02  0.1255788E+00
         21   -1    0    0  504  502  0.00000000000E+00  0.00000000000E+00  0.65890291934E+02  0.65890291934E+02  0.00000000000E+00 0. -1.
          2   -1    0    0  503    0 -0.00000000000E+00 -0.00000000000E+00 -0.27533071467E+04  0.27533071467E+04  0.00000000000E+00 0. -1.
         21    1    1    2  503  505 -0.11570404000E+03  0.69964395631E+01 -0.22950612795E+03  0.25711755640E+03  0.00000000000E+00 0. -1.
         21    1    1    2  504  501  0.15317635095E+03 -0.57650920119E+02 -0.61403683501E+03  0.63547451390E+03  0.00000000000E+00 0. -1.
         21    1    1    2  505  502 -0.10760902734E+03  0.28351831043E+01 -0.31383027697E+02  0.11212776399E+03  0.00000000000E+00 0. -1.
          2    1    1    2  501    0  0.70136716399E+02  0.47819297451E+02 -0.18124908641E+04  0.18144776043E+04  0.00000000000E+00 0. -1.
<scales pt_clust_3="99.45210" pt_clust_4="14000.00000" pt_clust_5="112.62331" pt_clust_6="84.88724"></scales>
<clustering>
<clus scale="   84.887">  2  6  1 -1</clus>
<clus scale="   99.452">  2  3  1 -1</clus>
<clus scale="  112.623">  1  5  2 -1</clus>
<clus scale="  112.623">  1  3  2 -1</clus>
</clustering>
</event>
<event>
 6    0  0.6525019E+002  0.1261589E+03  0.7546771E-02  0.1233269E+00
          3   -1    0    0  504    0 -0.00000000000E+00  0.00000000000E+00  0.19463659831E+03  0.19463659831E+03  0.00000000000E+00 0.  1.
         21   -1    0    0  505  502  0.00000000000E+00 -0.00000000000E+00 -0.72401321501E+03  0.72401321501E+03  0.00000000000E+00 0.  1.
         21    1    1    2  503  501 -0.95378177485E+02  0.17754980461E+02 -0.10649194001E+03  0.14405821517E+03  0.00000000000E+00 0.  1.
         21    1    1    2  504  502  0.17451017787E+03  0.30018701082E+02 -0.29713189284E+03  0.34589346096E+03  0.00000000000E+00 0.  1.
         21    1    1    2  505  503 -0.52576086523E+02 -0.19251600294E+02 -0.27181743981E+03  0.27752403423E+03  0.00000000000E+00 0.  1.
          3    1    1    2  501    0 -0.26555913861E+02 -0.28522081250E+02  0.14606465597E+03  0.15117410296E+03  0.00000000000E+00 0.  1.
<scales pt_clust_3="14000.00000" pt_clust_4="126.15895" pt_clust_5="58.15449" pt_clust_6="38.97083"></scales>
<clustering>
<clus scale="   38.971">  1  6  2 -1</clus>
<clus scale="   58.154">  2  5  1 -1</clus>
<clus scale="  126.159">  2  4  1 -1</clus>
<clus scale="   58.154">  2  3  1 -1</clus>
</clustering>
</event>
<event>
 6    0  0.6525019E+002  0.1053457E+03  0.7546771E-02  0.1269440E+00
         21   -1    0    0  504  502  0.00000000000E+00  0.00000000000E+00  0.12796824525E+03  0.12796824525E+03  0.00000000000E+00 0. -1.
          2   -1    0    0  505    0 -0.00000000000E+00 -0.00000000000E+00 -0.10678235484E+04  0.10678235484E+04  0.00000000000E+00 0. -1.
         21    1    1    2  503  502 -0.71756389312E+01 -0.10431682057E+03  0.53967226728E+02  0.11766881663E+03  0.00000000000E+00 0. -1.
         21    1    1    2  504  501 -0.43387859148E+02 -0.13513087481E+02 -0.15073554166E+02  0.47878198482E+02  0.00000000000E+00 0. -1.
         21    1    1    2  505  503  0.97795393914E+01  0.10777054105E+03 -0.90683780655E+02  0.14118667424E+03  0.00000000000E+00 0. -1.
          2    1    1    2  501    0  0.40783958688E+02  0.10059366996E+02 -0.88806519504E+03  0.88905810429E+03  0.00000000000E+00 0. -1.
<scales pt_clust_3="105.34565" pt_clust_4="38.08367" pt_clust_5="14000.00000" pt_clust_6="42.00622"></scales>
<clustering>
<clus scale="   42.006">  2  6  1 -1</clus>
<clus scale="   38.084">  2  4  1 -1</clus>
<clus scale="  105.346">  1  3  2 -1</clus>
<clus scale="  105.346">  1  3  2 -1</clus>
</clustering>
</event>
<event>
 6    0  0.6525019E+002  0.1142464E+03  0.7546771E-02  0.1252902E+00
         -2   -1    0    0    0  501 -0.00000000000E+00  0.00000000000E+00  0.38163347857E+02  0.38163347857E+02  0.00000000000E+00 0.  1.
         21   -1    0    0  504  502  0.00000000000E+00 -0.00000000000E+00 -0.25172140348E+04  0.25172140348E+04  0.00000000000E+00 0.  1.
         21    1    1    2  503  501 -0.12250503617E+03 -0.49536939342E+02 -0.30406415588E+03  0.33153642807E+03  0.00000000000E+00 0.  1.
         21    1    1    2  504  503  0.87972647526E+02  0.70348350522E+01 -0.65391128148E+03  0.65983985911E+03  0.00000000000E+00 0.  1.
         21    1    1    2  505  502  0.36719572148E+02  0.82504780183E+01 -0.15284359910E+04  0.15288992694E+04  0.00000000000E+00 0.  1.
         -2    1    1    2    0  505 -0.21871835032E+01  0.34251626272E+02  0.73607414951E+01  0.35101826011E+02  0.00000000000E+00 0.  1.
<scales pt_clust_3="114.24636" pt_clust_4="14000.00000" pt_clust_5="37.71144" pt_clust_6="34.32139"></scales>
<clustering>
<clus scale="   34.321">  1  6  2 -1</clus>
<clus scale="   37.711">  2  5  1 -1</clus>
<clus scale="  114.246">  1  3  2 -1</clus>
<clus scale="   37.711">  2  3  1 -1</clus>
</clustering>
</event>
<event>
 6    0  0.6525019E+002  0.6730074E+02  0.7546771E-02  0.1369520E+00
          1   -1    0    0  503    0 -0.00000000000E+00  0.00000000000E+00  0.44021103414E+03  0.44021103414E+03  0.00000000000E+00 0. -1.
         21   -1    0    0  505  502  0.00000000000E+00 -0.00000000000E+00 -0.11121883702E+03  0.11121883702E+03  0.00000000000E+00 0.  1.
         21    1    1    2  503  502  0.11136009013E+03  0.34822607575E+02  0.11273340378E+03  0.16224211537E+03  0.00000000000E+00 0. -1.
         21    1    1    2  504  501 -0.37678360717E+02 -0.36024324467E+02  0.59870347110E+02  0.79384313832E+02  0.00000000000E+00 0. -1.
         21    1    1    2  505  504 -0.17108906841E+02 -0.26566520381E+02 -0.68935351294E+02  0.75832561321E+02  0.00000000000E+00 0.  1.
          1    1    1    2  501    0 -0.56572822574E+02  0.27768237273E+02  0.22532379752E+03  0.23397088064E+03  0.00000000000E+00 0. -1.
<scales pt_clust_3="14000.00000" pt_clust_4="59.87702" pt_clust_5="31.59897" pt_clust_6="67.30074"></scales>
<clustering>
<clus scale="   31.599">  2  5  1 -1</clus>
<clus scale="   59.877">  2  4  1 -1</clus>
<clus scale="   67.301">  1  6  2 -1</clus>
<clus scale="   31.599">  2  3  1 -1</clus>
</clustering>
</event>
<event>
 6    0  0.6525019E+002  0.1037811E+03  0.7546771E-02  0.1272540E+00
          2   -1    0    0  504    0 -0.00000000000E+00  0.00000000000E+00  0.71567981862E+03  0.71567981862E+03  0.00000000000E+00 0. -1.
         21   -1    0    0  505  502  0.00000000000E+00 -0.00000000000E+00 -0.27537090696E+03  0.27537090696E+03  0.00000000000E+00 0. -1.
         21    1    1    2  503  501  0.45043032180E+02  0.44030401323E+01 -0.18786253817E+02  0.49001886115E+02  0.00000000000E+00 0. -1.
         21    1    1    2  504  502 -0.96554195504E+02 -0.54117622434E+02  0.55461232605E+02  0.12380378851E+03  0.00000000000E+00 0.  1.
         21    1    1    2  505  503  0.69932599097E+02  0.76272355925E+02 -0.19392820883E+03  0.21980944219E+03  0.00000000000E+00 0. -1.
          2    1    1    2  501    0 -0.18421435773E+02 -0.26557773624E+02  0.59756214171E+03  0.59843560877E+03  0.00000000000E+00 0. -1.
<scales pt_clust_3="42.68966" pt_clust_4="103.78108" pt_clust_5="14000.00000" pt_clust_6="32.32127"></scales>
<clustering>
<clus scale="   32.321">  1  6  2 -1</clus>
<clus scale="   42.690">  1  3  2 -1</clus>
<clus scale="  103.781">  1  4  2 -1</clus>
<clus scale="  103.781">  2  3  1 -1</clus>
</clustering>
</event>
<event>
 6    0  0.6525019E+002  0.2472430E+03  0.7546771E-02  0.1115060E+00
         21   -1    0    0  505  502  0.00000000000E+00  0.00000000000E+00  0.56750683706E+03  0.56750683706E+03  0.00000000000E+00 0.  1.
          2   -1    0    0  503    0 -0.00000000000E+00 -0.00000000000E+00 -0.57801594711E+03  0.57801594711E+03  0.00000000000E+00 0.  1.
         21    1    1    2  503  504  0.21847785577E+02 -0.44143414616E+02 -0.31672813282E+03  0.32053498547E+03  0.00000000000E+00 0.  1.
         21    1    1    2  504  502  0.84383320534E+02 -0.24028379585E+03  0.32892358521E+03  0.41598987036E+03  0.00000000000E+00 0.  1.
         21    1    1    2  505  501 -0.84616237741E+02  0.21881702095E+03  0.11020962279E+03  0.25920447007E+03  0.00000000000E+00 0.  1.
          2    1    1    2  501    0 -0.21614868369E+02  0.65610189514E+02 -0.13291418524E+03  0.14979345827E+03  0.00000000000E+00 0.  1.
<scales pt_clust_3="49.25410" pt_clust_4="247.24302" pt_clust_5="14000.00000" pt_clust_6="42.67296"></scales>
<clustering>
<clus scale="   49.254">  2  3  1 -1</clus>
<clus scale="   42.673">  2  6  1 -1</clus>
<clus scale="  247.243">  1  4  2 -1</clus>
<clus scale="  247.243">  1  3  2 -1</clus>
</clustering>
</event>
<event>
 6    0  0.6525019E+002  0.8683397E+02  0.7546771E-02  0.1310705E+00
         21   -1    0    0  505  502  0.00000000000E+00  0.00000000000E+00  0.33448347394E+03  0.33448347394E+03  0.00000000000E+00 0.  1.
         -4   -1    0    0    0  501 -0.00000000000E+00 -0.00000000000E+00 -0.29097836732E+03  0.29097836732E+03  0.00000000000E+00 0.  1.
         21    1    1    2  503  501 -0.54119275972E+01 -0.56670704099E+02 -0.18324407219E+03  0.19188342204E+03  0.00000000000E+00 0.  1.
         21    1    1    2  504  503 -0.67050558858E+02  0.90668599168E+02 -0.72774267897E+01  0.11300235953E+03  0.00000000000E+00 0.  1.
         21    1    1    2  505  504  0.33268475082E+02  0.21455672982E+02  0.24809017564E+03  0.25122872564E+03  0.00000000000E+00 0.  1.
         -4    1    1    2    0  502  0.39194011373E+02 -0.55453568051E+02 -0.14063570050E+02  0.69347334049E+02  0.00000000000E+00 0.  1.
<scales pt_clust_3="55.70228" pt_clust_4="86.83397" pt_clust_5="39.58709" pt_clust_6="14000.00000"></scales>
<clustering>
<clus scale="   39.587">  1  5  2 -1</clus>
<clus scale="   55.702">  2  3  1 -1</clus>
<clus scale="   86.834">  2  4  1 -1</clus>
<clus scale="   39.587">  1  3  2 -1</clus>
</clustering>
</event>
<event>
 6    0  0.6525019E+002  0.1315213E+03  0.7546771E-02  0.1225216E+00
          2   -1    0    0  503    0 -0.00000000000E+00  0.00000000000E+00  0.14435173749E+04  0.14435173749E+04  0.00000000000E+00 0.  1.
         21   -1    0    0  505  502  0.00000000000E+00 -0.00000000000E+00 -0.72981927928E+03  0.72981927928E+03  0.00000000000E+00 0.  1.
         21    1    1    2  503  504 -0.96745088455E+02 -0.28136254379E+02  0.59589609571E+03  0.60435371914E+03  0.00000000000E+00 0. -1.
         21    1    1    2  504  502 -0.15573176857E+02 -0.62365633420E+02 -0.64292129403E+02  0.90914652133E+02  0.00000000000E+00 0.  1.
         21    1    1    2  505  501  0.13484549287E+03  0.11976578072E+03 -0.63501262188E+03  0.66012739613E+03  0.00000000000E+00 0.  1.
          2    1    1    2  501    0 -0.22527227558E+02 -0.29263892925E+02  0.81710675122E+03  0.81794088680E+03  0.00000000000E+00 0.  1.
<scales pt_clust_3="14000.00000" pt_clust_4="65.00115" pt_clust_5="131.52126" pt_clust_6="36.93036"></scales>
<clustering>
<clus scale="   36.930">  1  6  2 -1</clus>
<clus scale="   65.001">  2  4  1 -1</clus>
<clus scale="  131.521">  2  5  1 -1</clus>
<clus scale="   65.001">  2  3  1 -1</clus>
</clustering>
</event>
<event>
 6    0  0.6525019E+002  0.1246209E+03  0.7546771E-02  0.1235663E+00
         21   -1    0    0  505  502  0.00000000000E+00  0.00000000000E+00  0.81651750876E+03  0.81651750876E+03  0.00000000000E+00 0.  1.
          4   -1    0    0  504    0 -0.00000000000E+00 -0.00000000000E+00 -0.83132546465E+03  0.83132546465E+03  0.00000000000E+00 0. -1.
         21    1    1    2  503  501  0.29693493467E+02 -0.13430388725E+03 -0.12959498751E+03  0.18898174111E+03  0.00000000000E+00 0. -1.
         21    1    1    2  504  502  0.10106613652E+03  0.56784336571E+02  0.73199679100E+03  0.74111950916E+03  0.00000000000E+00 0.  1.
         21    1    1    2  505  503 -0.62189594086E+01  0.29644657302E+02  0.38277728209E+02  0.48812556166E+02  0.00000000000E+00 0.  1.
          4    1    1    2  501    0 -0.12454067058E+03  0.47874893376E+02 -0.65548748759E+03  0.66892916698E+03  0.00000000000E+00 0. -1.
<scales pt_clust_3="14000.00000" pt_clust_4="127.60159" pt_clust_5="30.28995" pt_clust_6="124.62088"></scales>
<clustering>
<clus scale="   30.290">  1  5  2 -1</clus>
<clus scale="  127.602">  1  4  2 -1</clus>
<clus scale="  124.621">  2  6  1 -1</clus>
<clus scale="   30.290">  1  3  2 -1</clus>
</clustering>
</event>
<event>
 6    0  0.6525019E+002  0.6690850E+02  0.7546771E-02  0.1370933E+00
         21   -1    0    0  503  502  0.00000000000E+00  0.00000000000E+00  0.53484576363E+02  0.53484576363E+02  0.00000000000E+00 0.  1.
          2   -1    0    0  505    0 -0.00000000000E+00 -0.00000000000E+00 -0.14021332346E+04  0.14021332346E+04  0.00000000000E+00 0.  1.
         21    1    1    2  503  504  0.11632976872E+02 -0.28960224555E+02  0.17123911568E+02  0.35598442446E+02  0.00000000000E+00 0.  1.
         21    1    1    2  504  501 -0.10369230208E+03  0.48764084328E+02 -0.32906205612E+03  0.34844205575E+03  0.00000000000E+00 0.  1.
         21    1    1    2  505  502  0.52319551093E+02  0.22549137605E+02 -0.32304046803E+02  0.65493133023E+02  0.00000000000E+00 0.  1.
          2    1    1    2  501    0  0.39739774115E+02 -0.42352997379E+02 -0.10044064669E+04  0.10060841798E+04  0.00000000000E+00 0.  1.
<scales pt_clust_3="31.20931" pt_clust_4="14000.00000" pt_clust_5="66.90850" pt_clust_6="58.97814"></scales>
<clustering>
<clus scale="   31.209">  1  3  2 -1</clus>
<clus scale="   58.978">  2  6  1 -1</clus>
<clus scale="   66.909">  1  5  2 -1</clus>
<clus scale="   31.209">  1  3  2 -1</clus>
</clustering>
</event>
<event>
 6    0  0.6525019E+002  0.7547510E+02  0.7546771E-02  0.1342406E+00
         21   -1    0    0  505  502  0.00000000000E+00  0.00000000000E+00  0.40427467782E+03  0.40427467782E+03  0.00000000000E+00 0.  1.
          2   -1    0    0  503    0 -0.00000000000E+00 -0.00000000000E+00 -0.15729494392E+04  0.15729494392E+04  0.00000000000E+00 0.  1.
         21    1    1    2  503  504  0.15167498398E+02 -0.13228786641E+03  0.37551219933E+02  0.13834820825E+03  0.00000000000E+00 0.  1.
         21    1    1    2  504  502 -0.22790055041E+02  0.22816628864E+02  0.22171983123E+03  0.22405282574E+03  0.00000000000E+00 0.  1.
         21    1    1    2  505  501 -0.16758216854E+01  0.35142599269E+02  0.89169639434E+02  0.95859455760E+02  0.00000000000E+00 0. -1.
          2    1    1    2  501    0  0.92983783284E+01  0.74328638275E+02 -0.15171154520E+04  0.15189636273E+04  0.00000000000E+00 0.  1.
<scales pt_clust_3="14000.00000" pt_clust_4="32.24880" pt_clust_5="48.63370" pt_clust_6="75.47510"></scales>
<clustering>
<clus scale="   32.249">  1  4  2 -1</clus>
<clus scale="   48.634">  1  5  2 -1</clus>
<clus scale="   75.475">  2  6  1 -1</clus>
<clus scale="   32.249">  1  3  2 -1</clus>
</clustering>
</event>
<event>
 6    0  0.6525019E+002  0.1290838E+03  0.7546771E-02  0.1228822E+00
          4   -1    0    0  503    0 -0.00000000000E+00  0.00000000000E+00  0.63338778642E+02  0.63338778642E+02  0.00000000000E+00 0. -1.
         21   -1    0    0  501  502  0.00000000000E+00 -0.00000000000E+00 -0.12970635198E+04  0.12970635198E+04  0.00000000000E+00 0.  1.
         21    1    1    2  503  505 -0.10582706391E+03 -0.22969976607E+02 -0.42202706949E+02  0.11622416166E+03  0.00000000000E+00 0. -1.
         21    1    1    2  504  502  0.70124559100E+02  0.35607720820E+02 -0.54386256068E+03  0.54951965249E+03  0.00000000000E+00 0.  1.
         21    1    1    2  505  504  0.38949439904E+02  0.17474233281E+02 -0.66041656640E+03  0.66179486918E+03  0.00000000000E+00 0.  1.
          4    1    1    2  501    0 -0.32469350973E+01 -0.30111977494E+02  0.12757092903E+02  0.32863615070E+02  0.00000000000E+00 0. -1.
<scales pt_clust_3="119.92829" pt_clust_4="35.32711" pt_clust_5="35.32711" pt_clust_6="30.28653"></scales>
<clustering>
<clus scale="   30.287">  1  6  2 -1</clus>
<clus scale="   35.327">  4  5 -1 -1</clus>
<clus scale="  119.928">  1  3  2 -1</clus>
<clus scale="  129.084">  2  3  1 -1</clus>
</clustering>
</event>
<event>
 6    0  0.6525019E+002  0.8270765E+02  0.7546771E-02  0.1321539E+00
         -2   -1    0    0    0  501 -0.00000000000E+00  0.00000000000E+00  0.12242383920E+03  0.12242383920E+03  0.00000000000E+00 0. -1.
         21   -1    0    0  503  502  0.00000000000E+00 -0.00000000000E+00 -0.18802756657E+04  0.18802756657E+04  0.00000000000E+00 0. -1.
         21    1    1    2  503  504 -0.21979594600E+02  0.32985418812E+02 -0.14753490082E+04  0.14758813761E+04  0.00000000000E+00 0. -1.
         21    1    1    2  504  501  0.12043971620E+03  0.74664365211E+02 -0.64223236801E+02  0.15557993706E+03  0.00000000000E+00 0. -1.
         21    1    1    2  505  502 -0.52038903085E+02 -0.50555015493E+02 -0.27111143841E+03  0.28065150821E+03  0.00000000000E+00 0. -1.
         -2    1    1    2    0  505 -0.46421218519E+02 -0.57094768530E+02  0.52831856901E+02  0.90586683491E+02  0.00000000000E+00 0. -1.
<scales pt_clust_3="39.63761" pt_clust_4="82.70765" pt_clust_5="72.66311" pt_clust_6="14000.00000"></scales>
<clustering>
<clus scale="   39.638">  2  3  1 -1</clus>
<clus scale="   72.663">  2  5  1 -1</clus>
<clus scale="   82.708">  2  4  1 -1</clus>
<clus scale="   39.638">  2  3  1 -1</clus>
</clustering>
</event>
<event>
 6    0  0.6525019E+002  0.7635041E+02  0.7546771E-02  0.1339740E+00
          1   -1    0    0  505    0 -0.00000000000E+00  0.00000000000E+00  0.29490983813E+04  0.29490983813E+04  0.00000000000E+00 0.  1.
         21   -1    0    0  501  502  0.00000000000E+00 -0.00000000000E+00 -0.32214777119E+03  0.32214777119E+03  0.00000000000E+00 0. -1.
         21    1    1    2  503  502 -0.63781190963E+02  0.64156404469E+02 -0.18524389426E+03  0.20615378948E+03  0.00000000000E+00 0. -1.
         21    1    1    2  504  503  0.14704874251E+02 -0.66170785150E+02 -0.93795719909E+02  0.11572572405E+03  0.00000000000E+00 0. -1.
         21    1    1    2  505  504  0.94255393179E+02 -0.23616989510E+02  0.88602058511E+02  0.13149968102E+03  0.00000000000E+00 0. -1.
          1    1    1    2  501    0 -0.45179076467E+02  0.25631370190E+02  0.28173881658E+04  0.28178669580E+04  0.00000000000E+00 0.  1.
<scales pt_clust_3="76.35041" pt_clust_4="14000.00000" pt_clust_5="56.47852" pt_clust_6="51.94339"></scales>
<clustering>
<clus scale="   51.943">  1  6  2 -1</clus>
<clus scale="   56.479">  1  5  2 -1</clus>
<clus scale="   76.350">  2  3  1 -1</clus>
<clus scale="   76.350">  2  3  1 -1</clus>
</clustering>
</event>
<event>
 6    0  0.6525019E+002  0.1357797E+03  0.7546771E-02  0.1219123E+00
         21   -1    0    0  504  502  0.00000000000E+00  0.00000000000E+00  0.15146378009E+03  0.15146378009E+03  0.00000000000E+00 0.  1.
          2   -1    0    0  505    0 -0.00000000000E+00 -0.00000000000E+00 -0.82213242917E+03  0.82213242917E+03  0.00000000000E+00 0. -1.
         21    1    1    2  503  501  0.17508587700E+03  0.48075814060E+02 -0.13560453531E+03  0.22661627969E+03  0.00000000000E+00 0.  1.
         21    1    1    2  504  503 -0.50721034566E+02 -0.11251660998E+02  0.71711607910E+02  0.88553813761E+02  0.00000000000E+00 0.  1.
         21    1    1    2  505  502 -0.62364475369E+02 -0.10647565487E+03 -0.16017418157E+03  0.20219337603E+03  0.00000000000E+00 0.  1.
          2    1    1    2  501    0 -0.62000367065E+02  0.69651501807E+02 -0.44660154011E+03  0.45623273979E+03  0.00000000000E+00 0. -1.
<scales pt_clust_3="135.77973" pt_clust_4="51.95405" pt_clust_5="14000.00000" pt_clust_6="95.00773"></scales>
<clustering>
<clus scale="   51.954">  1  4  2 -1</clus>
<clus scale="   95.008">  2  6  1 -1</clus>
<clus scale="  135.780">  1  3  2 -1</clus>
<clus scale="   51.954">  1  3  2 -1</clus>
</clustering>
</event>
<event>
 6    0  0.6525019E+002  0.2105277E+03  0.7546771E-02  0.1141149E+00
          2   -1    0    0  504    0 -0.00000000000E+00  0.00000000000E+00  0.78372696155E+03  0.78372696155E+03  0.00000000000E+00 0. -1.
         21   -1    0    0  505  502  0.00000000000E+00 -0.00000000000E+00 -0.13891868693E+03  0.13891868693E+03  0.00000000000E+00 0. -1.
         21    1    1    2  503  502  0.51730121333E+02  0.37709393475E+02  0.15856764720E+02  0.65950290346E+02  0.00000000000E+00 0. -1.
         21    1    1    2  504  503 -0.14946573342E+03  0.12514404408E+03  0.10060768971E+03  0.21936942464E+03  0.00000000000E+00 0. -1.
         21    1    1    2  505  501  0.11922401377E+03 -0.21862380254E+03  0.25083048251E+03  0.35344966184E+03  0.00000000000E+00 0. -1.
          2    1    1    2  501    0 -0.21488401685E+02  0.55770364978E+02  0.27751333769E+03  0.28387627166E+03  0.00000000000E+00 0. -1.
<scales pt_clust_3="65.44358" pt_clust_4="210.52771" pt_clust_5="14000.00000" pt_clust_6="59.76692"></scales>
<clustering>
<clus scale="   59.767">  1  6  2 -1</clus>
<clus scale="   65.444">  2  3  1 -1</clus>
<clus scale="  210.528">  2  4  1 -1</clus>
<clus scale="   65.444">  2  3  1 -1</clus>
</clustering>
</event>
<event>
 6    0  0.6525019E+002  0.3218476E+03  0.7546771E-02  0.1074802E+00
          2   -1    0    0  503    0 -0.00000000000E+00  0.00000000000E+00  0.22687473607E+04  0.22687473607E+04  0.00000000000E+00 0.  1.
         21   -1    0    0  504  502  0.00000000000E+00 -0.00000000000E+00 -0.20222141229E+03  0.20222141229E+03  0.00000000000E+00 0. -1.
         21    1    1    2  503  502 -0.25643366013E+02  0.66843092601E+02 -0.14271819097E+03  0.15966860456E+03  0.00000000000E+00 0. -1.
         21    1    1    2  504  505  0.46585832500E+02  0.27401630006E+03  0.54385848819E+03  0.61076773626E+03  0.00000000000E+00 0. -1.
         21    1    1    2  505  501 -0.28543250162E+02 -0.13694935575E+03  0.67264711919E+03  0.68704002076E+03  0.00000000000E+00 0.  1.
          2    1    1    2  501    0  0.76007836754E+01 -0.20391003691E+03  0.99273853204E+03  0.10134924114E+04  0.00000000000E+00 0.  1.
<scales pt_clust_3="71.59316" pt_clust_4="319.23098" pt_clust_5="33.91209" pt_clust_6="33.91209"></scales>
<clustering>
<clus scale="   33.912">  5  6 -1 -1</clus>
<clus scale="   71.593">  2  3  1 -1</clus>
<clus scale="  319.231">  2  4  1 -1</clus>
<clus scale="   71.593">  2  3  1 -1</clus>
</clustering>
</event>
<event>
 6    0  0.6525019E+002  0.1396664E+03  0.7546771E-02  0.1213779E+00
         -2   -1    0    0    0  501 -0.00000000000E+00  0.00000000000E+00  0.83479044247E+02  0.83479044247E+02  0.00000000000E+00 0. -1.
         21   -1    0    0  504  502  0.00000000000E+00 -0.00000000000E+00 -0.12425032726E+04  0.12425032726E+04  0.00000000000E+00 0. -1.
         21    1    1    2  503  505 -0.42564620879E+02 -0.64327190920E+02 -0.19292610010E+03  0.20777443188E+03  0.00000000000E+00 0.  1.
         21    1    1    2  504  501  0.46808254260E+02  0.22741853676E+03 -0.65788063681E+03  0.69765115625E+03  0.00000000000E+00 0. -1.
         21    1    1    2  505  502 -0.10568536328E+02 -0.33340447009E+02 -0.28676780209E+03  0.28889280310E+03  0.00000000000E+00 0. -1.
         -2    1    1    2    0  503  0.63249029466E+01 -0.12975089883E+03 -0.21449689397E+02  0.13166392566E+03  0.00000000000E+00 0. -1.
<scales pt_clust_3="84.21761" pt_clust_4="14000.00000" pt_clust_5="34.97541" pt_clust_6="139.66638"></scales>
<clustering>
<clus scale="   34.975">  2  5  1 -1</clus>
<clus scale="   84.218">  2  3  1 -1</clus>
<clus scale="  139.666">  1  6  2 -1</clus>
<clus scale="   34.975">  2  3  1 -1</clus>
</clustering>
</event>
<event>
 6    0  0.6525019E+002  0.7308611E+02  0.7546771E-02  0.1349902E+00
          2   -1    0    0  504    0 -0.00000000000E+00  0.00000000000E+00  0.26862470868E+04  0.26862470868E+04  0.00000000000E+00 0. -1.
         21   -1    0    0  503  502  0.00000000000E+00 -0.00000000000E+00 -0.87815500740E+01  0.87815500740E+01  0.00000000000E+00 0. -1.
         21    1    1    2  503  501 -0.74813227781E+01  0.63502655928E+02  0.41102010304E+03  0.41596404003E+03  0.00000000000E+00 0. -1.
         21    1    1    2  504  505 -0.42083980225E+00 -0.93537685340E+02  0.87371968137E+03  0.87871244289E+03  0.00000000000E+00 0. -1.
         21    1    1    2  505  502  0.49923434233E+02 -0.25415224954E+02  0.28559146935E+03  0.29103396763E+03  0.00000000000E+00 0. -1.
          2    1    1    2  501    0 -0.42021271652E+02  0.55450254366E+02  0.11071342829E+04  0.11093181863E+04  0.00000000000E+00 0. -1.
<scales pt_clust_3="54.67518" pt_clust_4="73.08611" pt_clust_5="56.02038" pt_clust_6="14000.00000"></scales>
<clustering>
<clus scale="   56.020">  2  5  1 -1</clus>
<clus scale="   54.675">  2  3  1 -1</clus>
<clus scale="   73.086">  2  4  1 -1</clus>
<clus scale="   56.020">  2  3  1 -1</clus>
</clustering>
</event>
<event>
 6    0  0.6525019E+002  0.7222135E+02  0.7546771E-02  0.1352698E+00
         21   -1    0    0  505  502  0.00000000000E+00  0.00000000000E+00  0.21895432827E+03  0.21895432827E+03  0.00000000000E+00 0. -1.
          2   -1    0    0  503    0 -0.00000000000E+00 -0.00000000000E+00 -0.63978062800E+03  0.63978062800E+03  0.00000000000E+00 0. -1.
         21    1    1    2  503  504  0.90186707637E+02  0.29652543027E+01 -0.15405124085E+03  0.17853352563E+03  0.00000000000E+00 0.  1.
         21    1    1    2  504  502 -0.43005526043E+02  0.59096478742E+02  0.17756823370E+03  0.19202173494E+03  0.00000000000E+00 0. -1.
         21    1    1    2  505  501 -0.45481898762E+02 -0.17341448523E+02 -0.77382038154E+01  0.49287003866E+02  0.00000000000E+00 0.  1.
          2    1    1    2  501    0 -0.16992828321E+01 -0.44720284522E+02 -0.43660508877E+03  0.43889269184E+03  0.00000000000E+00 0. -1.
<scales pt_clust_3="72.22135" pt_clust_4="14000.00000" pt_clust_5="51.47747" pt_clust_6="44.75256"></scales>
<clustering>
<clus scale="   44.753">  2  6  1 -1</clus>
<clus scale="   51.477">  2  5  1 -1</clus>
<clus scale="   72.221">  2  3  1 -1</clus>
<clus scale="   72.221">  1  3  2 -1</clus>
</clustering>
</event>
<event>
 6    0  0.6525019E+002  0.1537970E+03  0.7546771E-02  0.1195883E+00
         21   -1    0    0  505  502  0.00000000000E+00  0.00000000000E+00  0.44143360943E+03  0.44143360943E+03  0.00000000000E+00 0.  1.
          2   -1    0    0  503    0 -0.00000000000E+00 -0.00000000000E+00 -0.29451016463E+04  0.29451016463E+04  0.00000000000E+00 0.  1.
         21    1    1    2  503  502  0.94594872394E+02  0.10107214912E+03  0.33347819743E+03  0.36106990649E+03  0.00000000000E+00 0.  1.
         21    1    1    2  504  501 -0.30064390967E+02 -0.10328925077E+03 -0.16869965669E+03  0.20008026164E+03  0.00000000000E+00 0. -1.
         21    1    1    2  505  504 -0.25988434885E+02  0.46780557089E+02  0.68991237671E+02  0.87313287332E+02  0.00000000000E+00 0.  1.
          2    1    1    2  501    0 -0.38542046542E+02 -0.44563455440E+02 -0.27374378153E+04  0.27380718003E+04  0.00000000000E+00 0.  1.
<scales pt_clust_3="153.79699" pt_clust_4="14000.00000" pt_clust_5="53.51466" pt_clust_6="58.90249"></scales>
<clustering>
<clus scale="   53.515">  1  5  2 -1</clus>
<clus scale="   58.902">  2  6  1 -1</clus>
<clus scale="  153.797">  1  3  2 -1</clus>
<clus scale="   53.515">  1  3  2 -1</clus>
</clustering>
</event>
<event>
 6    0  0.6525019E+002  0.1198665E+03  0.7546771E-02  0.1243318E+00
          2   -1    0    0  504    0 -0.00000000000E+00  0.00000000000E+00  0.47143273650E+03  0.47143273650E+03  0.00000000000E+00 0.  1.
         21   -1    0    0  503  502  0.00000000000E+00 -0.00000000000E+00 -0.28479783185E+03  0.28479783185E+03  0.00000000000E+00 0. -1.
         21    1    1    2  503  505 -0.56321566671E+02 -0.35381729217E+01 -0.13279902577E+03  0.14429213002E+03  0.00000000000E+00 0. -1.
         21    1    1    2  504  502  0.86570418998E+02  0.17350647666E+02  0.37386129478E+02  0.95881203045E+02  0.00000000000E+00 0.  1.
         21    1    1    2  505  501 -0.14040954673E+03 -0.53420623566E+02 -0.54439227917E+02  0.15978808895E+03  0.00000000000E+00 0. -1.
          2    1    1    2  501    0  0.11016069440E+03  0.39608148822E+02  0.33648702885E+03  0.35626914634E+03  0.00000000000E+00 0.  1.
<scales pt_clust_3="56.43259" pt_clust_4="77.12439" pt_clust_5="119.86646" pt_clust_6="14000.00000"></scales>
<clustering>
<clus scale="   56.433">  2  3  1 -1</clus>
<clus scale="   77.124">  2  4  1 -1</clus>
<clus scale="  119.866">  2  5  1 -1</clus>
<clus scale="   56.433">  2  3  1 -1</clus>
</clustering>
</event>
<event>
 6    0  0.6525019E+002  0.1520596E+03  0.7546771E-02  0.1197965E+00
          1   -1    0    0  503    0 -0.00000000000E+00  0.00000000000E+00  0.17036330541E+04  0.17036330541E+04  0.00000000000E+00 0. -1.
         21   -1    0    0  505  502  0.00000000000E+00 -0.00000000000E+00 -0.65446678078E+03  0.65446678078E+03  0.00000000000E+00 0. -1.
         21    1    1    2  503  502 -0.46532522771E+02  0.11683567202E+03  0.23695732265E+03  0.26826222747E+03  0.00000000000E+00 0. -1.
         21    1    1    2  504  501 -0.54082344336E+01 -0.18985901309E+03  0.57116956112E+03  0.60192222205E+03  0.00000000000E+00 0. -1.
         21    1    1    2  505  504  0.33054325644E+02  0.40679842607E+02 -0.62192935455E+03  0.62413424845E+03  0.00000000000E+00 0. -1.
          1    1    1    2  501    0  0.18886431560E+02  0.32343498464E+02  0.86296874406E+03  0.86378113687E+03  0.00000000000E+00 0. -1.
<scales pt_clust_3="152.05957" pt_clust_4="14000.00000" pt_clust_5="52.46457" pt_clust_6="37.45396"></scales>
<clustering>
<clus scale="   37.454">  1  6  2 -1</clus>
<clus scale="   52.465">  2  5  1 -1</clus>
<clus scale="  152.060">  2  3  1 -1</clus>
<clus scale="   52.465">  2  3  1 -1</clus>
</clustering>
</event>
<event>
 6    0  0.6525019E+002  0.1061301E+03  0.7546771E-02  0.1267909E+00
         21   -1    0    0  504  502  0.00000000000E+00  0.00000000000E+00  0.10631628863E+03  0.10631628863E+03  0.00000000000E+00 0.  1.
          1   -1    0    0  505    0 -0.00000000000E+00 -0.00000000000E+00 -0.21872873417E+04  0.21872873417E+04  0.00000000000E+00 0. -1.
         21    1    1    2  503  501  0.91132243112E+02  0.82095048286E+02 -0.14209517335E+03  0.18771180297E+03  0.00000000000E+00 0.  1.
         21    1    1    2  504  503 -0.10331694690E+01 -0.65655408586E+02  0.41745925048E+02  0.77810168833E+02  0.00000000000E+00 0.  1.
         21    1    1    2  505  502 -0.12864840760E+03  0.80988971936E+02 -0.23860666490E+03  0.28291830427E+03  0.00000000000E+00 0.  1.
          1    1    1    2  501    0  0.38549333953E+02 -0.97428611637E+02 -0.17420151399E+04  0.17451633543E+04  0.00000000000E+00 0. -1.
<scales pt_clust_3="103.46402" pt_clust_4="65.66354" pt_clust_5="106.13008" pt_clust_6="14000.00000"></scales>
<clustering>
<clus scale="   65.664">  1  4  2 -1</clus>
<clus scale="  103.464">  1  3  2 -1</clus>
<clus scale="  106.130">  1  5  2 -1</clus>
<clus scale="   65.664">  1  3  2 -1</clus>
</clustering>
</event>
<event>
 6    0  0.6525019E+002  0.6094711E+02  0.7546771E-02  0.1393900E+00
          1   -1    0    0  503    0 -0.00000000000E+00  0.00000000000E+00  0.63193297109E+03  0.63193297109E+03  0.00000000000E+00 0. -1.
         21   -1    0    0  504  502  0.00000000000E+00 -0.00000000000E+00 -0.25310013431E+04  0.25310013431E+04  0.00000000000E+00 0.  1.
         21    1    1    2  503  502 -0.13286401621E+02 -0.60865658221E+02 -0.21706152800E+04  0.21715091183E+04  0.00000000000E+00 0.  1.
         21    1    1    2  504  505 -0.40064706925E+02  0.57610663226E+02 -0.34172650786E+03  0.34885695555E+03  0.00000000000E+00 0.  1.
         21    1    1    2  505  501  0.41561956784E+02  0.60406723985E+02  0.90168282455E+02  0.11621827617E+03  0.00000000000E+00 0. -1.
          1    1    1    2  501    0  0.11789151762E+02 -0.57151728990E+02  0.52310513342E+03  0.52634996422E+03  0.00000000000E+00 0. -1.
<scales pt_clust_3="14000.00000" pt_clust_4="60.94711" pt_clust_5="53.18413" pt_clust_6="58.35498"></scales>
<clustering>
<clus scale="   58.355">  1  6  2 -1</clus>
<clus scale="   53.184">  1  5  2 -1</clus>
<clus scale="   60.947">  1  4  2 -1</clus>
<clus scale="   60.947">  2  3  1 -1</clus>
</clustering>
</event>
<event>
 6    0  0.6525019E+002  0.7621735E+02  0.7546771E-02  0.1340142E+00
          2   -1    0    0  504    0 -0.00000000000E+00  0.00000000000E+00  0.29003675839E+04  0.29003675839E+04  0.00000000000E+00 0. -1.
         21   -1    0    0  505  502  0.00000000000E+00 -0.00000000000E+00 -0.30145622529E+02  0.30145622529E+02  0.00000000000E+00 0.  1.
         21    1    1    2  503  501  0.26532181037E+02 -0.30954815614E+02  0.49917803418E+03  0.50084016118E+03  0.00000000000E+00 0. -1.
         21    1    1    2  504  502  0.33974806513E+02  0.11872899920E+03  0.60265140001E+03  0.61517442459E+03  0.00000000000E+00 0.  1.
         21    1    1    2  505  503 -0.44803050795E+02 -0.57005621592E+02  0.34556984531E+02  0.80318985511E+02  0.00000000000E+00 0.  1.
          2    1    1    2  501    0 -0.15703936754E+02 -0.30768561992E+02  0.17338355426E+04  0.17341796351E+04  0.00000000000E+00 0. -1.
<scales pt_clust_3="48.38209" pt_clust_4="76.21735" pt_clust_5="14000.00000" pt_clust_6="34.54444"></scales>
<clustering>
<clus scale="   34.544">  1  6  2 -1</clus>
<clus scale="   48.382">  1  3  2 -1</clus>
<clus scale="   76.217">  1  4  2 -1</clus>
<clus scale="   76.217">  2  3  1 -1</clus>
</clustering>
</event>
<event>
 6    0  0.6525019E+002  0.1095095E+03  0.7546771E-02  0.1261481E+00
          1   -1    0    0  505    0 -0.00000000000E+00  0.00000000000E+00  0.18468847843E+04  0.18468847843E+04  0.00000000000E+00 0.  1.
         21   -1    0    0  504  502  0.00000000000E+00 -0.00000000000E+00 -0.18578100909E+03  0.18578100909E+03  0.00000000000E+00 0.  1.
         21    1    1    2  503  501  0.65520697161E+02  0.26151747618E+01 -0.12415681670E+02  0.66737920606E+02  0.00000000000E+00 0. -1.
         21    1    1    2  504  503  0.49004382159E+02  0.11086840246E+02 -0.13841526254E+03  0.14725193513E+03  0.00000000000E+00 0.  1.
         21    1    1    2  505  502 -0.28773665709E+02  0.42630674760E+02  0.76454130731E+03  0.76626934485E+03  0.00000000000E+00 0.  1.
          1    1    1    2  501    0 -0.85751413610E+02 -0.56332689768E+02  0.10473934121E+04  0.10524065928E+04  0.00000000000E+00 0.  1.
<scales pt_clust_3="109.50954" pt_clust_4="50.24289" pt_clust_5="51.07448" pt_clust_6="14000.00000"></scales>
<clustering>
<clus scale="   50.243">  2  4  1 -1</clus>
<clus scale="   51.074">  1  5  2 -1</clus>
<clus scale="  109.510">  2  3  1 -1</clus>
<clus scale="   50.243">  2  3  1 -1</clus>
</clustering>
</event>
<event>
 6    0  0.6525019E+002  0.1902867E+03  0.7546771E-02  0.1158203E+00
         21   -1    0    0  505  502  0.00000000000E+00  0.00000000000E+00  0.65519281805E+03  0.65519281805E+03  0.00000000000E+00 0. -1.
          2   -1    0    0  503    0 -0.00000000000E+00 -0.00000000000E+00 -0.22684097933E+04  0.22684097933E+04  0.00000000000E+00 0.  1.
         21    1    1    2  503  504 -0.12488219852E+03 -0.22755001043E+02 -0.11648841072E+04  0.11717799865E+04  0.00000000000E+00 0.  1.
         21    1    1    2  504  502 -0.64173795271E+02  0.15482623080E+03  0.20430581107E+03  0.26425423777E+03  0.00000000000E+00 0. -1.
         21    1    1    2  505  501  0.14820087194E+03  0.24536119142E+02  0.39754853500E+03  0.42498277291E+03  0.00000000000E+00 0. -1.
          2    1    1    2  501    0  0.40855121847E+02 -0.15660734890E+03 -0.10501872142E+04  0.10625856142E+04  0.00000000000E+00 0.  1.
<scales pt_clust_3="126.93838" pt_clust_4="14000.00000" pt_clust_5="148.63563" pt_clust_6="190.28667"></scales>
<clustering>
<clus scale="  126.938">  2  3  1 -1</clus>
<clus scale="  148.636">  1  5  2 -1</clus>
<clus scale="  190.287">  2  6  1 -1</clus>
<clus scale="  148.636">  1  3  2 -1</clus>
</clustering>
</event>
<event>
 6    0  0.6525019E+002  0.9906892E+02  0.7546771E-02  0.1282266E+00
          1   -1    0    0  504    0 -0.00000000000E+00  0.00000000000E+00  0.14667554968E+04  0.14667554968E+04  0.00000000000E+00 0. -1.
         21   -1    0    0  505  502  0.00000000000E+00 -0.00000000000E+00 -0.46661369017E+03  0.46661369017E+03  0.00000000000E+00 0.  1.
         21    1    1    2  503  501 -0.48975509421E+02 -0.14602264347E+03  0.15750877178E+03  0.22029576963E+03  0.00000000000E+00 0.  1.
         21    1    1    2  504  502  0.10381933374E+02  0.49813333964E+02 -0.65088660346E+02  0.82617712912E+02  0.00000000000E+00 0.  1.
         21    1    1    2  505  503 -0.21900182073E+02  0.49211887483E+02 -0.35819545971E+03  0.36222288056E+03  0.00000000000E+00 0.  1.
          1    1    1    2  501    0  0.60493758120E+02  0.46997422020E+02  0.12659171549E+04  0.12682328238E+04  0.00000000000E+00 0. -1.
<scales pt_clust_3="99.06892" pt_clust_4="50.88372" pt_clust_5="14000.00000" pt_clust_6="76.71884"></scales>
<clustering>
<clus scale="   50.884">  2  4  1 -1</clus>
<clus scale="   76.719">  1  6  2 -1</clus>
<clus scale="   99.069">  1  3  2 -1</clus>
<clus scale="   50.884">  2  3  1 -1</clus>
</clustering>
</event>
<event>
 6    0  0.6525019E+002  0.1659475E+03  0.7546771E-02  0.1182141E+00
          2   -1    0    0  505    0 -0.00000000000E+00  0.00000000000E+00  0.24067955401E+04  0.24067955401E+04  0.00000000000E+00 0.  1.
         21   -1    0    0  501  502  0.00000000000E+00 -0.00000000000E+00 -0.45861771539E+02  0.45861771539E+02  0.00000000000E+00 0.  1.
         21    1    1    2  503  502  0.68643815135E+02  0.11404266887E+03  0.98291465652E+02  0.16546575446E+03  0.00000000000E+00 0.  1.
         21    1    1    2  504  503  0.34690389129E+02  0.81770926002E+01  0.52007537640E+02  0.63048171367E+02  0.00000000000E+00 0. -1.
         21    1    1    2  505  504 -0.21198289008E+02 -0.79639544784E+02  0.29554662248E+03  0.30682182225E+03  0.00000000000E+00 0.  1.
          2    1    1    2  501    0 -0.82135915257E+02 -0.42580216689E+02  0.19150881428E+04  0.19173215635E+04  0.00000000000E+00 0.  1.
<scales pt_clust_3="32.78075" pt_clust_4="32.78075" pt_clust_5="82.41253" pt_clust_6="153.37984"></scales>
<clustering>
<clus scale="   32.781">  3  4 -1 -1</clus>
<clus scale="   82.413">  1  5  2 -1</clus>
<clus scale="  153.380">  1  6  2 -1</clus>
<clus scale="  165.947">  2  3  1 -1</clus>
</clustering>
</event>
<event>
 6    0  0.6525019E+002  0.1524659E+03  0.7546771E-02  0.1197475E+00
         21   -1    0    0  503  502  0.00000000000E+00  0.00000000000E+00  0.55928446788E+03  0.55928446788E+03  0.00000000000E+00 0. -1.
          2   -1    0    0  502    0 -0.00000000000E+00 -0.00000000000E+00 -0.20818229407E+03  0.20818229407E+03  0.00000000000E+00 0. -1.
         21    1    1    2  503  505 -0.93048068119E+02 -0.84146764614E+01  0.32632898368E+03  0.33943976690E+03  0.00000000000E+00 0. -1.
         21    1    1    2  504  501  0.16849141407E+03  0.29956018307E+02  0.34577012301E+02  0.17459177938E+03  0.00000000000E+00 0.  1.
         21    1    1    2  505  504 -0.46464899290E+02  0.23009864990E+02  0.11042021309E+03  0.12198796748E+03  0.00000000000E+00 0.  1.
          2    1    1    2  501    0 -0.28978446657E+02 -0.44551206836E+02 -0.12022403526E+03  0.13144724819E+03  0.00000000000E+00 0. -1.
<scales pt_clust_3="37.16487" pt_clust_4="144.07308" pt_clust_5="37.16487" pt_clust_6="53.14659"></scales>
<clustering>
<clus scale="   37.165">  3  5 -1 -1</clus>
<clus scale="   53.147">  2  6  1 -1</clus>
<clus scale="  144.073">  2  4  1 -1</clus>
<clus scale="  152.466">  1  3  2 -1</clus>
</clustering>
</event>
<event>
 6    0  0.6525019E+002  0.1545099E+03  0.7546771E-02  0.1195038E+00
         21   -1    0    0  505  502  0.00000000000E+00  0.00000000000E+00  0.63218245509E+03  0.63218245509E+03  0.00000000000E+00 0. -1.
          1   -1    0    0  504    0 -0.00000000000E+00 -0.00000000000E+00 -0.20382319426E+03  0.20382319426E+03  0.00000000000E+00 0.  1.
         21    1    1    2  503  501 -0.10131770152E+03 -0.68126402284E+02 -0.52581287363E+02  0.13293334837E+03  0.00000000000E+00 0.  1.
         21    1    1    2  504  502 -0.54404431922E+01  0.39468441527E+02  0.23584994920E+03  0.23919146062E+03  0.00000000000E+00 0. -1.
         21    1    1    2  505  503  0.16983735808E+03 -0.19557743900E+02  0.31479902644E+03  0.35822571179E+03  0.00000000000E+00 0. -1.
          1    1    1    2  501    0 -0.63079213369E+02  0.48215704657E+02 -0.69708427436E+02  0.10565512856E+03  0.00000000000E+00 0.  1.
<scales pt_clust_3="154.50987" pt_clust_4="39.84164" pt_clust_5="14000.00000" pt_clust_6="80.69461"></scales>
<clustering>
<clus scale="   39.842">  1  4  2 -1</clus>
<clus scale="   80.695">  2  6  1 -1</clus>
<clus scale="  154.510">  2  3  1 -1</clus>
<clus scale="   39.842">  1  3  2 -1</clus>
</clustering>
</event>
<event>
 6    0  0.6525019E+002  0.9222687E+02  0.7546771E-02  0.1297547E+00
          2   -1    0    0  504    0 -0.00000000000E+00  0.00000000000E+00  0.10424990601E+04  0.10424990601E+04  0.00000000000E+00 0. -1.
         21   -1    0    0  505  502  0.00000000000E+00 -0.00000000000E+00 -0.17505506016E+03  0.17505506016E+03  0.00000000000E+00 0.  1.
         21    1    1    2  503  501  0.19937121562E+02  0.83763329609E+02  0.66226702970E+02  0.10862670201E+03  0.00000000000E+00 0. -1.
         21    1    1    2  504  502 -0.79156307290E+02  0.14540043909E+02  0.51308403972E+02  0.95444676011E+02  0.00000000000E+00 0. -1.
         21    1    1    2  505  503  0.63874930480E+02 -0.53237947166E+01 -0.12136413316E+03  0.13725014518E+03  0.00000000000E+00 0.  1.
          2    1    1    2  501    0 -0.46557447520E+01 -0.92979578802E+02  0.87127302614E+03  0.87623259704E+03  0.00000000000E+00 0. -1.
<scales pt_clust_3="14000.00000" pt_clust_4="49.80427" pt_clust_5="64.09641" pt_clust_6="92.22687"></scales>
<clustering>
<clus scale="   64.096">  2  5  1 -1</clus>
<clus scale="   49.804">  2  4  1 -1</clus>
<clus scale="   92.227">  1  6  2 -1</clus>
<clus scale="   64.096">  2  3  1 -1</clus>
</clustering>
</event>
<event>
 6    0  0.6525019E+002  0.8604753E+02  0.7546771E-02  0.1312716E+00
          1   -1    0    0  504    0 -0.00000000000E+00  0.00000000000E+00  0.22186909855E+04  0.22186909855E+04  0.00000000000E+00 0.  1.
         21   -1    0    0  505  502  0.00000000000E+00 -0.00000000000E+00 -0.64718136262E+02  0.64718136262E+02  0.00000000000E+00 0. -1.
         21    1    1    2  503  502  0.80629593007E+02  0.17110145936E+02  0.69906598826E+01  0.82720962809E+02  0.00000000000E+00 0. -1.
         21    1    1    2  504  503  0.69503468300E+01  0.11993508212E+03  0.19403740032E+03  0.22821753650E+03  0.00000000000E+00 0. -1.
         21    1    1    2  505  501 -0.88329575051E+02 -0.53105704397E+02  0.29653603079E+03  0.31393621522E+03  0.00000000000E+00 0. -1.
          1    1    1    2  501    0  0.74963521453E+00 -0.83939523659E+02  0.16564087583E+04  0.16585344073E+04  0.00000000000E+00 0.  1.
<scales pt_clust_3="82.42505" pt_clust_4="86.04753" pt_clust_5="78.30581" pt_clust_6="14000.00000"></scales>
<clustering>
<clus scale="   82.425">  2  3  1 -1</clus>
<clus scale="   78.306">  2  5  1 -1</clus>
<clus scale="   86.048">  2  4  1 -1</clus>
<clus scale="   82.425">  2  3  1 -1</clus>
</clustering>
</event>
<event>
 6    0  0.6525019E+002  0.9637196E+02  0.7546771E-02  0.1288116E+00
         21   -1    0    0  503  502  0.00000000000E+00  0.00000000000E+00  0.51736546299E+03  0.51736546299E+03  0.00000000000E+00 0. -1.
         -1   -1    0    0    0  501 -0.00000000000E+00 -0.00000000000E+00 -0.46898343935E+03  0.46898343935E+03  0.00000000000E+00 0.  1.
         21    1    1    2  503  505  0.12857902167E+02 -0.47416566442E+02  0.36587435666E+03  0.36915809795E+03  0.00000000000E+00 0. -1.
         21    1    1    2  504  502 -0.20027750571E+02 -0.11201020440E+03  0.66714310733E+02  0.13190222113E+03  0.00000000000E+00 0.  1.
         21    1    1    2  505  501  0.42777547681E+02  0.69958490804E+02  0.71004808413E+01  0.82307507855E+02  0.00000000000E+00 0. -1.
         -1    1    1    2    0  504 -0.35607699278E+02  0.89468280042E+02 -0.39130712459E+03  0.40298107540E+03  0.00000000000E+00 0.  1.
<scales pt_clust_3="49.12898" pt_clust_4="96.37196" pt_clust_5="72.71785" pt_clust_6="14000.00000"></scales>
<clustering>
<clus scale="   49.129">  1  3  2 -1</clus>
<clus scale="   72.718">  1  5  2 -1</clus>
<clus scale="   96.372">  1  4  2 -1</clus>
<clus scale="   49.129">  1  3  2 -1</clus>
</clustering>
</event>
<event>
 6    0  0.6525019E+002  0.2442355E+03  0.7546771E-02  0.1117003E+00
          2   -1    0    0  504    0 -0.00000000000E+00  0.00000000000E+00  0.21931731223E+04  0.21931731223E+04  0.00000000000E+00 0. -1.
         21   -1    0    0  503  502  0.00000000000E+00 -0.00000000000E+00 -0.41430111625E+03  0.41430111625E+03  0.00000000000E+00 0. -1.
         21    1    1    2  503  505 -0.41233494101E+02 -0.10985186777E+03 -0.27525393806E+03  0.29921959212E+03  0.00000000000E+00 0. -1.
         21    1    1    2  504  502  0.24530532032E+02  0.12618270472E+03  0.33411203160E+03  0.35798697132E+03  0.00000000000E+00 0.  1.
         21    1    1    2  505  501 -0.26252538626E+02 -0.11013686203E+03 -0.85456019121E+02  0.14185223074E+03  0.00000000000E+00 0. -1.
          2    1    1    2  501    0  0.42955500695E+02  0.93806025086E+02  0.18054699316E+04  0.18084154444E+04  0.00000000000E+00 0. -1.
<scales pt_clust_3="103.19072" pt_clust_4="219.47145" pt_clust_5="103.19072" pt_clust_6="103.17338"></scales>
<clustering>
<clus scale="  103.173">  1  6  2 -1</clus>
<clus scale="  103.191">  3  5 -1 -1</clus>
<clus scale="  219.471">  1  4  2 -1</clus>
<clus scale="  244.236">  2  3  1 -1</clus>
</clustering>
</event>
<event>
 6    0  0.6525019E+002  0.1315784E+03  0.7546771E-02  0.1225132E+00
          1   -1    0    0  504    0 -0.00000000000E+00  0.00000000000E+00  0.39684050291E+03  0.39684050291E+03  0.00000000000E+00 0. -1.
         21   -1    0    0  505  502  0.00000000000E+00 -0.00000000000E+00 -0.12051017648E+03  0.12051017648E+03  0.00000000000E+00 0. -1.
         21    1    1    2  503  502  0.24996690728E+02  0.31875582300E+02  0.13579722602E+02  0.42723484879E+02  0.00000000000E+00 0.  1.
         21    1    1    2  504  503  0.47229269302E+02 -0.14504823576E+03  0.86298458089E+02  0.17526271265E+03  0.00000000000E+00 0. -1.
         21    1    1    2  505  501 -0.57198000665E+02 -0.99594431089E+01 -0.24655811485E+02  0.63077022973E+02  0.00000000000E+00 0. -1.
          1    1    1    2  501    0 -0.15027959365E+02  0.12313209657E+03  0.20110795722E+03  0.23628745889E+03  0.00000000000E+00 0. -1.
<scales pt_clust_3="40.50787" pt_clust_4="131.57844" pt_clust_5="46.95936" pt_clust_6="14000.00000"></scales>
<clustering>
<clus scale="   40.508">  2  3  1 -1</clus>
<clus scale="   46.959">  2  5  1 -1</clus>
<clus scale="  131.578">  2  4  1 -1</clus>
<clus scale="   40.508">  2  3  1 -1</clus>
</clustering>
</event>
<event>
 6    0  0.6525019E+002  0.1020419E+03  0.7546771E-02  0.1276060E+00
          3   -1    0    0  503    0 -0.00000000000E+00  0.00000000000E+00  0.32491152882E+03  0.32491152882E+03  0.00000000000E+00 0.  1.
         21   -1    0    0  505  502  0.00000000000E+00 -0.00000000000E+00 -0.28092347878E+03  0.28092347878E+03  0.00000000000E+00 0.  1.
         21    1    1    2  503  504  0.11346705731E+03  0.42020334912E+01 -0.43614281025E+02  0.12163320142E+03  0.00000000000E+00 0.  1.
         21    1    1    2  504  502  0.13386061631E+02  0.98309332810E+02 -0.60292706708E+02  0.11609962121E+03  0.00000000000E+00 0. -1.
         21    1    1    2  505  501 -0.29818566229E+02 -0.74685987215E+02 -0.83328043114E+02  0.11580460417E+03  0.00000000000E+00 0. -1.
          3    1    1    2  501    0 -0.97034552708E+02 -0.27825379087E+02  0.23122308089E+03  0.25229758080E+03  0.00000000000E+00 0.  1.
<scales pt_clust_3="14000.00000" pt_clust_4="61.99867" pt_clust_5="80.41855" pt_clust_6="102.04194"></scales>
<clustering>
<clus scale="   80.419">  2  5  1 -1</clus>
<clus scale="   61.999">  2  4  1 -1</clus>
<clus scale="  102.042">  1  6  2 -1</clus>
<clus scale="   80.419">  2  3  1 -1</clus>
</clustering>
</event>
<event>
 6    0  0.6525019E+002  0.9190431E+02  0.7546771E-02  0.1298305E+00
         21   -1    0    0  504  502  0.00000000000E+00  0.00000000000E+00  0.27756096762E+02  0.27756096762E+02  0.00000000000E+00 0.  1.
          2   -1    0    0  503    0 -0.00000000000E+00 -0.00000000000E+00 -0.88753318581E+03  0.88753318581E+03  0.00000000000E+00 0.  1.
         21    1    1    2  503  502 -0.71842074268E+02 -0.50590907632E+02 -0.22908068413E+03  0.24535419991E+03  0.00000000000E+00 0.  1.
         21    1    1    2  504  505 -0.26813546577E+01 -0.31446917507E+02 -0.90022276919E+01  0.32819786515E+02  0.00000000000E+00 0.  1.
         21    1    1    2  505  501  0.44430152238E+02  0.89410991064E+02 -0.35983488001E+03  0.37342938372E+03  0.00000000000E+00 0.  1.
          2    1    1    2  501    0  0.30093276687E+02 -0.73731659245E+01 -0.26185929721E+03  0.26368591242E+03  0.00000000000E+00 0.  1.
<scales pt_clust_3="91.90431" pt_clust_4="31.73788" pt_clust_5="14000.00000" pt_clust_6="30.98336"></scales>
<clustering>
<clus scale="   30.983">  2  6  1 -1</clus>
<clus scale="   31.738">  1  4  2 -1</clus>
<clus scale="   91.904">  2  3  1 -1</clus>
<clus scale="   31.738">  1  3  2 -1</clus>
</clustering>
</event>
<event>
 6    0  0.6525019E+002  0.9012810E+02  0.7546771E-02  0.1302542E+00
          1   -1    0    0  502    0 -0.00000000000E+00  0.00000000000E+00  0.10388510506E+03  0.10388510506E+03  0.00000000000E+00 0. -1.
         21   -1    0    0  504  502  0.00000000000E+00 -0.00000000000E+00 -0.80081594944E+03  0.80081594944E+03  0.00000000000E+00 0.  1.
         21    1    1    2  503  505  0.51495112090E+02 -0.58043884601E+02 -0.19787087417E+03  0.21254110650E+03  0.00000000000E+00 0.  1.
         21    1    1    2  504  503  0.22634559423E+01 -0.47149834747E+02 -0.40273602837E+03  0.40549295765E+03  0.00000000000E+00 0.  1.
         21    1    1    2  505  501  0.36279696753E+02  0.10861169624E+03 -0.14459658266E+03  0.18444752282E+03  0.00000000000E+00 0. -1.
          1    1    1    2  501    0 -0.90038264785E+02 -0.34179768952E+01  0.48272640824E+02  0.10221946754E+03  0.00000000000E+00 0. -1.
<scales pt_clust_3="86.23199" pt_clust_4="47.20413" pt_clust_5="14000.00000" pt_clust_6="90.12810"></scales>
<clustering>
<clus scale="   47.204">  2  4  1 -1</clus>
<clus scale="   90.128">  1  6  2 -1</clus>
<clus scale="   86.232">  2  3  1 -1</clus>
<clus scale="   47.204">  2  3  1 -1</clus>
</clustering>
</event>
<event>
 6    0  0.6525019E+002  0.2410554E+03  0.7546771E-02  0.1119092E+00
         21   -1    0    0  505  502  0.00000000000E+00  0.00000000000E+00  0.66400330905E+02  0.66400330905E+02  0.00000000000E+00 0. -1.
          2   -1    0    0  503    0 -0.00000000000E+00 -0.00000000000E+00 -0.35148441645E+04  0.35148441645E+04  0.00000000000E+00 0. -1.
         21    1    1    2  503  502 -0.14742461759E+03 -0.12062821395E+02 -0.46506640272E+03  0.48802283601E+03  0.00000000000E+00 0. -1.
         21    1    1    2  504  501  0.22390016746E+02 -0.19967013497E+03 -0.35945569455E+03  0.41179833899E+03  0.00000000000E+00 0. -1.
         21    1    1    2  505  504 -0.68246926131E+02  0.23690890069E+02 -0.38279068109E+02  0.81756885055E+02  0.00000000000E+00 0. -1.
          2    1    1    2  501    0  0.19328152697E+03  0.18804206630E+03 -0.25856426682E+04  0.25996664353E+04  0.00000000000E+00 0. -1.
<scales pt_clust_3="165.07257" pt_clust_4="241.05538" pt_clust_5="72.24196" pt_clust_6="14000.00000"></scales>
<clustering>
<clus scale="   72.242">  1  5  2 -1</clus>
<clus scale="  165.073">  1  3  2 -1</clus>
<clus scale="  241.055">  1  4  2 -1</clus>
<clus scale="   72.242">  1  3  2 -1</clus>
</clustering>
</event>
<event>
 6    0  0.6525019E+002  0.2621724E+03  0.7546771E-02  0.1105845E+00
         21   -1    0    0  504  502  0.00000000000E+00  0.00000000000E+00  0.25762278543E+03  0.25762278543E+03  0.00000000000E+00 0.  1.
          2   -1    0    0  503    0 -0.00000000000E+00 -0.00000000000E+00 -0.67574838181E+03  0.67574838181E+03  0.00000000000E+00 0. -1.
         21    1    1    2  503  502 -0.36258950517E+02  0.47301407282E+02 -0.58440575335E+02  0.83471165495E+02  0.00000000000E+00 0.  1.
         21    1    1    2  504  505 -0.14664871692E+03  0.22132898926E+03  0.44725912613E+02  0.26924482339E+03  0.00000000000E+00 0.  1.
         21    1    1    2  505  501  0.17929150302E+03 -0.18671044683E+03 -0.12122304118E+03  0.28583432216E+03  0.00000000000E+00 0. -1.
          2    1    1    2  501    0  0.36161644132E+01 -0.81919949719E+02 -0.28318789248E+03  0.29482085621E+03  0.00000000000E+00 0. -1.
<scales pt_clust_3="59.59979" pt_clust_4="14000.00000" pt_clust_5="262.17239" pt_clust_6="60.88053"></scales>
<clustering>
<clus scale="   59.600">  2  3  1 -1</clus>
<clus scale="   60.881">  2  6  1 -1</clus>
<clus scale="  262.172">  2  5  1 -1</clus>
<clus scale="  262.172">  1  3  2 -1</clus>
</clustering>
</event>
<event>
 6    0  0.6525019E+002  0.1448743E+03  0.7546771E-02  0.1206917E+00
         21   -1    0    0  503  502  0.00000000000E+00  0.00000000000E+00  0.38498745633E+03  0.38498745633E+03  0.00000000000E+00 0.  1.
          2   -1    0    0  505    0 -0.00000000000E+00 -0.00000000000E+00 -0.38934882143E+04  0.38934882143E+04  0.00000000000E+00 0.  1.
         21    1    1    2  503  504  0.69991090144E+02 -0.98411370511E+02  0.26178303556E+03  0.28829482869E+03  0.00000000000E+00 0.  1.
         21    1    1    2  504  501 -0.12381809788E+03 -0.98820004113E+02 -0.75352185549E+02  0.17542595715E+03  0.00000000000E+00 0.  1.
         21    1    1    2  505  502 -0.35959832907E+02  0.19052457895E+03 -0.99008705284E+02  0.21770495742E+03  0.00000000000E+00 0.  1.
          2    1    1    2  501    0  0.89786840642E+02  0.67067956784E+01 -0.35959229027E+04  0.35970499274E+04  0.00000000000E+00 0.  1.
<scales pt_clust_3="122.88917" pt_clust_4="14000.00000" pt_clust_5="144.87430" pt_clust_6="90.03698"></scales>
<clustering>
<clus scale="   90.037">  2  6  1 -1</clus>
<clus scale="  122.889">  1  3  2 -1</clus>
<clus scale="  144.874">  1  5  2 -1</clus>
<clus scale="  122.889">  1  3  2 -1</clus>
</clustering>
</event>
<event>
 6    0  0.6525019E+002  0.1075401E+03  0.7546771E-02  0.1265194E+00
          1   -1    0    0  504    0 -0.00000000000E+00  0.00000000000E+00  0.99915885751E+03  0.99915885751E+03  0.00000000000E+00 0. -1.
         21   -1    0    0  503  502  0.00000000000E+00 -0.00000000000E+00 -0.32001870007E+03  0.32001870007E+03  0.00000000000E+00 0.  1.
         21    1    1    2  503  501  0.95543550719E+01 -0.39663712308E+02  0.14776788485E+03  0.15329658694E+03  0.00000000000E+00 0. -1.
         21    1    1    2  504  505  0.75684799465E+02  0.38022402763E+02  0.17031247853E+03  0.19021102052E+03  0.00000000000E+00 0.  1.
         21    1    1    2  505  502 -0.10717375639E+03  0.23798786276E+02 -0.29711919125E+03  0.31675291647E+03  0.00000000000E+00 0.  1.
          1    1    1    2  501    0  0.21934601853E+02 -0.22157476731E+02  0.65817898531E+03  0.65891703365E+03  0.00000000000E+00 0. -1.
<scales pt_clust_3="53.06985" pt_clust_4="107.54010" pt_clust_5="14000.00000" pt_clust_6="31.17821"></scales>
<clustering>
<clus scale="   31.178">  1  6  2 -1</clus>
<clus scale="   53.070">  1  3  2 -1</clus>
<clus scale="  107.540">  1  4  2 -1</clus>
<clus scale="  107.540">  2  3  1 -1</clus>
</clustering>
</event>
<event>
 6    0  0.6525019E+002  0.9013799E+02  0.7546771E-02  0.1302518E+00
          2   -1    0    0  503    0 -0.00000000000E+00  0.00000000000E+00  0.33098312604E+04  0.33098312604E+04  0.00000000000E+00 0. -1.
         21   -1    0    0  504  502  0.00000000000E+00 -0.00000000000E+00 -0.63909322422E+03  0.63909322422E+03  0.00000000000E+00 0. -1.
         21    1    1    2  503  502 -0.45975345328E+02 -0.55341738713E+01  0.98423456205E+02  0.10877286514E+03  0.00000000000E+00 0.  1.
         21    1    1    2  504  505 -0.10205722798E+02  0.39954527194E+02 -0.41724166838E+03  0.41927452922E+03  0.00000000000E+00 0. -1.
         21    1    1    2  505  501  0.59213855402E+02 -0.11450533459E+03 -0.19584750012E+03  0.23446533992E+03  0.00000000000E+00 0. -1.
          2    1    1    2  501    0 -0.30327872757E+01  0.80084981270E+02  0.31854037485E+04  0.31864117504E+04  0.00000000000E+00 0. -1.
<scales pt_clust_3="46.44265" pt_clust_4="41.23737" pt_clust_5="90.13799" pt_clust_6="14000.00000"></scales>
<clustering>
<clus scale="   41.237">  2  4  1 -1</clus>
<clus scale="   46.443">  1  3  2 -1</clus>
<clus scale="   90.138">  2  5  1 -1</clus>
<clus scale="   41.237">  2  3  1 -1</clus>
</clustering>
</event>
<event>
 6    0  0.6525019E+002  0.5261169E+02  0.7546771E-02  0.1431743E+00
         21   -1    0    0  503  502  0.00000000000E+00  0.00000000000E+00  0.93840685291E+03  0.93840685291E+03  0.00000000000E+00 0.  1.
         -2   -1    0    0    0  501 -0.00000000000E+00 -0.00000000000E+00 -0.52070225494E+03  0.52070225494E+03  0.00000000000E+00 0. -1.
         21    1    1    2  503  505 -0.41636735639E+02  0.17334528589E+02  0.10673660309E+03  0.11587409579E+03  0.00000000000E+00 0.  1.
         21    1    1    2  504  502  0.91341696438E+02 -0.16708880736E+02  0.80112060513E+03  0.80648416981E+03  0.00000000000E+00 0.  1.
         21    1    1    2  505  501 -0.74843415908E+02 -0.39717142248E+02 -0.59348069343E+02  0.10344651578E+03  0.00000000000E+00 0. -1.
         -2    1    1    2    0  504  0.25138455109E+02  0.39091494396E+02 -0.43080454091E+03  0.43330432646E+03  0.00000000000E+00 0. -1.
<scales pt_clust_3="45.10104" pt_clust_4="14000.00000" pt_clust_5="52.61169" pt_clust_6="46.46478"></scales>
<clustering>
<clus scale="   45.101">  1  3  2 -1</clus>
<clus scale="   46.465">  2  6  1 -1</clus>
<clus scale="   52.612">  2  5  1 -1</clus>
<clus scale="   45.101">  1  3  2 -1</clus>
</clustering>
</event>
<event>
 6    0  0.6525019E+002  0.9721101E+02  0.7546771E-02  0.1286273E+00
          2   -1    0    0  504    0 -0.00000000000E+00  0.00000000000E+00  0.27980646929E+03  0.27980646929E+03  0.00000000000E+00 0. -1.
         21   -1    0    0  505  502  0.00000000000E+00 -0.00000000000E+00 -0.13147807189E+04  0.13147807189E+04  0.00000000000E+00 0.  1.
         21    1    1    2  503  501  0.35870321510E+02 -0.92821333205E+02 -0.55643787282E+03  0.56526594288E+03  0.00000000000E+00 0.  1.
         21    1    1    2  504  502 -0.36824399581E+02 -0.40142819542E+02 -0.31507851456E+02  0.62930335044E+02  0.00000000000E+00 0.  1.
         21    1    1    2  505  503 -0.13334662144E+02  0.95676922846E+02 -0.70184639426E+03  0.70846330033E+03  0.00000000000E+00 0.  1.
          2    1    1    2  501    0  0.14288740215E+02  0.37287229901E+02  0.25481786897E+03  0.25792760991E+03  0.00000000000E+00 0. -1.
<scales pt_clust_3="14000.00000" pt_clust_4="31.17024" pt_clust_5="97.21101" pt_clust_6="39.93126"></scales>
<clustering>
<clus scale="   39.931">  1  6  2 -1</clus>
<clus scale="   31.170">  1  4  2 -1</clus>
<clus scale="   97.211">  2  5  1 -1</clus>
<clus scale="   97.211">  2  3  1 -1</clus>
</clustering>
</event>
<event>
 6    0  0.6525019E+002  0.1099819E+03  0.7546771E-02  0.1260603E+00
         21   -1    0    0  504  502  0.00000000000E+00  0.00000000000E+00  0.20257110709E+04  0.20257110709E+04  0.00000000000E+00 0.  1.
          2   -1    0    0  505    0 -0.00000000000E+00 -0.00000000000E+00 -0.13846214126E+04  0.13846214126E+04  0.00000000000E+00 0. -1.
         21    1    1    2  503  502 -0.28087530278E+02  0.10659416686E+03  0.13698437119E+04  0.13742718148E+04  0.00000000000E+00 0.  1.
         21    1    1    2  504  501 -0.10252844999E+02 -0.48544868092E+02  0.38500883135E+02  0.62801616626E+02  0.00000000000E+00 0.  1.
         21    1    1    2  505  503  0.46605562837E+02 -0.11823405662E+03  0.59562166539E+03  0.60902917739E+03  0.00000000000E+00 0.  1.
          2    1    1    2  501    0 -0.82651875602E+01  0.60184757859E+02 -0.13628766022E+04  0.13642298747E+04  0.00000000000E+00 0. -1.
<scales pt_clust_3="14000.00000" pt_clust_4="49.61577" pt_clust_5="109.98193" pt_clust_6="60.73364"></scales>
<clustering>
<clus scale="   49.616">  1  4  2 -1</clus>
<clus scale="   60.734">  2  6  1 -1</clus>
<clus scale="  109.982">  2  5  1 -1</clus>
<clus scale="   49.616">  1  3  2 -1</clus>
</clustering>
</event>
<event>
 6    0  0.6525019E+002  0.1435588E+03  0.7546771E-02  0.1208619E+00
         21   -1    0    0  503  502  0.00000000000E+00  0.00000000000E+00  0.29690389934E+04  0.29690389934E+04  0.00000000000E+00 0.  1.
          2   -1    0    0  505    0 -0.00000000000E+00 -0.00000000000E+00 -0.34847560539E+03  0.34847560539E+03  0.00000000000E+00 0.  1.
         21    1    1    2  503  501  0.38315556919E+02 -0.78786370793E+02  0.14574125522E+03  0.17004672181E+03  0.00000000000E+00 0.  1.
         21    1    1    2  504  502  0.38933146049E+02 -0.20813414045E+02  0.26872177698E+04  0.26875803859E+04  0.00000000000E+00 0.  1.
         21    1    1    2  505  504 -0.20797998294E+03  0.76152906963E+02 -0.15029374034E+02  0.22199283913E+03  0.00000000000E+00 0.  1.
          2    1    1    2  501    0  0.13073127997E+03  0.23446877874E+02 -0.19736626302E+03  0.23789465195E+03  0.00000000000E+00 0.  1.
<scales pt_clust_3="108.62408" pt_clust_4="44.14734" pt_clust_5="143.55876" pt_clust_6="14000.00000"></scales>
<clustering>
<clus scale="   44.147">  1  4  2 -1</clus>
<clus scale="  108.624">  1  3  2 -1</clus>
<clus scale="  143.559">  1  5  2 -1</clus>
<clus scale="   44.147">  1  3  2 -1</clus>
</clustering>
</event>
<event>
 6    0  0.6525019E+002  0.1756507E+03  0.7546771E-02  0.1172080E+00
          1   -1    0    0  504    0 -0.00000000000E+00  0.00000000000E+00  0.14780976571E+04  0.14780976571E+04  0.00000000000E+00 0. -1.
         21   -1    0    0  503  502  0.00000000000E+00 -0.00000000000E+00 -0.13799675359E+03  0.13799675359E+03  0.00000000000E+00 0.  1.
         21    1    1    2  503  505  0.62128730857E+02  0.51713212369E+02 -0.56661556430E+02  0.98715588984E+02  0.00000000000E+00 0.  1.
         21    1    1    2  504  502 -0.23417608635E+03  0.17504911515E+02  0.22189509293E+03  0.32308248732E+03  0.00000000000E+00 0.  1.
         21    1    1    2  505  501  0.12400104435E+03 -0.32151959799E+02  0.48051499238E+03  0.49729736116E+03  0.00000000000E+00 0. -1.
          1    1    1    2  501    0  0.48046311137E+02 -0.37066164084E+02  0.69435237466E+03  0.69699897326E+03  0.00000000000E+00 0. -1.
<scales pt_clust_3="81.20537" pt_clust_4="175.65073" pt_clust_5="14000.00000" pt_clust_6="60.68236"></scales>
<clustering>
<clus scale="   60.682">  1  6  2 -1</clus>
<clus scale="   81.205">  2  3  1 -1</clus>
<clus scale="  175.651">  2  4  1 -1</clus>
<clus scale="   81.205">  2  3  1 -1</clus>
</clustering>
</event>
<event>
 6    0  0.6525019E+002  0.1105027E+03  0.7546771E-02  0.1259642E+00
          2   -1    0    0  504    0 -0.00000000000E+00  0.00000000000E+00  0.27911586965E+04  0.27911586965E+04  0.00000000000E+00 0. -1.
         21   -1    0    0  503  502  0.00000000000E+00 -0.00000000000E+00 -0.77062223103E+03  0.77062223103E+03  0.00000000000E+00 0.  1.
         21    1    1    2  503  505 -0.33922121026E+02 -0.71760544103E+02 -0.38599296802E+03  0.39406960977E+03  0.00000000000E+00 0.  1.
         21    1    1    2  504  502 -0.47810655104E+02 -0.23045734944E+02 -0.19307996893E+02  0.56477990267E+02  0.00000000000E+00 0. -1.
         21    1    1    2  505  501  0.37613625097E+02  0.13588369136E+03 -0.32785215184E+03  0.35688400894E+03  0.00000000000E+00 0.  1.
          2    1    1    2  501    0  0.44119151034E+02 -0.41077412311E+02  0.27536895822E+04  0.27543493185E+04  0.00000000000E+00 0. -1.
<scales pt_clust_3="110.50267" pt_clust_4="53.07508" pt_clust_5="14000.00000" pt_clust_6="60.27277"></scales>
<clustering>
<clus scale="   53.075">  2  4  1 -1</clus>
<clus scale="   60.273">  1  6  2 -1</clus>
<clus scale="  110.503">  2  3  1 -1</clus>
<clus scale="   53.075">  2  3  1 -1</clus>
</clustering>
</event>
<event>
 6    0  0.6525019E+002  0.7456531E+02  0.7546771E-02  0.1345222E+00
          1   -1    0    0  505    0 -0.00000000000E+00  0.00000000000E+00  0.22287991472E+04  0.22287991472E+04  0.00000000000E+00 0. -1.
         21   -1    0    0  503  502  0.00000000000E+00 -0.00000000000E+00 -0.12572776232E+03  0.12572776232E+03  0.00000000000E+00 0.  1.
         21    1    1    2  503  501 -0.30376396344E+02  0.95279031281E+02  0.33638378058E+03  0.35093427745E+03  0.00000000000E+00 0. -1.
         21    1    1    2  504  502 -0.13965468375E+01 -0.51317345973E+02 -0.10798628745E+03  0.11956779925E+03  0.00000000000E+00 0.  1.
         21    1    1    2  505  504  0.34244739362E+01 -0.66678833921E+02  0.24467217410E+03  0.25361834849E+03  0.00000000000E+00 0.  1.
          1    1    1    2  501    0  0.28348469245E+02  0.22717148613E+02  0.16300017177E+04  0.16304064843E+04  0.00000000000E+00 0. -1.
<scales pt_clust_3="74.56531" pt_clust_4="51.10991" pt_clust_5="14000.00000" pt_clust_6="36.32774"></scales>
<clustering>
<clus scale="   36.328">  1  6  2 -1</clus>
<clus scale="   51.110">  2  4  1 -1</clus>
<clus scale="   74.565">  2  3  1 -1</clus>
<clus scale="   51.110">  2  3  1 -1</clus>
</clustering>
</event>
<event>
 6    0  0.6525019E+002  0.8396554E+02  0.7546771E-02  0.1318160E+00
         21   -1    0    0  501  502  0.00000000000E+00  0.00000000000E+00  0.26618133404E+03  0.26618133404E+03  0.00000000000E+00 0.  1.
         -1   -1    0    0    0  501 -0.00000000000E+00 -0.00000000000E+00 -0.16143717258E+04  0.16143717258E+04  0.00000000000E+00 0.  1.
         21    1    1    2  503  504  0.78518338618E+02  0.89876074482E+02 -0.95140013953E+02  0.15262522897E+03  0.00000000000E+00 0.  1.
         21    1    1    2  504  502 -0.42264003710E+02 -0.10776362014E+02  0.23362958980E+03  0.23766607082E+03  0.00000000000E+00 0.  1.
         21    1    1    2  505  503 -0.11218571879E+02 -0.53375517067E+02 -0.50717823054E+03  0.51010249922E+03  0.00000000000E+00 0.  1.
         -1    1    1    2    0  505 -0.25035763029E+02 -0.25724195401E+02 -0.97950173710E+03  0.98015926086E+03  0.00000000000E+00 0.  1.
<scales pt_clust_3="83.96554" pt_clust_4="43.71365" pt_clust_5="14000.00000" pt_clust_6="35.89601"></scales>
<clustering>
<clus scale="   35.896">  2  6  1 -1</clus>
<clus scale="   43.714">  1  4  2 -1</clus>
<clus scale="   83.966">  1  3  2 -1</clus>
<clus scale="   43.714">  1  3  2 -1</clus>
</clustering>
</event>
<event>
 6    0  0.6525019E+002  0.1372848E+03  0.7546771E-02  0.1217030E+00
          2   -1    0    0  504    0 -0.00000000000E+00  0.00000000000E+00  0.72357469080E+03  0.72357469080E+03  0.00000000000E+00 0.  1.
         21   -1    0    0  505  502  0.00000000000E+00 -0.00000000000E+00 -0.30048656225E+03  0.30048656225E+03  0.00000000000E+00 0.  1.
         21    1    1    2  503  502 -0.27188792189E+02  0.35831736321E+02 -0.11791832872E+03  0.12620568924E+03  0.00000000000E+00 0.  1.
         21    1    1    2  504  503 -0.34012630180E+01  0.89603327029E+02 -0.10788291214E+03  0.14028202856E+03  0.00000000000E+00 0.  1.
         21    1    1    2  505  501 -0.69645456430E+01 -0.11423257441E+03  0.71811700147E+01  0.11466976566E+03  0.00000000000E+00 0. -1.
          2    1    1    2  501    0  0.37554600850E+02 -0.11202488935E+02  0.64170819939E+03  0.64290376960E+03  0.00000000000E+00 0.  1.
<scales pt_clust_3="40.82227" pt_clust_4="40.82227" pt_clust_5="124.44804" pt_clust_6="39.18984"></scales>
<clustering>
<clus scale="   39.190">  1  6  2 -1</clus>
<clus scale="   40.822">  3  4 -1 -1</clus>
<clus scale="  124.448">  1  5  2 -1</clus>
<clus scale="  137.285">  2  3  1 -1</clus>
</clustering>
</event>
<event>
 6    0  0.6525019E+002  0.9286097E+02  0.7546771E-02  0.1296068E+00
          3   -1    0    0  505    0 -0.00000000000E+00  0.00000000000E+00  0.11575783109E+04  0.11575783109E+04  0.00000000000E+00 0.  1.
         21   -1    0    0  503  502  0.00000000000E+00 -0.00000000000E+00 -0.58208933986E+02  0.58208933986E+02  0.00000000000E+00 0.  1.
         21    1    1    2  503  501 -0.21308063907E+02  0.34123731596E+02 -0.90479676174E+01  0.41235038056E+02  0.00000000000E+00 0.  1.
         21    1    1    2  504  502 -0.59833848427E+02  0.17562678358E+02  0.40752865313E+02  0.74493846188E+02  0.00000000000E+00 0.  1.
         21    1    1    2  505  504  0.12847996371E+03 -0.61201620464E+02  0.31280731489E+03  0.34365848698E+03  0.00000000000E+00 0.  1.
          3    1    1    2  501    0 -0.47338051380E+02  0.95152105106E+01  0.75485716431E+03  0.75639987364E+03  0.00000000000E+00 0.  1.
<scales pt_clust_3="40.23012" pt_clust_4="14000.00000" pt_clust_5="92.86097" pt_clust_6="48.93381"></scales>
<clustering>
<clus scale="   40.230">  2  3  1 -1</clus>
<clus scale="   48.934">  1  6  2 -1</clus>
<clus scale="   92.861">  1  5  2 -1</clus>
<clus scale="   40.230">  2  3  1 -1</clus>
</clustering>
</event>
<event>
 6    0  0.6525019E+002  0.1482059E+03  0.7546771E-02  0.1202695E+00
         21   -1    0    0  504  502  0.00000000000E+00  0.00000000000E+00  0.46679294985E+03  0.46679294985E+03  0.00000000000E+00 0. -1.
          1   -1    0    0  503    0 -0.00000000000E+00 -0.00000000000E+00 -0.18565000444E+03  0.18565000444E+03  0.00000000000E+00 0. -1.
         21    1    1    2  503  502  0.29791998925E+01 -0.56049530692E+02  0.20374156971E+03  0.21133161796E+03  0.00000000000E+00 0. -1.
         21    1    1    2  504  505  0.30555973731E+02  0.13492751920E+02  0.79697573940E+02  0.86414264893E+02  0.00000000000E+00 0.  1.
         21    1    1    2  505  501  0.84319839381E+02 -0.66644262659E+02  0.11375593337E+03  0.15649826016E+03  0.00000000000E+00 0. -1.
          1    1    1    2  501    0 -0.11785501301E+03  0.10920104143E+03 -0.11605213160E+03  0.19819881127E+03  0.00000000000E+00 0. -1.
<scales pt_clust_3="52.50922" pt_clust_4="33.40242" pt_clust_5="14000.00000" pt_clust_6="148.20590"></scales>
<clustering>
<clus scale="   33.402">  1  4  2 -1</clus>
<clus scale="   52.509">  1  3  2 -1</clus>
<clus scale="  148.206">  2  6  1 -1</clus>
<clus scale="   33.402">  1  3  2 -1</clus>
</clustering>
</event>
<event>
 6    0  0.6525019E+002  0.1049490E+03  0.7546771E-02  0.1270220E+00
         21   -1    0    0  504  502  0.00000000000E+00  0.00000000000E+00  0.29999983857E+02  0.29999983857E+02  0.00000000000E+00 0. -1.
          1   -1    0    0  505    0 -0.00000000000E+00 -0.00000000000E+00 -0.18896676456E+04  0.18896676456E+04  0.00000000000E+00 0.  1.
         21    1    1    2  503  501 -0.97266219624E+02 -0.21265846291E+02 -0.22070675359E+03  0.24212481240E+03  0.00000000000E+00 0. -1.
         21    1    1    2  504  503 -0.42275372906E+02  0.10452257709E+02 -0.20436012820E+02  0.48104963003E+02  0.00000000000E+00 0. -1.
         21    1    1    2  505  502  0.81210102317E+02 -0.54298477838E+02 -0.70428559068E+03  0.71102854982E+03  0.00000000000E+00 0. -1.
          1    1    1    2  501    0  0.58331490212E+02  0.65112066420E+02 -0.91423930466E+03  0.91840930425E+03  0.00000000000E+00 0.  1.
<scales pt_clust_3="104.94904" pt_clust_4="43.54833" pt_clust_5="14000.00000" pt_clust_6="84.93016"></scales>
<clustering>
<clus scale="   43.548">  1  4  2 -1</clus>
<clus scale="   84.930">  2  6  1 -1</clus>
<clus scale="  104.949">  1  3  2 -1</clus>
<clus scale="   43.548">  1  3  2 -1</clus>
</clustering>
</event>
<event>
 6    0  0.6525019E+002  0.1990567E+03  0.7546771E-02  0.1150537E+00
         21   -1    0    0  503  502  0.00000000000E+00  0.00000000000E+00  0.64679163499E+03  0.64679163499E+03  0.00000000000E+00 0. -1.
          1   -1    0    0  504    0 -0.00000000000E+00 -0.00000000000E+00 -0.12763233258E+04  0.12763233258E+04  0.00000000000E+00 0.  1.
         21    1    1    2  503  505  0.13618211531E+03 -0.14601900488E+03  0.59341853289E+03  0.62610915462E+03  0.00000000000E+00 0. -1.
         21    1    1    2  504  502 -0.43688987039E+02  0.11654965415E+02 -0.15113473727E+02  0.47675810380E+02  0.00000000000E+00 0. -1.
         21    1    1    2  505  501 -0.12292099354E+03  0.13648527423E+03 -0.39174460617E+03  0.43266804504E+03  0.00000000000E+00 0. -1.
          1    1    1    2  501    0  0.30427865274E+02 -0.21212347677E+01 -0.81609214380E+03  0.81666195075E+03  0.00000000000E+00 0.  1.
<scales pt_clust_3="199.05666" pt_clust_4="43.17462" pt_clust_5="14000.00000" pt_clust_6="30.50172"></scales>
<clustering>
<clus scale="   30.502">  2  6  1 -1</clus>
<clus scale="   43.175">  2  4  1 -1</clus>
<clus scale="  199.057">  1  3  2 -1</clus>
<clus scale="  199.057">  1  3  2 -1</clus>
</clustering>
</event>
<event>
 6    0  0.6525019E+002  0.1421949E+03  0.7546771E-02  0.1210406E+00
         21   -1    0    0  503  502  0.00000000000E+00  0.00000000000E+00  0.24452053578E+03  0.24452053578E+03  0.00000000000E+00 0.  1.
          2   -1    0    0  504    0 -0.00000000000E+00 -0.00000000000E+00 -0.77163195865E+03  0.77163195865E+03  0.00000000000E+00 0.  1.
         21    1    1    2  503  505  0.35778699029E+02  0.15750969773E+02  0.14894589687E+03  0.15399054694E+03  0.00000000000E+00 0.  1.
         21    1    1    2  504  502  0.72461219757E+02 -0.15182175005E+03 -0.20566896596E+03  0.26570697341E+03  0.00000000000E+00 0.  1.
         21    1    1    2  505  501 -0.10389423443E+03  0.96778638521E+02 -0.18899368235E+02  0.14323862238E+03  0.00000000000E+00 0.  1.
          2    1    1    2  501    0 -0.43456843558E+01  0.39292141756E+02 -0.45148898555E+03  0.45321635170E+03  0.00000000000E+00 0.  1.
<scales pt_clust_3="39.09231" pt_clust_4="142.19494" pt_clust_5="14000.00000" pt_clust_6="39.64204"></scales>
<clustering>
<clus scale="   39.092">  1  3  2 -1</clus>
<clus scale="   39.642">  2  6  1 -1</clus>
<clus scale="  142.195">  2  4  1 -1</clus>
<clus scale="   39.092">  1  3  2 -1</clus>
</clustering>
</event>
<event>
 6    0  0.6525019E+002  0.8755301E+02  0.7546771E-02  0.1308888E+00
         21   -1    0    0  503  502  0.00000000000E+00  0.00000000000E+00  0.10142367434E+04  0.10142367434E+04  0.00000000000E+00 0. -1.
          2   -1    0    0  504    0 -0.00000000000E+00 -0.00000000000E+00 -0.28234765556E+03  0.28234765556E+03  0.00000000000E+00 0. -1.
         21    1    1    2  503  505  0.12050527249E+01 -0.40094119280E+02  0.30830264040E+03  0.31090112356E+03  0.00000000000E+00 0.  1.
         21    1    1    2  504  502  0.12946865173E+03  0.66024739525E+02  0.54823387773E+03  0.56716997690E+03  0.00000000000E+00 0. -1.
         21    1    1    2  505  501 -0.43970533081E+02 -0.34230543859E+02  0.13425099204E+03  0.14535634412E+03  0.00000000000E+00 0. -1.
          2    1    1    2  501    0 -0.86703171375E+02  0.82999236136E+01 -0.25889842231E+03  0.27315695440E+03  0.00000000000E+00 0. -1.
<scales pt_clust_3="40.11222" pt_clust_4="87.55301" pt_clust_5="60.76225" pt_clust_6="14000.00000"></scales>
<clustering>
<clus scale="   40.112">  1  3  2 -1</clus>
<clus scale="   60.762">  1  5  2 -1</clus>
<clus scale="   87.553">  1  4  2 -1</clus>
<clus scale="   40.112">  1  3  2 -1</clus>
</clustering>
</event>
<event>
 6    0  0.6525019E+002  0.1341781E+03  0.7546771E-02  0.1221385E+00
         21   -1    0    0  504  502  0.00000000000E+00  0.00000000000E+00  0.77844277017E+02  0.77844277017E+02  0.00000000000E+00 0. -1.
          1   -1    0    0  503    0 -0.00000000000E+00 -0.00000000000E+00 -0.13114135864E+04  0.13114135864E+04  0.00000000000E+00 0. -1.
         21    1    1    2  503  502  0.18479443788E+02 -0.46550006076E+02  0.39058418991E+02  0.63513408052E+02  0.00000000000E+00 0. -1.
         21    1    1    2  504  505  0.12417410074E+02 -0.78697684169E+02 -0.47986899521E+02  0.93006774442E+02  0.00000000000E+00 0.  1.
         21    1    1    2  505  501 -0.33794856192E+02  0.63831762207E+02 -0.46076715071E+03  0.46639356057E+03  0.00000000000E+00 0. -1.
          1    1    1    2  501    0  0.28980023305E+01  0.61415928037E+02 -0.76387367813E+03  0.76634412033E+03  0.00000000000E+00 0. -1.
<scales pt_clust_3="50.08386" pt_clust_4="121.44274" pt_clust_5="53.72751" pt_clust_6="53.72751"></scales>
<clustering>
<clus scale="   50.084">  1  3  2 -1</clus>
<clus scale="   53.728">  5  6 -1 -1</clus>
<clus scale="  121.443">  1  4  2 -1</clus>
<clus scale="   50.084">  1  3  2 -1</clus>
</clustering>
</event>
<event>
 6    0  0.6525019E+002  0.1488444E+03  0.7546771E-02  0.1201900E+00
         21   -1    0    0  503  502  0.00000000000E+00  0.00000000000E+00  0.71882362271E+03  0.71882362271E+03  0.00000000000E+00 0.  1.
          1   -1    0    0  504    0 -0.00000000000E+00 -0.00000000000E+00 -0.37272117922E+03  0.37272117922E+03  0.00000000000E+00 0.  1.
         21    1    1    2  503  501 -0.77544007176E+02 -0.65833061884E+02  0.48917718177E+02  0.11287164497E+03  0.00000000000E+00 0.  1.
         21    1    1    2  504  505  0.11103733560E+03 -0.10515731104E+03 -0.23994876716E+03  0.28453955933E+03  0.00000000000E+00 0.  1.
         21    1    1    2  505  502 -0.51435434254E+02  0.14250987413E+03  0.60215111907E+03  0.62091918824E+03  0.00000000000E+00 0.  1.
          1    1    1    2  501    0  0.17942105827E+02  0.28480498794E+02 -0.65017626602E+02  0.73214409388E+02  0.00000000000E+00 0.  1.
<scales pt_clust_3="98.34430" pt_clust_4="14000.00000" pt_clust_5="148.84440" pt_clust_6="33.66093"></scales>
<clustering>
<clus scale="   33.661">  2  6  1 -1</clus>
<clus scale="   98.344">  1  3  2 -1</clus>
<clus scale="  148.844">  1  5  2 -1</clus>
<clus scale="   98.344">  1  3  2 -1</clus>
</clustering>
</event>
<event>
 6    0  0.6525019E+002  0.7684852E+02  0.7546771E-02  0.1338240E+00
          1   -1    0    0  503    0 -0.00000000000E+00  0.00000000000E+00  0.12315692234E+04  0.12315692234E+04  0.00000000000E+00 0.  1.
         21   -1    0    0  505  502  0.00000000000E+00 -0.00000000000E+00 -0.24164471329E+02  0.24164471329E+02  0.00000000000E+00 0.  1.
         21    1    1    2  503  502 -0.40764814177E+02  0.24642299923E+02  0.12600234708E+03  0.13470562160E+03  0.00000000000E+00 0.  1.
         21    1    1    2  504  501 -0.12391383699E+02  0.71360663451E+02  0.44654581637E+03  0.45238153897E+03  0.00000000000E+00 0.  1.
         21    1    1    2  505  504 -0.22298375211E+02 -0.86281384017E+02  0.12714176899E+03  0.15526340260E+03  0.00000000000E+00 0. -1.
          1    1    1    2  501    0  0.75454573087E+02 -0.97215793573E+01  0.50771481960E+03  0.51338313153E+03  0.00000000000E+00 0.  1.
<scales pt_clust_3="47.63416" pt_clust_4="14000.00000" pt_clust_5="76.84852" pt_clust_6="69.89852"></scales>
<clustering>
<clus scale="   47.634">  2  3  1 -1</clus>
<clus scale="   69.899">  1  6  2 -1</clus>
<clus scale="   76.849">  2  5  1 -1</clus>
<clus scale="   47.634">  2  3  1 -1</clus>
</clustering>
</event>
<event>
 6    0  0.6525019E+002  0.7334752E+02  0.7546771E-02  0.1349066E+00
         21   -1    0    0  505  502  0.00000000000E+00  0.00000000000E+00  0.30054240113E+03  0.30054240113E+03  0.00000000000E+00 0. -1.
         -2   -1    0    0    0  501 -0.00000000000E+00 -0.00000000000E+00 -0.79913364414E+03  0.79913364414E+03  0.00000000000E+00 0. -1.
         21    1    1    2  503  502  0.30772339256E+01  0.35766727435E+02  0.29236848815E+02  0.46298180188E+02  0.00000000000E+00 0. -1.
         21    1    1    2  504  503 -0.39529061441E+02  0.12417495850E+02  0.12155357818E+03  0.12842123372E+03  0.00000000000E+00 0. -1.
         21    1    1    2  505  501  0.10807379419E+03 -0.61131331259E+02  0.10771102805E+03  0.16437350825E+03  0.00000000000E+00 0. -1.
         -2    1    1    2    0  504 -0.71621966675E+02  0.12947107974E+02 -0.75709269806E+03  0.76058312312E+03  0.00000000000E+00 0. -1.
<scales pt_clust_3="35.89886" pt_clust_4="48.11532" pt_clust_5="14000.00000" pt_clust_6="73.34752"></scales>
<clustering>
<clus scale="   35.899">  1  3  2 -1</clus>
<clus scale="   48.115">  1  4  2 -1</clus>
<clus scale="   73.348">  2  6  1 -1</clus>
<clus scale="   35.899">  1  3  2 -1</clus>
</clustering>
</event>
<event>
 6    0  0.6525019E+002  0.1257060E+03  0.7546771E-02  0.1233970E+00
          2   -1    0    0  505    0 -0.00000000000E+00  0.00000000000E+00  0.22669018289E+03  0.22669018289E+03  0.00000000000E+00 0. -1.
         21   -1    0    0  503  502  0.00000000000E+00 -0.00000000000E+00 -0.23767949912E+04  0.23767949912E+04  0.00000000000E+00 0. -1.
         21    1    1    2  503  501 -0.49155265616E+01  0.34166212545E+02 -0.39828983129E+03  0.39978279377E+03  0.00000000000E+00 0. -1.
         21    1    1    2  504  502  0.41249769430E+02 -0.20306218020E+02 -0.16313016124E+04  0.16319493977E+04  0.00000000000E+00 0. -1.
         21    1    1    2  505  504  0.89988376469E+02 -0.31388660066E+02 -0.32060676506E+03  0.33447250063E+03  0.00000000000E+00 0. -1.
          2    1    1    2  501    0 -0.12632261934E+03  0.17528665541E+02  0.20009340041E+03  0.23728048205E+03  0.00000000000E+00 0. -1.
<scales pt_clust_3="34.51800" pt_clust_4="38.02018" pt_clust_5="14000.00000" pt_clust_6="125.70605"></scales>
<clustering>
<clus scale="   34.518">  2  3  1 -1</clus>
<clus scale="   38.020">  2  4  1 -1</clus>
<clus scale="  125.706">  1  6  2 -1</clus>
<clus scale="   34.518">  2  3  1 -1</clus>
</clustering>
</event>
<event>
 6    0  0.6525019E+002  0.1158194E+03  0.7546771E-02  0.1250158E+00
          2   -1    0    0  505    0 -0.00000000000E+00  0.00000000000E+00  0.49966151890E+03  0.49966151890E+03  0.00000000000E+00 0. -1.
         21   -1    0    0  503  502  0.00000000000E+00 -0.00000000000E+00 -0.64358110718E+03  0.64358110718E+03  0.00000000000E+00 0. -1.
         21    1    1    2  503  504 -0.25669245387E+02 -0.22482632772E+02 -0.54343601244E+03  0.54450627044E+03  0.00000000000E+00 0. -1.
         21    1    1    2  504  501 -0.32669160740E+02 -0.10034332114E+03  0.47992193058E+02  0.11592802403E+03  0.00000000000E+00 0. -1.
         21    1    1    2  505  502  0.87127568514E+02  0.10869237163E+03  0.98697986137E+01  0.13965191645E+03  0.00000000000E+00 0. -1.
          2    1    1    2  501    0 -0.28789162387E+02  0.14133582287E+02  0.34165443249E+03  0.34315641515E+03  0.00000000000E+00 0. -1.
<scales pt_clust_3="34.16515" pt_clust_4="115.81937" pt_clust_5="14000.00000" pt_clust_6="32.07139"></scales>
<clustering>
<clus scale="   32.071">  1  6  2 -1</clus>
<clus scale="   34.165">  2  3  1 -1</clus>
<clus scale="  115.819">  1  4  2 -1</clus>
<clus scale="   34.165">  2  3  1 -1</clus>
</clustering>
</event>
<event>
 6    0  0.6525019E+002  0.1193764E+03  0.7546771E-02  0.1244129E+00
         21   -1    0    0  504  502  0.00000000000E+00  0.00000000000E+00  0.52647586453E+02  0.52647586453E+02  0.00000000000E+00 0.  1.
          1   -1    0    0  503    0 -0.00000000000E+00 -0.00000000000E+00 -0.30953096705E+04  0.30953096705E+04  0.00000000000E+00 0. -1.
         21    1    1    2  503  502 -0.56361664300E+02  0.38826251864E+01 -0.87334743529E+02  0.10401475572E+03  0.00000000000E+00 0.  1.
         21    1    1    2  504  505 -0.57135992578E+02  0.37512605178E+02  0.92802303880E+01  0.68977096715E+02  0.00000000000E+00 0.  1.
         21    1    1    2  505  501  0.14665410982E+03 -0.48105871446E+02 -0.11816786492E+04  0.11917155838E+04  0.00000000000E+00 0. -1.
          1    1    1    2  501    0 -0.33156452940E+02  0.67106410817E+01 -0.17829289217E+04  0.17832498207E+04  0.00000000000E+00 0. -1.
<scales pt_clust_3="58.94148" pt_clust_4="14000.00000" pt_clust_5="119.37643" pt_clust_6="33.82873"></scales>
<clustering>
<clus scale="   33.829">  2  6  1 -1</clus>
<clus scale="   58.941">  1  3  2 -1</clus>
<clus scale="  119.376">  2  5  1 -1</clus>
<clus scale="   58.941">  1  3  2 -1</clus>
</clustering>
</event>
<event>
 6    0  0.6525019E+002  0.1063427E+03  0.7546771E-02  0.1267497E+00
          1   -1    0    0  505    0 -0.00000000000E+00  0.00000000000E+00  0.18380857777E+04  0.18380857777E+04  0.00000000000E+00 0. -1.
         21   -1    0    0  503  502  0.00000000000E+00 -0.00000000000E+00 -0.24572994260E+03  0.24572994260E+03  0.00000000000E+00 0. -1.
         21    1    1    2  503  504  0.10305144302E+02  0.62349192398E+02 -0.12362386402E+03  0.13883975492E+03  0.00000000000E+00 0. -1.
         21    1    1    2  504  501 -0.72037791696E+02  0.71737110791E+01 -0.85690280150E+02  0.11217722441E+03  0.00000000000E+00 0. -1.
         21    1    1    2  505  502 -0.35400062150E+02 -0.24746468893E+02  0.19445048807E+02  0.47367309888E+02  0.00000000000E+00 0.  1.
          1    1    1    2  501    0  0.97132709544E+02 -0.44776434584E+02  0.17822249305E+04  0.17854314311E+04  0.00000000000E+00 0. -1.
<scales pt_clust_3="49.30864" pt_clust_4="106.34270" pt_clust_5="43.19204" pt_clust_6="14000.00000"></scales>
<clustering>
<clus scale="   43.192">  2  5  1 -1</clus>
<clus scale="   49.309">  2  3  1 -1</clus>
<clus scale="  106.343">  2  4  1 -1</clus>
<clus scale="   43.192">  2  3  1 -1</clus>
</clustering>
</event>
<event>
 6    0  0.6525019E+002  0.8296115E+02  0.7546771E-02  0.1320852E+00
         21   -1    0    0  505  502  0.00000000000E+00  0.00000000000E+00  0.21051584656E+03  0.21051584656E+03  0.00000000000E+00 0. -1.
          3   -1    0    0  503    0 -0.00000000000E+00 -0.00000000000E+00 -0.27862844580E+03  0.27862844580E+03  0.00000000000E+00 0. -1.
         21    1    1    2  503  504 -0.69545012530E+01  0.11840493603E+03 -0.72326432474E+02  0.13892158507E+03  0.00000000000E+00 0. -1.
         21    1    1    2  504  502 -0.20983235342E+02  0.25392992452E+02  0.61433183967E+02  0.69707505503E+02  0.00000000000E+00 0. -1.
         21    1    1    2  505  501  0.12864124369E+02 -0.71508498934E+02  0.90087613291E+02  0.11573560033E+03  0.00000000000E+00 0. -1.
          3    1    1    2  501    0  0.15073612225E+02 -0.72289429545E+02 -0.14730696402E+03  0.16477960146E+03  0.00000000000E+00 0. -1.
<scales pt_clust_3="14000.00000" pt_clust_4="32.94086" pt_clust_5="53.51809" pt_clust_6="82.96115"></scales>
<clustering>
<clus scale="   32.941">  1  4  2 -1</clus>
<clus scale="   53.518">  1  5  2 -1</clus>
<clus scale="   82.961">  2  6  1 -1</clus>
<clus scale="   32.941">  1  3  2 -1</clus>
</clustering>
</event>
<event>
 6    0  0.6525019E+002  0.8685903E+02  0.7546771E-02  0.1310641E+00
         21   -1    0    0  501  502  0.00000000000E+00  0.00000000000E+00  0.14738807166E+03  0.14738807166E+03  0.00000000000E+00 0. -1.
          1   -1    0    0  503    0 -0.00000000000E+00 -0.00000000000E+00 -0.11931146000E+04  0.11931146000E+04  0.00000000000E+00 0.  1.
         21    1    1    2  503  504 -0.87969337445E+02 -0.10669159806E+03 -0.83168223029E+02  0.16136497374E+03  0.00000000000E+00 0. -1.
         21    1    1    2  504  505  0.19580150451E+02  0.58443428972E+02  0.66522696684E+02  0.90687848447E+02  0.00000000000E+00 0. -1.
         21    1    1    2  505  502  0.35171853011E+02  0.55734844862E+01  0.18049542997E+02  0.39923789599E+02  0.00000000000E+00 0. -1.
          1    1    1    2  501    0  0.33217333983E+02  0.42674684605E+02 -0.10471305450E+04  0.10485260598E+04  0.00000000000E+00 0.  1.
<scales pt_clust_3="86.85903" pt_clust_4="14000.00000" pt_clust_5="35.61071" pt_clust_6="54.23225"></scales>
<clustering>
<clus scale="   35.611">  1  5  2 -1</clus>
<clus scale="   54.232">  2  6  1 -1</clus>
<clus scale="   86.859">  2  3  1 -1</clus>
<clus scale="   35.611">  1  3  2 -1</clus>
</clustering>
</event>
<event>
 6    0  0.6525019E+002  0.8392197E+02  0.7546771E-02  0.1318276E+00
          2   -1    0    0  505    0 -0.00000000000E+00  0.00000000000E+00  0.59333600007E+02  0.59333600007E+02  0.00000000000E+00 0. -1.
         21   -1    0    0  504  502  0.00000000000E+00 -0.00000000000E+00 -0.57491171900E+03  0.57491171900E+03  0.00000000000E+00 0. -1.
         21    1    1    2  503  502 -0.43047540603E+02 -0.92000018385E+02 -0.29383983249E+03  0.31090021115E+03  0.00000000000E+00 0. -1.
         21    1    1    2  504  501  0.40648693682E+02  0.19887421341E+02 -0.87952874930E+02  0.98911748716E+02  0.00000000000E+00 0. -1.
         21    1    1    2  505  503 -0.55281528165E+02  0.86339960209E+02 -0.12907718127E+03  0.16483796532E+03  0.00000000000E+00 0. -1.
          2    1    1    2  501    0  0.57680375087E+02 -0.14227363164E+02 -0.47082303039E+01  0.59595393827E+02  0.00000000000E+00 0. -1.
<scales pt_clust_3="14000.00000" pt_clust_4="45.25291" pt_clust_5="83.92197" pt_clust_6="61.75696"></scales>
<clustering>
<clus scale="   45.253">  2  4  1 -1</clus>
<clus scale="   61.757">  1  6  2 -1</clus>
<clus scale="   83.922">  1  5  2 -1</clus>
<clus scale="   45.253">  2  3  1 -1</clus>
</clustering>
</event>
<event>
 6    0  0.6525019E+002  0.1304156E+03  0.7546771E-02  0.1226840E+00
         21   -1    0    0  504  502  0.00000000000E+00  0.00000000000E+00  0.60887362516E+03  0.60887362516E+03  0.00000000000E+00 0. -1.
         -2   -1    0    0    0  501 -0.00000000000E+00 -0.00000000000E+00 -0.17409231624E+03  0.17409231624E+03  0.00000000000E+00 0.  1.
         21    1    1    2  503  501  0.42048893026E+02 -0.74240969053E+02  0.16184301580E+03  0.18295625886E+03  0.00000000000E+00 0. -1.
         21    1    1    2  504  503  0.12066968620E+02 -0.34421318571E+02  0.21558935218E+03  0.21865316754E+03  0.00000000000E+00 0. -1.
         21    1    1    2  505  502 -0.37013833702E+02 -0.29738767763E+02  0.18579314238E+03  0.19176420404E+03  0.00000000000E+00 0. -1.
         -2    1    1    2    0  505 -0.17102027944E+02  0.13840105539E+03 -0.12844420145E+03  0.18959231097E+03  0.00000000000E+00 0.  1.
<scales pt_clust_3="14000.00000" pt_clust_4="36.47518" pt_clust_5="55.85209" pt_clust_6="130.41564"></scales>
<clustering>
<clus scale="   36.475">  1  4  2 -1</clus>
<clus scale="   55.852">  1  5  2 -1</clus>
<clus scale="  130.416">  2  6  1 -1</clus>
<clus scale="   36.475">  1  3  2 -1</clus>
</clustering>
</event>
<event>
 6    0  0.6525019E+002  0.1032127E+03  0.7546771E-02  0.1273682E+00
         21   -1    0    0  505  502  0.00000000000E+00  0.00000000000E+00  0.18560011006E+03  0.18560011006E+03  0.00000000000E+00 0.  1.
         -3   -1    0    0    0  501 -0.00000000000E+00 -0.00000000000E+00 -0.88984665320E+03  0.88984665320E+03  0.00000000000E+00 0.  1.
         21    1    1    2  503  502 -0.70245896250E+02  0.15760577183E+03 -0.52764100135E+02  0.18043867523E+03  0.00000000000E+00 0. -1.
         21    1    1    2  504  501 -0.26472683131E+02 -0.85528853065E+02 -0.64210829725E+02  0.11017721322E+03  0.00000000000E+00 0. -1.
         21    1    1    2  505  504  0.39389876680E+02 -0.81683472740E+02  0.76424787707E+02  0.11859384588E+03  0.00000000000E+00 0.  1.
         -3    1    1    2    0  503  0.57328702701E+02  0.96065539736E+01 -0.66369640099E+03  0.66623702894E+03  0.00000000000E+00 0.  1.
<scales pt_clust_3="14000.00000" pt_clust_4="81.91408" pt_clust_5="103.21269" pt_clust_6="58.12801"></scales>
<clustering>
<clus scale="   58.128">  2  6  1 -1</clus>
<clus scale="   81.914">  2  4  1 -1</clus>
<clus scale="  103.213">  1  5  2 -1</clus>
<clus scale="  103.213">  1  3  2 -1</clus>
</clustering>
</event>
<event>
 6    0  0.6525019E+002  0.1819738E+03  0.7546771E-02  0.1165906E+00
         21   -1    0    0  503  502  0.00000000000E+00  0.00000000000E+00  0.97734057906E+03  0.97734057906E+03  0.00000000000E+00 0.  1.
          2   -1    0    0  505    0 -0.00000000000E+00 -0.00000000000E+00 -0.25546744451E+04  0.25546744451E+04  0.00000000000E+00 0.  1.
         21    1    1    2  503  501  0.15289736267E+02  0.44225867535E+02  0.73019496935E+01  0.47360551767E+02  0.00000000000E+00 0. -1.
         21    1    1    2  504  502 -0.39040582094E+02  0.10536825594E+02  0.35690396774E+03  0.35918746350E+03  0.00000000000E+00 0.  1.
         21    1    1    2  505  504 -0.11637256511E+03 -0.17072050236E+03  0.57054690148E+03  0.60680460663E+03  0.00000000000E+00 0.  1.
          2    1    1    2  501    0  0.14012341094E+03  0.11595780923E+03 -0.25120866849E+04  0.25186624022E+04  0.00000000000E+00 0.  1.
<scales pt_clust_3="46.70474" pt_clust_4="40.43750" pt_clust_5="181.97380" pt_clust_6="14000.00000"></scales>
<clustering>
<clus scale="   40.438">  1  4  2 -1</clus>
<clus scale="   46.705">  1  3  2 -1</clus>
<clus scale="  181.974">  1  5  2 -1</clus>
<clus scale="   40.438">  1  3  2 -1</clus>
</clustering>
</event>
<event>
 6    0  0.6525019E+002  0.7782115E+02  0.7546771E-02  0.1335351E+00
          2   -1    0    0  505    0 -0.00000000000E+00  0.00000000000E+00  0.95809690912E+03  0.95809690912E+03  0.00000000000E+00 0.  1.
         21   -1    0    0  504  502  0.00000000000E+00 -0.00000000000E+00 -0.29702402742E+03  0.29702402742E+03  0.00000000000E+00 0.  1.
         21    1    1    2  503  501 -0.84970048741E+02  0.42198775077E+02  0.31396827792E+03  0.32798891039E+03  0.00000000000E+00 0. -1.
         21    1    1    2  504  503  0.59696976016E+02 -0.49528973720E+02 -0.26449783973E+03  0.27563736214E+03  0.00000000000E+00 0.  1.
         21    1    1    2  505  502  0.45716493695E+02 -0.24981593428E+02  0.15762518723E+02  0.54429172348E+02  0.00000000000E+00 0.  1.
          2    1    1    2  501    0 -0.20443420970E+02  0.32311792071E+02  0.59583992479E+03  0.59706549167E+03  0.00000000000E+00 0.  1.
<scales pt_clust_3="77.82115" pt_clust_4="14000.00000" pt_clust_5="48.88537" pt_clust_6="38.23592"></scales>
<clustering>
<clus scale="   38.236">  1  6  2 -1</clus>
<clus scale="   48.885">  1  5  2 -1</clus>
<clus scale="   77.821">  1  3  2 -1</clus>
<clus scale="   77.821">  2  3  1 -1</clus>
</clustering>
</event>
<event>
 6    0  0.6525019E+002  0.6741598E+02  0.7546771E-02  0.1369107E+00
         21   -1    0    0  503  502  0.00000000000E+00  0.00000000000E+00  0.11599085670E+04  0.11599085670E+04  0.00000000000E+00 0. -1.
          2   -1    0    0  505    0 -0.00000000000E+00 -0.00000000000E+00 -0.61289462729E+03  0.61289462729E+03  0.00000000000E+00 0. -1.
         21    1    1    2  503  504 -0.34015449556E+02 -0.19923343505E+02  0.30386141161E+03  0.30640781304E+03  0.00000000000E+00 0. -1.
         21    1    1    2  504  501  0.11673389581E+02  0.11684468505E+03 -0.33074382443E+02  0.12199534099E+03  0.00000000000E+00 0.  1.
         21    1    1    2  505  502  0.38168444132E+02 -0.33646339069E+02  0.80751843471E+03  0.80911984815E+03  0.00000000000E+00 0. -1.
          2    1    1    2  501    0 -0.15826384157E+02 -0.63275002475E+02 -0.53129152419E+03  0.53528019210E+03  0.00000000000E+00 0. -1.
<scales pt_clust_3="39.42069" pt_clust_4="14000.00000" pt_clust_5="52.82892" pt_clust_6="67.41598"></scales>
<clustering>
<clus scale="   39.421">  1  3  2 -1</clus>
<clus scale="   52.829">  1  5  2 -1</clus>
<clus scale="   67.416">  2  6  1 -1</clus>
<clus scale="   39.421">  1  3  2 -1</clus>
</clustering>
</event>
<event>
 6    0  0.6525019E+002  0.1116107E+03  0.7546771E-02  0.1257616E+00
         21   -1    0    0  503  502  0.00000000000E+00  0.00000000000E+00  0.14199994242E+03  0.14199994242E+03  0.00000000000E+00 0. -1.
         -2   -1    0    0    0  501 -0.00000000000E+00 -0.00000000000E+00 -0.40245520861E+03  0.40245520861E+03  0.00000000000E+00 0.  1.
         21    1    1    2  503  505 -0.15033829849E+02  0.66558569341E+02  0.14654173798E+02  0.69791145587E+02  0.00000000000E+00 0. -1.
         21    1    1    2  504  502 -0.50920603784E+02 -0.12778934549E+02 -0.70597344352E+01  0.52972152195E+02  0.00000000000E+00 0. -1.
         21    1    1    2  505  501  0.10162368522E+03  0.56128531671E+02  0.13957020486E+02  0.11692982462E+03  0.00000000000E+00 0. -1.
         -2    1    1    2    0  504 -0.35669251585E+02 -0.10990816646E+03 -0.28200672604E+03  0.30476202863E+03  0.00000000000E+00 0.  1.
<scales pt_clust_3="70.30278" pt_clust_4="52.49961" pt_clust_5="14000.00000" pt_clust_6="111.61075"></scales>
<clustering>
<clus scale="   52.500">  1  4  2 -1</clus>
<clus scale="   70.303">  1  3  2 -1</clus>
<clus scale="  111.611">  2  6  1 -1</clus>
<clus scale="   52.500">  1  3  2 -1</clus>
</clustering>
</event>
<event>
 6    0  0.6525019E+002  0.1381383E+03  0.7546771E-02  0.1215856E+00
          2   -1    0    0  504    0 -0.00000000000E+00  0.00000000000E+00  0.90196107902E+03  0.90196107902E+03  0.00000000000E+00 0. -1.
         21   -1    0    0  505  502  0.00000000000E+00 -0.00000000000E+00 -0.13838260079E+04  0.13838260079E+04  0.00000000000E+00 0. -1.
         21    1    1    2  503  501 -0.86101172522E+02 -0.31377446725E+02  0.46208549901E+03  0.47108488032E+03  0.00000000000E+00 0. -1.
         21    1    1    2  504  502  0.21674247072E+02 -0.25507378887E+02 -0.46102150755E+03  0.46223503739E+03  0.00000000000E+00 0. -1.
         21    1    1    2  505  503  0.95597684015E+02  0.77933346434E+02 -0.91272883714E+03  0.92102467601E+03  0.00000000000E+00 0. -1.
          2    1    1    2  501    0 -0.31170758565E+02 -0.21048520822E+02  0.42979991683E+03  0.43144249318E+03  0.00000000000E+00 0. -1.
<scales pt_clust_3="32.63456" pt_clust_4="33.47237" pt_clust_5="128.40298" pt_clust_6="32.63456"></scales>
<clustering>
<clus scale="   32.635">  3  6 -1 -1</clus>
<clus scale="   33.472">  2  4  1 -1</clus>
<clus scale="  128.403">  2  5  1 -1</clus>
<clus scale="   33.472">  2  3  1 -1</clus>
</clustering>
</event>
<event>
 6    0  0.6525019E+002  0.1457896E+03  0.7546771E-02  0.1205744E+00
         21   -1    0    0  505  502  0.00000000000E+00  0.00000000000E+00  0.41152952717E+03  0.41152952717E+03  0.00000000000E+00 0.  1.
          2   -1    0    0  503    0 -0.00000000000E+00 -0.00000000000E+00 -0.90485499664E+03  0.90485499664E+03  0.00000000000E+00 0. -1.
         21    1    1    2  503  504 -0.10526554919E+01 -0.12458681227E+03 -0.71967011523E+02  0.14388270439E+03  0.00000000000E+00 0.  1.
         21    1    1    2  504  502 -0.51358483671E+01 -0.43567073481E+02  0.33619454477E+02  0.55269653061E+02  0.00000000000E+00 0.  1.
         21    1    1    2  505  501 -0.37410871727E+02  0.23649423744E+02  0.32235571740E+03  0.32537989659E+03  0.00000000000E+00 0.  1.
          2    1    1    2  501    0  0.43599375586E+02  0.14450446201E+03 -0.77733362982E+03  0.79185226977E+03  0.00000000000E+00 0. -1.
<scales pt_clust_3="14000.00000" pt_clust_4="43.86875" pt_clust_5="44.47287" pt_clust_6="145.78962"></scales>
<clustering>
<clus scale="   43.869">  1  4  2 -1</clus>
<clus scale="   44.473">  1  5  2 -1</clus>
<clus scale="  145.790">  2  6  1 -1</clus>
<clus scale="   43.869">  1  3  2 -1</clus>
</clustering>
</event>
<event>
 6    0  0.6525019E+002  0.1635287E+03  0.7546771E-02  0.1184770E+00
          1   -1    0    0  504    0 -0.00000000000E+00  0.00000000000E+00  0.10735044854E+04  0.10735044854E+04  0.00000000000E+00 0.  1.
         21   -1    0    0  503  502  0.00000000000E+00 -0.00000000000E+00 -0.12517282394E+04  0.12517282394E+04  0.00000000000E+00 0. -1.
         21    1    1    2  503  505 -0.14249058446E+03  0.12570380529E+03 -0.11886915736E+04  0.12037826509E+04  0.00000000000E+00 0. -1.
         21    1    1    2  504  502  0.35714340263E+01 -0.37594516520E+02 -0.38927938622E+02  0.54235479336E+02  0.00000000000E+00 0.  1.
         21    1    1    2  505  501  0.92221570625E+02 -0.82741464177E+02  0.47480354452E+03  0.49070293852E+03  0.00000000000E+00 0.  1.
          1    1    1    2  501    0  0.46697579809E+02 -0.53678245936E+01  0.57459221369E+03  0.57651165602E+03  0.00000000000E+00 0.  1.
<scales pt_clust_3="14000.00000" pt_clust_4="37.76378" pt_clust_5="163.52865" pt_clust_6="47.01133"></scales>
<clustering>
<clus scale="   37.764">  2  4  1 -1</clus>
<clus scale="   47.011">  1  6  2 -1</clus>
<clus scale="  163.529">  1  5  2 -1</clus>
<clus scale="   37.764">  2  3  1 -1</clus>
</clustering>
</event>
<event>
 6    0  0.6525019E+002  0.7239116E+02  0.7546771E-02  0.1352146E+00
         -1   -1    0    0    0  501 -0.00000000000E+00  0.00000000000E+00  0.42779797901E+03  0.42779797901E+03  0.00000000000E+00 0.  1.
         21   -1    0    0  504  502  0.00000000000E+00 -0.00000000000E+00 -0.29867556103E+03  0.29867556103E+03  0.00000000000E+00 0.  1.
         21    1    1    2  503  502 -0.38020805604E+02  0.99393930776E+02  0.85349524972E+02  0.13641582220E+03  0.00000000000E+00 0.  1.
         21    1    1    2  504  505 -0.24131004154E+02 -0.67685669123E+02 -0.21532823492E+03  0.22700199100E+03  0.00000000000E+00 0.  1.
         21    1    1    2  505  501  0.44552302722E+02 -0.56430389683E+02 -0.25917181031E+02  0.76426414480E+02  0.00000000000E+00 0.  1.
         -1    1    1    2    0  503  0.17599507036E+02  0.24722128030E+02  0.28501830896E+03  0.28662931236E+03  0.00000000000E+00 0.  1.
<scales pt_clust_3="72.39116" pt_clust_4="14000.00000" pt_clust_5="70.57671" pt_clust_6="30.34677"></scales>
<clustering>
<clus scale="   30.347">  1  6  2 -1</clus>
<clus scale="   70.577">  1  5  2 -1</clus>
<clus scale="   72.391">  1  3  2 -1</clus>
<clus scale="   72.391">  2  3  1 -1</clus>
</clustering>
</event>
<event>
 6    0  0.6525019E+002  0.9559148E+02  0.7546771E-02  0.1289849E+00
          2   -1    0    0  505    0 -0.00000000000E+00  0.00000000000E+00  0.32935173694E+03  0.32935173694E+03  0.00000000000E+00 0.  1.
         21   -1    0    0  504  502  0.00000000000E+00 -0.00000000000E+00 -0.79360843057E+03  0.79360843057E+03  0.00000000000E+00 0.  1.
         21    1    1    2  503  502 -0.38609666464E+02 -0.11593691826E+02 -0.44730453335E+03  0.44911742962E+03  0.00000000000E+00 0.  1.
         21    1    1    2  504  501 -0.44362513698E+02  0.64953732723E+02 -0.30186939619E+03  0.31194895796E+03  0.00000000000E+00 0. -1.
         21    1    1    2  505  503  0.61047400280E+02 -0.80566465521E+02  0.31209382256E+02  0.10579114324E+03  0.00000000000E+00 0.  1.
          2    1    1    2  501    0  0.21924779882E+02  0.27206424625E+02  0.25370785365E+03  0.25610263669E+03  0.00000000000E+00 0.  1.
<scales pt_clust_3="39.96256" pt_clust_4="95.59148" pt_clust_5="14000.00000" pt_clust_6="34.94117"></scales>
<clustering>
<clus scale="   34.941">  1  6  2 -1</clus>
<clus scale="   39.963">  2  3  1 -1</clus>
<clus scale="   95.591">  2  4  1 -1</clus>
<clus scale="   39.963">  2  3  1 -1</clus>
</clustering>
</event>
<event>
 6    0  0.6525019E+002  0.1202067E+03  0.7546771E-02  0.1242756E+00
         21   -1    0    0  504  502  0.00000000000E+00  0.00000000000E+00  0.18729454948E+04  0.18729454948E+04  0.00000000000E+00 0. -1.
          1   -1    0    0  505    0 -0.00000000000E+00 -0.00000000000E+00 -0.83240540777E+03  0.83240540777E+03  0.00000000000E+00 0.  1.
         21    1    1    2  503  501  0.42558821086E+02 -0.17583467253E+02  0.23203828425E+03  0.23656330428E+03  0.00000000000E+00 0.  1.
         21    1    1    2  504  503  0.30063997881E+02 -0.24627080796E+02  0.65855937389E+03  0.65970507503E+03  0.00000000000E+00 0. -1.
         21    1    1    2  505  502  0.46325370752E+02  0.22574197595E+02  0.97444797891E+03  0.97580966277E+03  0.00000000000E+00 0. -1.
          1    1    1    2  501    0 -0.11894818972E+03  0.19636350453E+02 -0.82450554999E+03  0.83327286051E+03  0.00000000000E+00 0.  1.
<scales pt_clust_3="53.27135" pt_clust_4="38.86306" pt_clust_5="120.20674" pt_clust_6="14000.00000"></scales>
<clustering>
<clus scale="   38.863">  1  4  2 -1</clus>
<clus scale="   53.271">  1  3  2 -1</clus>
<clus scale="  120.207">  1  5  2 -1</clus>
<clus scale="   38.863">  1  3  2 -1</clus>
</clustering>
</event>
<event>
 6    0  0.6525019E+002  0.7398222E+02  0.7546771E-02  0.1347052E+00
          2   -1    0    0  503    0 -0.00000000000E+00  0.00000000000E+00  0.18777114140E+04  0.18777114140E+04  0.00000000000E+00 0.  1.
         21   -1    0    0  504  502  0.00000000000E+00 -0.00000000000E+00 -0.16917868670E+03  0.16917868670E+03  0.00000000000E+00 0. -1.
         21    1    1    2  503  505  0.41129234820E+02 -0.71461399169E+02  0.18998944238E+03  0.20710947285E+03  0.00000000000E+00 0. -1.
         21    1    1    2  504  501  0.22195905391E+02 -0.22601716991E+02 -0.11852975510E+03  0.12268984747E+03  0.00000000000E+00 0. -1.
         21    1    1    2  505  502 -0.13627761105E+02  0.92091211627E+02  0.15046876691E+02  0.94302256759E+02  0.00000000000E+00 0. -1.
          2    1    1    2  501    0 -0.49697379106E+02  0.19719045324E+01  0.16220261634E+04  0.16227885237E+04  0.00000000000E+00 0.  1.
<scales pt_clust_3="73.98222" pt_clust_4="31.67800" pt_clust_5="14000.00000" pt_clust_6="49.55568"></scales>
<clustering>
<clus scale="   31.678">  2  4  1 -1</clus>
<clus scale="   49.556">  1  6  2 -1</clus>
<clus scale="   73.982">  1  3  2 -1</clus>
<clus scale="   31.678">  2  3  1 -1</clus>
</clustering>
</event>
<event>
 6    0  0.6525019E+002  0.8412875E+02  0.7546771E-02  0.1317727E+00
          3   -1    0    0  505    0 -0.00000000000E+00  0.00000000000E+00  0.24245684963E+03  0.24245684963E+03  0.00000000000E+00 0.  1.
         21   -1    0    0  503  502  0.00000000000E+00 -0.00000000000E+00 -0.18522242977E+03  0.18522242977E+03  0.00000000000E+00 0. -1.
         21    1    1    2  503  501  0.15240820813E+02 -0.92060562288E+02 -0.32290999798E+02  0.98742789184E+02  0.00000000000E+00 0. -1.
         21    1    1    2  504  502 -0.33867000519E+02  0.72728503276E+02 -0.69695175871E+02  0.10627241624E+03  0.00000000000E+00 0. -1.
         21    1    1    2  505  504 -0.48386104223E+02  0.55872608087E+02  0.49312339303E+02  0.88851956782E+02  0.00000000000E+00 0. -1.
          3    1    1    2  501    0  0.67012283929E+02 -0.36540549076E+02  0.10990825622E+03  0.13381211720E+03  0.00000000000E+00 0.  1.
<scales pt_clust_3="84.12875" pt_clust_4="14000.00000" pt_clust_5="73.91186" pt_clust_6="33.11584"></scales>
<clustering>
<clus scale="   73.912">  1  5  2 -1</clus>
<clus scale="   33.116">  1  6  2 -1</clus>
<clus scale="   84.129">  1  3  2 -1</clus>
<clus scale="   84.129">  2  3  1 -1</clus>
</clustering>
</event>
<event>
 6    0  0.6525019E+002  0.1289341E+03  0.7546771E-02  0.1229046E+00
         21   -1    0    0  501  502  0.00000000000E+00  0.00000000000E+00  0.10578937554E+03  0.10578937554E+03  0.00000000000E+00 0. -1.
          2   -1    0    0  503    0 -0.00000000000E+00 -0.00000000000E+00 -0.11343329642E+04  0.11343329642E+04  0.00000000000E+00 0. -1.
         21    1    1    2  503  505  0.97809441127E+02 -0.50625728877E+02 -0.92026019460E+02  0.14352156443E+03  0.00000000000E+00 0. -1.
         21    1    1    2  504  502 -0.15808208149E+02  0.76905857279E+02  0.24924469043E+02  0.82374993085E+02  0.00000000000E+00 0. -1.
         21    1    1    2  505  504  0.27623598480E+02 -0.36676594936E+02  0.58285343054E+00  0.45919228295E+02  0.00000000000E+00 0. -1.
          2    1    1    2  501    0 -0.10962483146E+03  0.10396466534E+02 -0.96202489166E+03  0.96830655392E+03  0.00000000000E+00 0. -1.
<scales pt_clust_3="41.69926" pt_clust_4="78.51376" pt_clust_5="41.69926" pt_clust_6="111.59378"></scales>
<clustering>
<clus scale="   41.699">  3  5 -1 -1</clus>
<clus scale="   78.514">  1  4  2 -1</clus>
<clus scale="  111.594">  2  6  1 -1</clus>
<clus scale="   78.514">  1  3  2 -1</clus>
</clustering>
</event>
<event>
 6    0  0.6525019E+002  0.8362893E+02  0.7546771E-02  0.1319057E+00
         21   -1    0    0  505  502  0.00000000000E+00  0.00000000000E+00  0.15199460683E+04  0.15199460683E+04  0.00000000000E+00 0.  1.
          2   -1    0    0  503    0 -0.00000000000E+00 -0.00000000000E+00 -0.35905019649E+03  0.35905019649E+03  0.00000000000E+00 0.  1.
         21    1    1    2  503  504 -0.12809393139E+02  0.14641257153E+03 -0.71843499411E+02  0.16359159533E+03  0.00000000000E+00 0.  1.
         21    1    1    2  504  502  0.82072598380E+02 -0.22359353246E+02  0.82460285107E+03  0.82897871751E+03  0.00000000000E+00 0.  1.
         21    1    1    2  505  501 -0.83297478501E+02 -0.41610288870E+02  0.63647753716E+03  0.64325231548E+03  0.00000000000E+00 0.  1.
          2    1    1    2  501    0  0.14034273260E+02 -0.82442929411E+02 -0.22834101700E+03  0.24317363649E+03  0.00000000000E+00 0.  1.
<scales pt_clust_3="67.70030" pt_clust_4="82.59888" pt_clust_5="14000.00000" pt_clust_6="83.62893"></scales>
<clustering>
<clus scale="   83.629">  2  6  1 -1</clus>
<clus scale="   67.700">  2  3  1 -1</clus>
<clus scale="   82.599">  1  4  2 -1</clus>
<clus scale="   82.599">  1  3  2 -1</clus>
</clustering>
</event>
<event>
 6    0  0.6525019E+002  0.9572313E+02  0.7546771E-02  0.1289556E+00
          1   -1    0    0  503    0 -0.00000000000E+00  0.00000000000E+00  0.45140525785E+03  0.45140525785E+03  0.00000000000E+00 0.  1.
         21   -1    0    0  505  502  0.00000000000E+00 -0.00000000000E+00 -0.16508885949E+03  0.16508885949E+03  0.00000000000E+00 0.  1.
         21    1    1    2  503  504 -0.11725988378E+03  0.63125142462E+02  0.97352888281E+02  0.16496135551E+03  0.00000000000E+00 0.  1.
         21    1    1    2  504  502  0.85476228463E+02  0.54052781151E+00 -0.14912906998E+02  0.86769076276E+02  0.00000000000E+00 0.  1.
         21    1    1    2  505  501 -0.88837371930E+01 -0.44076736218E+02 -0.72181158781E+02  0.85039985566E+02  0.00000000000E+00 0.  1.
          1    1    1    2  501    0  0.40667392510E+02 -0.19588934055E+02  0.27605757585E+03  0.27972369999E+03  0.00000000000E+00 0.  1.
<scales pt_clust_3="14000.00000" pt_clust_4="95.72313" pt_clust_5="44.96309" pt_clust_6="45.38457"></scales>
<clustering>
<clus scale="   44.963">  2  5  1 -1</clus>
<clus scale="   45.385">  1  6  2 -1</clus>
<clus scale="   95.723">  2  4  1 -1</clus>
<clus scale="   44.963">  2  3  1 -1</clus>
</clustering>
</event>
<event>
 6    0  0.6525019E+002  0.7111704E+02  0.7546771E-02  0.1356335E+00
          4   -1    0    0  503    0 -0.00000000000E+00  0.00000000000E+00  0.79262515388E+03  0.79262515388E+03  0.00000000000E+00 0. -1.
         21   -1    0    0  504  502  0.00000000000E+00 -0.00000000000E+00 -0.42734382835E+03  0.42734382835E+03  0.00000000000E+00 0. -1.
         21    1    1    2  503  502  0.65664583932E+02 -0.29707474404E+02  0.15144570737E+03  0.16772052319E+03  0.00000000000E+00 0. -1.
         21    1    1    2  504  505 -0.35996771459E+02  0.63094038994E+02 -0.36851485404E+03  0.37560594106E+03  0.00000000000E+00 0. -1.
         21    1    1    2  505  501  0.57532323252E+00 -0.68058754881E+02 -0.21242058591E+02  0.71299019390E+02  0.00000000000E+00 0. -1.
          4    1    1    2  501    0 -0.30243135705E+02  0.34672190291E+02  0.60359253080E+03  0.60534349858E+03  0.00000000000E+00 0. -1.
<scales pt_clust_3="40.01538" pt_clust_4="71.11704" pt_clust_5="14000.00000" pt_clust_6="46.00878"></scales>
<clustering>
<clus scale="   46.009">  1  6  2 -1</clus>
<clus scale="   40.015">  1  3  2 -1</clus>
<clus scale="   71.117">  2  4  1 -1</clus>
<clus scale="   71.117">  2  3  1 -1</clus>
</clustering>
</event>
<event>
 6    0  0.6525019E+002  0.8991462E+02  0.7546771E-02  0.1303059E+00
         21   -1    0    0  504  502  0.00000000000E+00  0.00000000000E+00  0.25238171044E+03  0.25238171044E+03  0.00000000000E+00 0. -1.
          1   -1    0    0  503    0 -0.00000000000E+00 -0.00000000000E+00 -0.40291548311E+03  0.40291548311E+03  0.00000000000E+00 0. -1.
         21    1    1    2  503  505  0.76155162900E+02  0.35899999645E+02 -0.13374709147E+03  0.15804019516E+03  0.00000000000E+00 0. -1.
         21    1    1    2  504  501  0.14378113290E+02  0.26430750447E+02  0.31607185527E+02  0.43638616934E+02  0.00000000000E+00 0. -1.
         21    1    1    2  505  502 -0.55697987268E+02  0.55964480975E+02  0.17860855818E+03  0.19528263100E+03  0.00000000000E+00 0. -1.
          1    1    1    2  501    0 -0.34835288922E+02 -0.11829523107E+03 -0.22700242491E+03  0.25833575045E+03  0.00000000000E+00 0. -1.
<scales pt_clust_3="85.57166" pt_clust_4="30.08845" pt_clust_5="89.91462" pt_clust_6="14000.00000"></scales>
<clustering>
<clus scale="   30.088">  1  4  2 -1</clus>
<clus scale="   85.572">  2  3  1 -1</clus>
<clus scale="   89.915">  1  5  2 -1</clus>
<clus scale="   30.088">  1  3  2 -1</clus>
</clustering>
</event>
<event>
 6    0  0.6525019E+002  0.3361618E+03  0.7546771E-02  0.1068443E+00
         21   -1    0    0  503  502  0.00000000000E+00  0.00000000000E+00  0.65034429633E+02  0.65034429633E+02  0.00000000000E+00 0. -1.
          2   -1    0    0  504    0 -0.00000000000E+00 -0.00000000000E+00 -0.46808682284E+04  0.46808682284E+04  0.00000000000E+00 0.  1.
         21    1    1    2  503  501 -0.70506235770E+02  0.34388361673E+03 -0.63632901589E+03  0.72673357402E+03  0.00000000000E+00 0. -1.
         21    1    1    2  504  505  0.14025824560E+03 -0.26853193692E+03 -0.13458356866E+04  0.13795127662E+04  0.00000000000E+00 0.  1.
         21    1    1    2  505  502 -0.36559104000E+02  0.69288484790E+01 -0.15514862503E+03  0.15954834025E+03  0.00000000000E+00 0. -1.
          2    1    1    2  501    0 -0.33192905834E+02 -0.82280528289E+02 -0.24785204712E+04  0.24801079776E+04  0.00000000000E+00 0.  1.
<scales pt_clust_3="336.16175" pt_clust_4="14000.00000" pt_clust_5="37.20990" pt_clust_6="88.81627"></scales>
<clustering>
<clus scale="   37.210">  1  5  2 -1</clus>
<clus scale="   88.816">  2  6  1 -1</clus>
<clus scale="  336.162">  1  3  2 -1</clus>
<clus scale="   37.210">  1  3  2 -1</clus>
</clustering>
</event>
<event>
 6    0  0.6525019E+002  0.1503021E+03  0.7546771E-02  0.1200102E+00
         21   -1    0    0  504  502  0.00000000000E+00  0.00000000000E+00  0.40135072000E+03  0.40135072000E+03  0.00000000000E+00 0.  1.
          2   -1    0    0  502    0 -0.00000000000E+00 -0.00000000000E+00 -0.19783533507E+04  0.19783533507E+04  0.00000000000E+00 0.  1.
         21    1    1    2  503  505  0.78399092041E+02 -0.44395664213E+02 -0.76901395918E+02  0.11845343949E+03  0.00000000000E+00 0.  1.
         21    1    1    2  504  503 -0.84292871745E+02  0.13964234042E+03  0.35861774987E+03  0.39396949373E+03  0.00000000000E+00 0.  1.
         21    1    1    2  505  501 -0.25066353182E+02 -0.85441231805E+02 -0.48056473096E+03  0.48874429592E+03  0.00000000000E+00 0.  1.
          2    1    1    2  501    0  0.30960132887E+02 -0.98054444042E+01 -0.13781542537E+04  0.13785368416E+04  0.00000000000E+00 0.  1.
<scales pt_clust_3="150.30209" pt_clust_4="14000.00000" pt_clust_5="93.36157" pt_clust_6="32.47578"></scales>
<clustering>
<clus scale="   32.476">  2  6  1 -1</clus>
<clus scale="   93.362">  2  5  1 -1</clus>
<clus scale="  150.302">  2  3  1 -1</clus>
<clus scale="  150.302">  1  3  2 -1</clus>
</clustering>
</event>
<event>
 6    0  0.6525019E+002  0.8183845E+02  0.7546771E-02  0.1323914E+00
         21   -1    0    0  503  502  0.00000000000E+00  0.00000000000E+00  0.58926553822E+03  0.58926553822E+03  0.00000000000E+00 0. -1.
         -1   -1    0    0    0  501 -0.00000000000E+00 -0.00000000000E+00 -0.56061051515E+03  0.56061051515E+03  0.00000000000E+00 0.  1.
         21    1    1    2  503  501  0.29538110985E+02  0.20710361165E+02  0.12437744476E+02  0.38159095218E+02  0.00000000000E+00 0.  1.
         21    1    1    2  504  502 -0.26300977653E+02 -0.67878703605E+02  0.53664319943E+03  0.54155810706E+03  0.00000000000E+00 0. -1.
         21    1    1    2  505  504  0.70144599385E+02  0.27961764027E+01 -0.37325520915E+02  0.79506464750E+02  0.00000000000E+00 0.  1.
         -1    1    1    2    0  505 -0.73381732717E+02  0.44372166037E+02 -0.48310039992E+03  0.49065238634E+03  0.00000000000E+00 0.  1.
<scales pt_clust_3="36.07519" pt_clust_4="48.12041" pt_clust_5="81.83845" pt_clust_6="14000.00000"></scales>
<clustering>
<clus scale="   36.075">  1  3  2 -1</clus>
<clus scale="   48.120">  1  4  2 -1</clus>
<clus scale="   81.838">  1  5  2 -1</clus>
<clus scale="   36.075">  1  3  2 -1</clus>
</clustering>
</event>
<event>
 6    0  0.6525019E+002  0.8304061E+02  0.7546771E-02  0.1320638E+00
         21   -1    0    0  501  502  0.00000000000E+00  0.00000000000E+00  0.36094928685E+02  0.36094928685E+02  0.00000000000E+00 0.  1.
          2   -1    0    0  505    0 -0.00000000000E+00 -0.00000000000E+00 -0.15120166943E+04  0.15120166943E+04  0.00000000000E+00 0.  1.
         21    1    1    2  503  502 -0.99737447225E+02 -0.18549766901E+02 -0.89193426978E+02  0.13508189978E+03  0.00000000000E+00 0.  1.
         21    1    1    2  504  503  0.12833654894E+02 -0.44805832039E+02 -0.10234232257E+03  0.11245539681E+03  0.00000000000E+00 0.  1.
         21    1    1    2  505  504  0.43164619212E+02  0.10292335001E+02 -0.11377456681E+04  0.11386106981E+04  0.00000000000E+00 0.  1.
          2    1    1    2  501    0  0.43739173119E+02  0.53063263939E+02 -0.14664034797E+03  0.16196362831E+03  0.00000000000E+00 0.  1.
<scales pt_clust_3="83.04061" pt_clust_4="48.86825" pt_clust_5="44.37473" pt_clust_6="14000.00000"></scales>
<clustering>
<clus scale="   44.375">  2  5  1 -1</clus>
<clus scale="   48.868">  2  4  1 -1</clus>
<clus scale="   83.041">  1  3  2 -1</clus>
<clus scale="   83.041">  1  3  2 -1</clus>
</clustering>
</event>
<event>
 6    0  0.6525019E+002  0.1341407E+03  0.7546771E-02  0.1221438E+00
         -2   -1    0    0    0  501 -0.00000000000E+00  0.00000000000E+00  0.72471383004E+03  0.72471383004E+03  0.00000000000E+00 0.  1.
         21   -1    0    0  504  502  0.00000000000E+00 -0.00000000000E+00 -0.53665730458E+03  0.53665730458E+03  0.00000000000E+00 0. -1.
         21    1    1    2  503  502  0.85348651657E+02  0.10656645316E+03 -0.45152353736E+03  0.47171422077E+03  0.00000000000E+00 0. -1.
         21    1    1    2  504  501 -0.95046308596E+02  0.64831059316E+02  0.90081720043E+02  0.14612180986E+03  0.00000000000E+00 0.  1.
         21    1    1    2  505  503  0.71268152371E+02 -0.16677614458E+03  0.13922491185E+03  0.22864165855E+03  0.00000000000E+00 0.  1.
         -2    1    1    2    0  505 -0.61570495431E+02 -0.46213678925E+01  0.41027343093E+03  0.41489344545E+03  0.00000000000E+00 0.  1.
<scales pt_clust_3="134.14069" pt_clust_4="134.10610" pt_clust_5="14000.00000" pt_clust_6="61.74369"></scales>
<clustering>
<clus scale="   61.744">  1  6  2 -1</clus>
<clus scale="  134.106">  1  4  2 -1</clus>
<clus scale="  134.141">  2  3  1 -1</clus>
<clus scale="  134.141">  2  3  1 -1</clus>
</clustering>
</event>
<event>
 6    0  0.6525019E+002  0.5728570E+02  0.7546771E-02  0.1409589E+00
         21   -1    0    0  503  502  0.00000000000E+00  0.00000000000E+00  0.83974281942E+02  0.83974281942E+02  0.00000000000E+00 0.  1.
          1   -1    0    0  505    0 -0.00000000000E+00 -0.00000000000E+00 -0.22524884300E+04  0.22524884300E+04  0.00000000000E+00 0.  1.
         21    1    1    2  503  504  0.11597232889E+02 -0.28055530217E+02 -0.14636002614E+02  0.33701945922E+02  0.00000000000E+00 0.  1.
         21    1    1    2  504  501  0.25717628300E+02 -0.91266614073E+02 -0.22096300396E+03  0.24044883108E+03  0.00000000000E+00 0.  1.
         21    1    1    2  505  502 -0.14793697871E+02  0.75667762355E+02  0.41314012125E+02  0.87471774616E+02  0.00000000000E+00 0.  1.
          1    1    1    2  501    0 -0.22521163318E+02  0.43654381935E+02 -0.19742291536E+04  0.19748401603E+04  0.00000000000E+00 0.  1.
<scales pt_clust_3="30.35801" pt_clust_4="14000.00000" pt_clust_5="57.28570" pt_clust_6="48.99721"></scales>
<clustering>
<clus scale="   30.358">  1  3  2 -1</clus>
<clus scale="   48.997">  2  6  1 -1</clus>
<clus scale="   57.286">  1  5  2 -1</clus>
<clus scale="   30.358">  1  3  2 -1</clus>
</clustering>
</event>
<event>
 6    0  0.6525019E+002  0.1009514E+03  0.7546771E-02  0.1278308E+00
          1   -1    0    0  505    0 -0.00000000000E+00  0.00000000000E+00  0.23683659794E+04  0.23683659794E+04  0.00000000000E+00 0.  1.
         21   -1    0    0  501  502  0.00000000000E+00 -0.00000000000E+00 -0.77050379108E+02  0.77050379108E+02  0.00000000000E+00 0. -1.
         21    1    1    2  503  504 -0.64183677890E+02 -0.28018135190E+01  0.97397317902E+02  0.11667747084E+03  0.00000000000E+00 0. -1.
         21    1    1    2  504  502  0.52536517837E+02 -0.34313231413E+02 -0.45102607065E+02  0.77276961123E+02  0.00000000000E+00 0. -1.
         21    1    1    2  505  503  0.69878112294E+02 -0.52492682390E+02  0.40464798019E+03  0.41397876776E+03  0.00000000000E+00 0. -1.
          1    1    1    2  501    0 -0.58230952242E+02  0.89607727322E+02  0.18343729092E+04  0.18374831587E+04  0.00000000000E+00 0.  1.
<scales pt_clust_3="39.99827" pt_clust_4="62.74937" pt_clust_5="100.95138" pt_clust_6="14000.00000"></scales>
<clustering>
<clus scale="   62.749">  2  4  1 -1</clus>
<clus scale="   39.998">  2  3  1 -1</clus>
<clus scale="  100.951">  2  5  1 -1</clus>
<clus scale="   62.749">  2  3  1 -1</clus>
</clustering>
</event>
<event>
 6    0  0.6525019E+002  0.1079224E+03  0.7546771E-02  0.1264466E+00
         21   -1    0    0  505  502  0.00000000000E+00  0.00000000000E+00  0.21309453153E+03  0.21309453153E+03  0.00000000000E+00 0. -1.
          1   -1    0    0  504    0 -0.00000000000E+00 -0.00000000000E+00 -0.25742886545E+04  0.25742886545E+04  0.00000000000E+00 0. -1.
         21    1    1    2  503  501  0.51179554572E+02  0.10024030131E+03 -0.25732941841E+02  0.11545409958E+03  0.00000000000E+00 0. -1.
         21    1    1    2  504  502 -0.71435899192E+02 -0.46559702392E+02 -0.20797043387E+03  0.22477231801E+03  0.00000000000E+00 0. -1.
         21    1    1    2  505  503  0.39459785456E+02 -0.18563491841E+02  0.15667994628E+03  0.16263543114E+03  0.00000000000E+00 0. -1.
          1    1    1    2  501    0 -0.19203440835E+02 -0.35117107078E+02 -0.22841706935E+04  0.22845213373E+04  0.00000000000E+00 0. -1.
<scales pt_clust_3="107.92244" pt_clust_4="14000.00000" pt_clust_5="43.58523" pt_clust_6="40.02478"></scales>
<clustering>
<clus scale="   40.025">  2  6  1 -1</clus>
<clus scale="   43.585">  1  5  2 -1</clus>
<clus scale="  107.922">  1  3  2 -1</clus>
<clus scale="   43.585">  1  3  2 -1</clus>
</clustering>
</event>
<event>
 6    0  0.6525019E+002  0.1515698E+03  0.7546771E-02  0.1198557E+00
         21   -1    0    0  505  502  0.00000000000E+00  0.00000000000E+00  0.33047329860E+03  0.33047329860E+03  0.00000000000E+00 0. -1.
         -1   -1    0    0    0  501 -0.00000000000E+00 -0.00000000000E+00 -0.10188123069E+04  0.10188123069E+04  0.00000000000E+00 0. -1.
         21    1    1    2  503  502  0.63427059307E+02 -0.42188510031E+02  0.22574141648E+03  0.23824787375E+03  0.00000000000E+00 0. -1.
         21    1    1    2  504  501 -0.13935868619E+03 -0.52948531179E+02 -0.17484761514E+03  0.22977397349E+03  0.00000000000E+00 0. -1.
         21    1    1    2  505  504  0.38305206179E+02 -0.71210190636E+02  0.35261838923E+02  0.88213249317E+02  0.00000000000E+00 0. -1.
         -1    1    1    2    0  503  0.37626420702E+02  0.16634723185E+03 -0.77449464856E+03  0.79305050894E+03  0.00000000000E+00 0. -1.
<scales pt_clust_3="76.17652" pt_clust_4="14000.00000" pt_clust_5="125.02763" pt_clust_6="151.56979"></scales>
<clustering>
<clus scale="   76.177">  1  3  2 -1</clus>
<clus scale="  125.028">  1  5  2 -1</clus>
<clus scale="  151.570">  2  6  1 -1</clus>
<clus scale="   76.177">  1  3  2 -1</clus>
</clustering>
</event>
<event>
 6    0  0.6525019E+002  0.1861331E+03  0.7546771E-02  0.1161996E+00
          1   -1    0    0  504    0 -0.00000000000E+00  0.00000000000E+00  0.22311537408E+04  0.22311537408E+04  0.00000000000E+00 0.  1.
         21   -1    0    0  503  502  0.00000000000E+00 -0.00000000000E+00 -0.16242452258E+03  0.16242452258E+03  0.00000000000E+00 0.  1.
         21    1    1    2  503  501 -0.19899079862E+02  0.75191270498E+02  0.86920801504E+02  0.11664015720E+03  0.00000000000E+00 0.  1.
         21    1    1    2  504  505  0.10378485501E+03  0.10891241933E+03  0.89614101416E+03  0.90868142298E+03  0.00000000000E+00 0.  1.
         21    1    1    2  505  502 -0.10255830892E+03 -0.15852218147E+03 -0.77909863558E+02  0.20424846532E+03  0.00000000000E+00 0.  1.
          1    1    1    2  501    0  0.18672533768E+02 -0.25581508366E+02  0.11635772661E+04  0.11640082179E+04  0.00000000000E+00 0.  1.
<scales pt_clust_3="74.97412" pt_clust_4="14000.00000" pt_clust_5="186.13305" pt_clust_6="31.67139"></scales>
<clustering>
<clus scale="   31.671">  1  6  2 -1</clus>
<clus scale="   74.974">  1  3  2 -1</clus>
<clus scale="  186.133">  2  5  1 -1</clus>
<clus scale="  186.133">  2  3  1 -1</clus>
</clustering>
</event>
<event>
 6    0  0.6525019E+002  0.7317115E+02  0.7546771E-02  0.1349630E+00
         -1   -1    0    0    0  501 -0.00000000000E+00  0.00000000000E+00  0.95434518725E+03  0.95434518725E+03  0.00000000000E+00 0.  1.
         21   -1    0    0  503  502  0.00000000000E+00 -0.00000000000E+00 -0.14709087117E+03  0.14709087117E+03  0.00000000000E+00 0.  1.
         21    1    1    2  503  501  0.31478893691E+02 -0.32825104465E+02  0.77491888152E+03  0.77625233086E+03  0.00000000000E+00 0.  1.
         21    1    1    2  504  502  0.57828547241E+02 -0.49401085996E+02 -0.10078810777E+03  0.12626500244E+03  0.00000000000E+00 0.  1.
         21    1    1    2  505  504 -0.25278877765E+02  0.63443472132E+02  0.26744283158E+02  0.73344069282E+02  0.00000000000E+00 0.  1.
         -1    1    1    2    0  505 -0.64028563167E+02  0.18782718330E+02  0.10637925917E+03  0.12557465585E+03  0.00000000000E+00 0.  1.
<scales pt_clust_3="45.47976" pt_clust_4="14000.00000" pt_clust_5="73.17115" pt_clust_6="43.67785"></scales>
<clustering>
<clus scale="   45.480">  1  3  2 -1</clus>
<clus scale="   43.678">  1  6  2 -1</clus>
<clus scale="   73.171">  1  5  2 -1</clus>
<clus scale="   73.171">  2  3  1 -1</clus>
</clustering>
</event>
<event>
 6    0  0.6525019E+002  0.6581201E+02  0.7546771E-02  0.1374943E+00
          2   -1    0    0  505    0 -0.00000000000E+00  0.00000000000E+00  0.86927055105E+03  0.86927055105E+03  0.00000000000E+00 0. -1.
         21   -1    0    0  503  502  0.00000000000E+00 -0.00000000000E+00 -0.50617429627E+03  0.50617429627E+03  0.00000000000E+00 0. -1.
         21    1    1    2  503  501 -0.50447154488E+02  0.34048656703E+02 -0.29502133487E+03  0.30123382023E+03  0.00000000000E+00 0. -1.
         21    1    1    2  504  502  0.37876989923E+02 -0.94315522444E+02 -0.16637079204E+03  0.19495980248E+03  0.00000000000E+00 0. -1.
         21    1    1    2  505  504 -0.19610879852E+02  0.50763324057E+02  0.34071351090E+00  0.54420747547E+02  0.00000000000E+00 0. -1.
          2    1    1    2  501    0  0.32181044417E+02  0.95035416833E+01  0.82414766818E+03  0.82483047707E+03  0.00000000000E+00 0. -1.
<scales pt_clust_3="14000.00000" pt_clust_4="65.81201" pt_clust_5="56.57411" pt_clust_6="33.55498"></scales>
<clustering>
<clus scale="   33.555">  1  6  2 -1</clus>
<clus scale="   56.574">  1  5  2 -1</clus>
<clus scale="   65.812">  1  4  2 -1</clus>
<clus scale="   65.812">  2  3  1 -1</clus>
</clustering>
</event>
<event>
 6    0  0.6525019E+002  0.7200421E+02  0.7546771E-02  0.1353407E+00
          1   -1    0    0  504    0 -0.00000000000E+00  0.00000000000E+00  0.20828253293E+03  0.20828253293E+03  0.00000000000E+00 0. -1.
         21   -1    0    0  503  502  0.00000000000E+00 -0.00000000000E+00 -0.11916112863E+04  0.11916112863E+04  0.00000000000E+00 0.  1.
         21    1    1    2  503  505  0.11593082333E+02 -0.56177135056E+02 -0.68303948500E+03  0.68544380378E+03  0.00000000000E+00 0.  1.
         21    1    1    2  504  502 -0.67371667559E+02  0.12219886509E+02 -0.42769827532E+03  0.43314441232E+03  0.00000000000E+00 0.  1.
         21    1    1    2  505  501  0.75852260775E+02  0.97538070357E+02 -0.18166703707E+02  0.12488902977E+03  0.00000000000E+00 0. -1.
          1    1    1    2  501    0 -0.20073675549E+02 -0.53580821810E+02  0.14557571061E+03  0.15641657340E+03  0.00000000000E+00 0. -1.
<scales pt_clust_3="58.38044" pt_clust_4="72.00421" pt_clust_5="14000.00000" pt_clust_6="57.21763"></scales>
<clustering>
<clus scale="   57.218">  1  6  2 -1</clus>
<clus scale="   58.380">  2  3  1 -1</clus>
<clus scale="   72.004">  2  4  1 -1</clus>
<clus scale="   58.380">  2  3  1 -1</clus>
</clustering>
</event>
<event>
 6    0  0.6525019E+002  0.1002005E+03  0.7546771E-02  0.1279875E+00
         21   -1    0    0  505  502  0.00000000000E+00  0.00000000000E+00  0.84421258736E+03  0.84421258736E+03  0.00000000000E+00 0. -1.
          2   -1    0    0  503    0 -0.00000000000E+00 -0.00000000000E+00 -0.20923836338E+04  0.20923836338E+04  0.00000000000E+00 0. -1.
         21    1    1    2  503  504 -0.12068210807E+03 -0.19856609451E+02 -0.23565179969E+03  0.26549995639E+03  0.00000000000E+00 0. -1.
         21    1    1    2  504  502  0.29850371812E+02  0.16393696409E+02  0.48248078316E+03  0.48368120089E+03  0.00000000000E+00 0. -1.
         21    1    1    2  505  501  0.39599732723E+02  0.57964736045E+02  0.34187989183E+03  0.34901276466E+03  0.00000000000E+00 0. -1.
          2    1    1    2  501    0  0.51232003531E+02 -0.54501823003E+02 -0.18368799218E+04  0.18384022993E+04  0.00000000000E+00 0. -1.
<scales pt_clust_3="100.20050" pt_clust_4="34.05581" pt_clust_5="14000.00000" pt_clust_6="74.81880"></scales>
<clustering>
<clus scale="   34.056">  1  4  2 -1</clus>
<clus scale="   74.819">  2  6  1 -1</clus>
<clus scale="  100.201">  2  3  1 -1</clus>
<clus scale="   34.056">  1  3  2 -1</clus>
</clustering>
</event>
<event>
 6    0  0.6525019E+002  0.9870367E+02  0.7546771E-02  0.1283046E+00
         21   -1    0    0  503  502  0.00000000000E+00  0.00000000000E+00  0.29955983218E+04  0.29955983218E+04  0.00000000000E+00 0.  1.
         -4   -1    0    0    0  501 -0.00000000000E+00 -0.00000000000E+00 -0.22884355831E+03  0.22884355831E+03  0.00000000000E+00 0.  1.
         21    1    1    2  503  505  0.68372066915E+02  0.48522453714E+02  0.28283590144E+04  0.28296013646E+04  0.00000000000E+00 0.  1.
         21    1    1    2  504  502 -0.39240580395E+02  0.11688018863E+03  0.59262027007E+02  0.13679469832E+03  0.00000000000E+00 0. -1.
         21    1    1    2  505  501 -0.17407822213E+02 -0.91574936429E+02  0.22917812855E+02  0.95990767276E+02  0.00000000000E+00 0. -1.
         -4    1    1    2    0  504 -0.11723664307E+02 -0.73827705916E+02 -0.14378409076E+03  0.16205504997E+03  0.00000000000E+00 0.  1.
<scales pt_clust_3="83.41348" pt_clust_4="14000.00000" pt_clust_5="98.70367" pt_clust_6="74.75276"></scales>
<clustering>
<clus scale="   74.753">  2  6  1 -1</clus>
<clus scale="   83.413">  1  3  2 -1</clus>
<clus scale="   98.704">  1  5  2 -1</clus>
<clus scale="   83.413">  1  3  2 -1</clus>
</clustering>
</event>
<event>
 6    0  0.6525019E+002  0.1196507E+03  0.7546771E-02  0.1243674E+00
          2   -1    0    0  503    0 -0.00000000000E+00  0.00000000000E+00  0.96389319675E+03  0.96389319675E+03  0.00000000000E+00 0.  1.
         21   -1    0    0  501  502  0.00000000000E+00 -0.00000000000E+00 -0.99505255717E+03  0.99505255717E+03  0.00000000000E+00 0. -1.
         21    1    1    2  503  504 -0.11487118256E+03  0.11882730241E+03  0.61483140839E+03  0.63665766086E+03  0.00000000000E+00 0.  1.
         21    1    1    2  504  505  0.10262371957E+03 -0.16414034521E+02 -0.73948516858E+02  0.12755168165E+03  0.00000000000E+00 0.  1.
         21    1    1    2  505  502 -0.32610366239E+02 -0.21465239225E+02 -0.87606775948E+03  0.87693723361E+03  0.00000000000E+00 0. -1.
          2    1    1    2  501    0  0.44857829230E+02 -0.80948028667E+02  0.30402550753E+03  0.31779917781E+03  0.00000000000E+00 0.  1.
<scales pt_clust_3="14000.00000" pt_clust_4="82.53802" pt_clust_5="39.04091" pt_clust_6="119.65069"></scales>
<clustering>
<clus scale="   39.041">  2  5  1 -1</clus>
<clus scale="   82.538">  2  4  1 -1</clus>
<clus scale="  119.651">  1  6  2 -1</clus>
<clus scale="   39.041">  2  3  1 -1</clus>
</clustering>
</event>
<event>
 6    0  0.6525019E+002  0.1318065E+03  0.7546771E-02  0.1224800E+00
         21   -1    0    0  504  502  0.00000000000E+00  0.00000000000E+00  0.13979676626E+03  0.13979676626E+03  0.00000000000E+00 0. -1.
          1   -1    0    0  503    0 -0.00000000000E+00 -0.00000000000E+00 -0.12080153711E+04  0.12080153711E+04  0.00000000000E+00 0. -1.
         21    1    1    2  503  502 -0.61227406604E+02 -0.94945061333E+02 -0.73072530021E+02  0.13454722084E+03  0.00000000000E+00 0.  1.
         21    1    1    2  504  505  0.35493863669E+02  0.41195749662E+01  0.25432316610E+02  0.43858727572E+02  0.00000000000E+00 0. -1.
         21    1    1    2  505  501  0.12622567211E+03  0.16903381637E+03 -0.88673172974E+02  0.22884117414E+03  0.00000000000E+00 0. -1.
          1    1    1    2  501    0 -0.10049212918E+03 -0.78208330006E+02 -0.93190521846E+03  0.94056501481E+03  0.00000000000E+00 0. -1.
<scales pt_clust_3="106.64554" pt_clust_4="35.73213" pt_clust_5="131.80653" pt_clust_6="14000.00000"></scales>
<clustering>
<clus scale="   35.732">  1  4  2 -1</clus>
<clus scale="  106.646">  1  3  2 -1</clus>
<clus scale="  131.807">  1  5  2 -1</clus>
<clus scale="   35.732">  1  3  2 -1</clus>
</clustering>
</event>
<event>
 6    0  0.6525019E+002  0.2274739E+03  0.7546771E-02  0.1128430E+00
         21   -1    0    0  504  502  0.00000000000E+00  0.00000000000E+00  0.56098834570E+03  0.56098834570E+03  0.00000000000E+00 0. -1.
          3   -1    0    0  503    0 -0.00000000000E+00 -0.00000000000E+00 -0.11728429241E+04  0.11728429241E+04  0.00000000000E+00 0.  1.
         21    1    1    2  503  502 -0.61848553020E+02 -0.21780875896E+03 -0.34771215138E+03  0.41493329489E+03  0.00000000000E+00 0.  1.
         21    1    1    2  504  505 -0.15105834890E+03  0.17925929415E+03  0.46774961298E+03  0.52320380326E+03  0.00000000000E+00 0. -1.
         21    1    1    2  505  501  0.14495233244E+03  0.46266819012E+02 -0.16405733597E+03  0.22375568530E+03  0.00000000000E+00 0.  1.
          3    1    1    2  501    0  0.67954569483E+02 -0.77173541968E+01 -0.56783470401E+03  0.57193848634E+03  0.00000000000E+00 0.  1.
<scales pt_clust_3="227.47392" pt_clust_4="14000.00000" pt_clust_5="172.45689" pt_clust_6="68.39138"></scales>
<clustering>
<clus scale="   68.391">  2  6  1 -1</clus>
<clus scale="  172.457">  2  5  1 -1</clus>
<clus scale="  227.474">  2  3  1 -1</clus>
<clus scale="  227.474">  1  3  2 -1</clus>
</clustering>
</event>
<event>
 6    0  0.6525019E+002  0.7884835E+02  0.7546771E-02  0.1332352E+00
          1   -1    0    0  505    0 -0.00000000000E+00  0.00000000000E+00  0.24066649246E+03  0.24066649246E+03  0.00000000000E+00 0. -1.
         21   -1    0    0  504  502  0.00000000000E+00 -0.00000000000E+00 -0.35224337279E+03  0.35224337279E+03  0.00000000000E+00 0.  1.
         21    1    1    2  503  501  0.24428504083E+02 -0.45712925569E+02 -0.92031045332E+01  0.52641433386E+02  0.00000000000E+00 0.  1.
         21    1    1    2  504  503 -0.39127183792E+02  0.19409193002E+01 -0.15804051637E+03  0.16282355018E+03  0.00000000000E+00 0.  1.
         21    1    1    2  505  502  0.92632897340E+02  0.47508659162E+02 -0.13555464357E+03  0.17091807323E+03  0.00000000000E+00 0.  1.
          1    1    1    2  501    0 -0.77934217632E+02 -0.37366528932E+01  0.19122138414E+03  0.20652680845E+03  0.00000000000E+00 0. -1.
<scales pt_clust_3="48.88275" pt_clust_4="39.17529" pt_clust_5="14000.00000" pt_clust_6="78.84835"></scales>
<clustering>
<clus scale="   39.175">  2  4  1 -1</clus>
<clus scale="   48.883">  2  3  1 -1</clus>
<clus scale="   78.848">  1  6  2 -1</clus>
<clus scale="   39.175">  2  3  1 -1</clus>
</clustering>
</event>
<event>
 6    0  0.6525019E+002  0.2368065E+03  0.7546771E-02  0.1121939E+00
          2   -1    0    0  503    0 -0.00000000000E+00  0.00000000000E+00  0.56362757317E+03  0.56362757317E+03  0.00000000000E+00 0.  1.
         21   -1    0    0  504  502  0.00000000000E+00 -0.00000000000E+00 -0.22109548663E+03  0.22109548663E+03  0.00000000000E+00 0.  1.
         21    1    1    2  503  505 -0.19398500836E+03 -0.14296321399E+03  0.18067648424E+03  0.30118541795E+03  0.00000000000E+00 0.  1.
         21    1    1    2  504  501  0.22967523398E+03  0.65944572680E+02  0.13791151724E+03  0.27589669508E+03  0.00000000000E+00 0.  1.
         21    1    1    2  505  502  0.41301998932E+01  0.32554704344E+02 -0.80729933818E+02  0.87144647227E+02  0.00000000000E+00 0.  1.
          2    1    1    2  501    0 -0.39820425506E+02  0.44463936968E+02  0.10467401887E+03  0.12049629955E+03  0.00000000000E+00 0.  1.
<scales pt_clust_3="236.80647" pt_clust_4="14000.00000" pt_clust_5="32.81566" pt_clust_6="60.94506"></scales>
<clustering>
<clus scale="   32.816">  2  5  1 -1</clus>
<clus scale="   60.945">  1  6  2 -1</clus>
<clus scale="  236.806">  1  3  2 -1</clus>
<clus scale="   32.816">  2  3  1 -1</clus>
</clustering>
</event>
<event>
 6    0  0.6525019E+002  0.1315709E+03  0.7546771E-02  0.1225143E+00
          1   -1    0    0  504    0 -0.00000000000E+00  0.00000000000E+00  0.63649388785E+03  0.63649388785E+03  0.00000000000E+00 0.  1.
         21   -1    0    0  503  502  0.00000000000E+00 -0.00000000000E+00 -0.45058096870E+03  0.45058096870E+03  0.00000000000E+00 0. -1.
         21    1    1    2  503  501 -0.25625584328E+02  0.12778720741E+03 -0.34224099755E+03  0.36621734169E+03  0.00000000000E+00 0. -1.
         21    1    1    2  504  505  0.11284250893E+03  0.45311017001E+02  0.77463114940E+02  0.14417716276E+03  0.00000000000E+00 0.  1.
         21    1    1    2  505  502 -0.13269257036E+03 -0.42929414671E+01  0.54277021453E+02  0.14342852796E+03  0.00000000000E+00 0. -1.
          1    1    1    2  501    0  0.45475645751E+02 -0.16880528295E+03  0.39641378031E+03  0.43325182414E+03  0.00000000000E+00 0.  1.
<scales pt_clust_3="131.57088" pt_clust_4="121.59984" pt_clust_5="111.55272" pt_clust_6="14000.00000"></scales>
<clustering>
<clus scale="  121.600">  1  4  2 -1</clus>
<clus scale="  111.553">  1  5  2 -1</clus>
<clus scale="  131.571">  2  3  1 -1</clus>
<clus scale="  131.571">  2  3  1 -1</clus>
</clustering>
</event>
<event>
 6    0  0.6525019E+002  0.3153292E+03  0.7546771E-02  0.1077819E+00
         21   -1    0    0  504  502  0.00000000000E+00  0.00000000000E+00  0.39979230394E+03  0.39979230394E+03  0.00000000000E+00 0. -1.
          1   -1    0    0  505    0 -0.00000000000E+00 -0.00000000000E+00 -0.16029183109E+04  0.16029183109E+04  0.00000000000E+00 0.  1.
         21    1    1    2  503  502  0.50357009883E+02 -0.51579460058E+02  0.17205983712E+03  0.18654987723E+03  0.00000000000E+00 0. -1.
         21    1    1    2  504  501 -0.18470050206E+02  0.73847554678E+02 -0.46869966344E+02  0.89394618584E+02  0.00000000000E+00 0.  1.
         21    1    1    2  505  503  0.27421596584E+03 -0.10675099116E+03  0.61936199409E+02  0.30070959883E+03  0.00000000000E+00 0. -1.
          1    1    1    2  501    0 -0.30610292551E+03  0.84482896535E+02 -0.13902520771E+04  0.14260565202E+04  0.00000000000E+00 0.  1.
<scales pt_clust_3="72.08515" pt_clust_4="70.20619" pt_clust_5="315.32919" pt_clust_6="14000.00000"></scales>
<clustering>
<clus scale="   72.085">  1  3  2 -1</clus>
<clus scale="   70.206">  1  4  2 -1</clus>
<clus scale="  315.329">  1  5  2 -1</clus>
<clus scale="   72.085">  1  3  2 -1</clus>
</clustering>
</event>
<event>
 6    0  0.6525019E+002  0.9465817E+02  0.7546771E-02  0.1291948E+00
         21   -1    0    0  501  502  0.00000000000E+00  0.00000000000E+00  0.15355010459E+03  0.15355010459E+03  0.00000000000E+00 0. -1.
          2   -1    0    0  504    0 -0.00000000000E+00 -0.00000000000E+00 -0.31611592352E+04  0.31611592352E+04  0.00000000000E+00 0.  1.
         21    1    1    2  503  502  0.38376951925E+02 -0.20494673546E+02  0.66377711802E+02  0.79365122736E+02  0.00000000000E+00 0. -1.
         21    1    1    2  504  505 -0.44433207581E+02 -0.92688626030E+02 -0.14811207690E+03  0.18028499287E+03  0.00000000000E+00 0. -1.
         21    1    1    2  505  503 -0.78715059901E+02  0.69796442280E+02  0.20470193483E+02  0.10717571008E+03  0.00000000000E+00 0. -1.
          2    1    1    2  501    0  0.84771315557E+02  0.43386857296E+02 -0.29463449590E+04  0.29478835141E+04  0.00000000000E+00 0.  1.
<scales pt_clust_3="43.50658" pt_clust_4="94.65817" pt_clust_5="72.17689" pt_clust_6="14000.00000"></scales>
<clustering>
<clus scale="   43.507">  1  3  2 -1</clus>
<clus scale="   72.177">  1  5  2 -1</clus>
<clus scale="   94.658">  1  4  2 -1</clus>
<clus scale="   43.507">  1  3  2 -1</clus>
</clustering>
</event>
<event>
 6    0  0.6525019E+002  0.9206881E+02  0.7546771E-02  0.1297918E+00
         21   -1    0    0  504  502  0.00000000000E+00  0.00000000000E+00  0.38020235620E+03  0.38020235620E+03  0.00000000000E+00 0.  1.
         -1   -1    0    0    0  501 -0.00000000000E+00 -0.00000000000E+00 -0.90901172938E+03  0.90901172938E+03  0.00000000000E+00 0. -1.
         21    1    1    2  503  501 -0.61290819561E+01 -0.11422028324E+03 -0.95232936155E+02  0.14883934587E+03  0.00000000000E+00 0.  1.
         21    1    1    2  504  503 -0.28332710536E+02  0.11059139895E+03  0.14124363519E+03  0.18161212649E+03  0.00000000000E+00 0.  1.
         21    1    1    2  505  502  0.55332677406E+02 -0.28531565231E+02  0.18642882615E+03  0.19654888100E+03  0.00000000000E+00 0.  1.
         -1    1    1    2    0  505 -0.20870884914E+02  0.32160449526E+02 -0.76124889836E+03  0.76221373223E+03  0.00000000000E+00 0. -1.
<scales pt_clust_3="14000.00000" pt_clust_4="92.06881" pt_clust_5="61.11537" pt_clust_6="38.33912"></scales>
<clustering>
<clus scale="   38.339">  2  6  1 -1</clus>
<clus scale="   61.115">  1  5  2 -1</clus>
<clus scale="   92.069">  1  4  2 -1</clus>
<clus scale="   61.115">  1  3  2 -1</clus>
</clustering>
</event>
<event>
 6    0  0.6525019E+002  0.1194323E+03  0.7546771E-02  0.1244037E+00
          2   -1    0    0  505    0 -0.00000000000E+00  0.00000000000E+00  0.44691246107E+03  0.44691246107E+03  0.00000000000E+00 0. -1.
         21   -1    0    0  504  502  0.00000000000E+00 -0.00000000000E+00 -0.81069564020E+03  0.81069564020E+03  0.00000000000E+00 0. -1.
         21    1    1    2  503  502 -0.80997966243E+02  0.83786182675E+02 -0.59795333328E+03  0.60920356510E+03  0.00000000000E+00 0. -1.
         21    1    1    2  504  501  0.96415339845E+02 -0.93537937205E+02 -0.12760662577E+03  0.18528009713E+03  0.00000000000E+00 0. -1.
         21    1    1    2  505  503 -0.32743520862E+01  0.45934990453E+02 -0.39114211274E+02  0.60420743566E+02  0.00000000000E+00 0. -1.
          2    1    1    2  501    0 -0.12143021516E+02 -0.36183235922E+02  0.40089099119E+03  0.40270369548E+03  0.00000000000E+00 0. -1.
<scales pt_clust_3="14000.00000" pt_clust_4="119.43226" pt_clust_5="37.89191" pt_clust_6="38.16647"></scales>
<clustering>
<clus scale="   38.166">  1  6  2 -1</clus>
<clus scale="   37.892">  1  5  2 -1</clus>
<clus scale="  119.432">  1  4  2 -1</clus>
<clus scale="  119.432">  2  3  1 -1</clus>
</clustering>
</event>
<event>
 6    0  0.6525019E+002  0.1389805E+03  0.7546771E-02  0.1214707E+00
          2   -1    0    0  504    0 -0.00000000000E+00  0.00000000000E+00  0.23522848432E+04  0.23522848432E+04  0.00000000000E+00 0. -1.
         21   -1    0    0  503  502  0.00000000000E+00 -0.00000000000E+00 -0.10206721859E+03  0.10206721859E+03  0.00000000000E+00 0.  1.
         21    1    1    2  503  501 -0.14001112853E+03 -0.14481837367E+01  0.20366720233E+03  0.24715489607E+03  0.00000000000E+00 0.  1.
         21    1    1    2  504  505  0.33990933573E+02  0.92705288902E+01  0.32549808144E+03  0.32739933918E+03  0.00000000000E+00 0. -1.
         21    1    1    2  505  502  0.13540909913E+03 -0.34360520509E+02 -0.17501894681E+02  0.14079270512E+03  0.00000000000E+00 0.  1.
          2    1    1    2  501    0 -0.29388904175E+02  0.26538175356E+02  0.17385542355E+04  0.17390051214E+04  0.00000000000E+00 0. -1.
<scales pt_clust_3="14000.00000" pt_clust_4="35.23246" pt_clust_5="138.98046" pt_clust_6="34.49576"></scales>
<clustering>
<clus scale="   35.232">  1  4  2 -1</clus>
<clus scale="   34.496">  1  6  2 -1</clus>
<clus scale="  138.980">  2  5  1 -1</clus>
<clus scale="  138.980">  2  3  1 -1</clus>
</clustering>
</event>
<event>
 6    0  0.6525019E+002  0.6325118E+02  0.7546771E-02  0.1384673E+00
         21   -1    0    0  503  502  0.00000000000E+00  0.00000000000E+00  0.31052656056E+02  0.31052656056E+02  0.00000000000E+00 0.  1.
          1   -1    0    0  505    0 -0.00000000000E+00 -0.00000000000E+00 -0.28863229005E+04  0.28863229005E+04  0.00000000000E+00 0. -1.
         21    1    1    2  503  501  0.16195432851E+02 -0.41321804986E+02 -0.85538191579E+02  0.96366829517E+02  0.00000000000E+00 0.  1.
         21    1    1    2  504  502 -0.34246992055E+02  0.74735280933E+02 -0.73955403435E+02  0.11057857106E+03  0.00000000000E+00 0.  1.
         21    1    1    2  505  504  0.57361329556E+02  0.17161567820E+02 -0.12242867303E+03  0.13628507445E+03  0.00000000000E+00 0.  1.
          1    1    1    2  501    0 -0.39309770353E+02 -0.50575043767E+02 -0.25733479764E+04  0.25741450815E+04  0.00000000000E+00 0. -1.
<scales pt_clust_3="44.38224" pt_clust_4="50.59066" pt_clust_5="63.25118" pt_clust_6="14000.00000"></scales>
<clustering>
<clus scale="   44.382">  1  3  2 -1</clus>
<clus scale="   50.591">  1  4  2 -1</clus>
<clus scale="   63.251">  1  5  2 -1</clus>
<clus scale="   44.382">  1  3  2 -1</clus>
</clustering>
</event>
<event>
 6    0  0.6525019E+002  0.1614047E+03  0.7546771E-02  0.1187120E+00
         21   -1    0    0  505  502  0.00000000000E+00  0.00000000000E+00  0.15368981903E+03  0.15368981903E+03  0.00000000000E+00 0.  1.
          1   -1    0    0  504    0 -0.00000000000E+00 -0.00000000000E+00 -0.25747321961E+04  0.25747321961E+04  0.00000000000E+00 0.  1.
         21    1    1    2  503  501 -0.10799453066E+03 -0.11129075340E+03 -0.45821362231E+03  0.48374391378E+03  0.00000000000E+00 0. -1.
         21    1    1    2  504  502 -0.28669407156E+02  0.43535143696E+02  0.18593768538E+02  0.55344122288E+02  0.00000000000E+00 0. -1.
         21    1    1    2  505  503  0.96852475527E+02  0.10935545011E+03  0.52028659373E+02  0.15506772030E+03  0.00000000000E+00 0.  1.
          1    1    1    2  501    0  0.39811462289E+02 -0.41599840399E+02 -0.20334511826E+04  0.20342662587E+04  0.00000000000E+00 0.  1.
<scales pt_clust_3="14000.00000" pt_clust_4="52.12719" pt_clust_5="161.40467" pt_clust_6="57.40135"></scales>
<clustering>
<clus scale="   52.127">  1  4  2 -1</clus>
<clus scale="   57.401">  2  6  1 -1</clus>
<clus scale="  161.405">  1  5  2 -1</clus>
<clus scale="   52.127">  1  3  2 -1</clus>
</clustering>
</event>
<event>
 6    0  0.6525019E+002  0.7930728E+02  0.7546771E-02  0.1331029E+00
         21   -1    0    0  503  502  0.00000000000E+00  0.00000000000E+00  0.10062255263E+03  0.10062255263E+03  0.00000000000E+00 0.  1.
          2   -1    0    0  504    0 -0.00000000000E+00 -0.00000000000E+00 -0.84133797829E+03  0.84133797829E+03  0.00000000000E+00 0.  1.
         21    1    1    2  503  501 -0.82064539471E+02  0.21293283845E+02 -0.18748574199E+03  0.20576417576E+03  0.00000000000E+00 0. -1.
         21    1    1    2  504  505 -0.17269878576E+01  0.31778516996E+02 -0.40742283454E+02  0.51699035683E+02  0.00000000000E+00 0. -1.
         21    1    1    2  505  502  0.60777279517E+01 -0.62986816013E+02  0.71383780344E+02  0.95393510601E+02  0.00000000000E+00 0.  1.
          2    1    1    2  501    0  0.77713799377E+02  0.99150151720E+01 -0.58387118056E+03  0.58910380887E+03  0.00000000000E+00 0.  1.
<scales pt_clust_3="79.30728" pt_clust_4="31.82541" pt_clust_5="62.79928" pt_clust_6="14000.00000"></scales>
<clustering>
<clus scale="   31.825">  2  4  1 -1</clus>
<clus scale="   62.799">  1  5  2 -1</clus>
<clus scale="   79.307">  1  3  2 -1</clus>
<clus scale="   62.799">  1  3  2 -1</clus>
</clustering>
</event>
<event>
 6    0  0.6525019E+002  0.8608879E+02  0.7546771E-02  0.1312610E+00
          2   -1    0    0  504    0 -0.00000000000E+00  0.00000000000E+00  0.40993467321E+03  0.40993467321E+03  0.00000000000E+00 0.  1.
         21   -1    0    0  503  502  0.00000000000E+00 -0.00000000000E+00 -0.54292765251E+02  0.54292765251E+02  0.00000000000E+00 0.  1.
         21    1    1    2  503  505 -0.24081436630E+02  0.17942648030E+02 -0.91758826201E+01  0.31401449495E+02  0.00000000000E+00 0.  1.
         21    1    1    2  504  502  0.97693240748E+02  0.51625543401E+02  0.16618611036E+03  0.19956700453E+03  0.00000000000E+00 0.  1.
         21    1    1    2  505  501 -0.37554492577E+02  0.93611167121E+00  0.34420924647E+02  0.50951116488E+02  0.00000000000E+00 0.  1.
          2    1    1    2  501    0 -0.36057311542E+02 -0.70504303103E+02  0.16421075558E+03  0.18230786795E+03  0.00000000000E+00 0.  1.
<scales pt_clust_3="30.03089" pt_clust_4="86.08879" pt_clust_5="43.72980" pt_clust_6="14000.00000"></scales>
<clustering>
<clus scale="   30.031">  2  3  1 -1</clus>
<clus scale="   43.730">  2  5  1 -1</clus>
<clus scale="   86.089">  2  4  1 -1</clus>
<clus scale="   30.031">  2  3  1 -1</clus>
</clustering>
</event>
<event>
 6    0  0.6525019E+002  0.9164301E+02  0.7546771E-02  0.1298921E+00
          2   -1    0    0  505    0 -0.00000000000E+00  0.00000000000E+00  0.14208053187E+04  0.14208053187E+04  0.00000000000E+00 0. -1.
         21   -1    0    0  504  502  0.00000000000E+00 -0.00000000000E+00 -0.11165484981E+03  0.11165484981E+03  0.00000000000E+00 0.  1.
         21    1    1    2  503  502  0.14804097795E+02 -0.41472841129E+02 -0.92322490477E+02  0.10228685209E+03  0.00000000000E+00 0.  1.
         21    1    1    2  504  501 -0.10378805829E+03  0.77542775676E+02  0.35936273046E+03  0.38200316118E+03  0.00000000000E+00 0.  1.
         21    1    1    2  505  503  0.46496163675E+02 -0.23503313276E+01  0.25658545024E+03  0.26077482733E+03  0.00000000000E+00 0.  1.
          2    1    1    2  501    0  0.42487796819E+02 -0.33719603219E+02  0.78552477868E+03  0.78739532793E+03  0.00000000000E+00 0. -1.
<scales pt_clust_3="44.03587" pt_clust_4="14000.00000" pt_clust_5="49.37756" pt_clust_6="91.64301"></scales>
<clustering>
<clus scale="   44.036">  2  3  1 -1</clus>
<clus scale="   49.378">  1  5  2 -1</clus>
<clus scale="   91.643">  1  6  2 -1</clus>
<clus scale="   44.036">  2  3  1 -1</clus>
</clustering>
</event>
<event>
 6    0  0.6525019E+002  0.6591314E+02  0.7546771E-02  0.1374569E+00
         21   -1    0    0  504  502  0.00000000000E+00  0.00000000000E+00  0.26076518231E+03  0.26076518231E+03  0.00000000000E+00 0. -1.
          2   -1    0    0  505    0 -0.00000000000E+00 -0.00000000000E+00 -0.73174355879E+03  0.73174355879E+03  0.00000000000E+00 0.  1.
         21    1    1    2  503  501  0.53239180096E+02  0.25256151914E+02 -0.16752393077E+03  0.17758533410E+03  0.00000000000E+00 0. -1.
         21    1    1    2  504  503 -0.48754638673E+02 -0.20262144854E+02  0.38434835166E+01  0.52937148315E+02  0.00000000000E+00 0. -1.
         21    1    1    2  505  502  0.66963114018E+02 -0.68484460908E+01  0.21989693875E+03  0.22996874466E+03  0.00000000000E+00 0. -1.
          2    1    1    2  501    0 -0.71447655441E+02  0.18544390309E+01 -0.52719486796E+03  0.53201751402E+03  0.00000000000E+00 0.  1.
<scales pt_clust_3="14000.00000" pt_clust_4="52.79744" pt_clust_5="33.03133" pt_clust_6="65.91314"></scales>
<clustering>
<clus scale="   52.797">  1  4  2 -1</clus>
<clus scale="   33.031">  1  5  2 -1</clus>
<clus scale="   65.913">  2  6  1 -1</clus>
<clus scale="   52.797">  1  3  2 -1</clus>
</clustering>
</event>
<event>
 6    0  0.6525019E+002  0.9417059E+02  0.7546771E-02  0.1293055E+00
         21   -1    0    0  505  502  0.00000000000E+00  0.00000000000E+00  0.13856038322E+04  0.13856038322E+04  0.00000000000E+00 0. -1.
          1   -1    0    0  504    0 -0.00000000000E+00 -0.00000000000E+00 -0.91549135394E+03  0.91549135394E+03  0.00000000000E+00 0.  1.
         21    1    1    2  503  501  0.94363349333E+02  0.17128470138E+02  0.24144344743E+03  0.25979369602E+03  0.00000000000E+00 0. -1.
         21    1    1    2  504  502 -0.57776899138E+02  0.80173601707E+02 -0.25339080063E+02  0.10201982877E+03  0.00000000000E+00 0.  1.
         21    1    1    2  505  503  0.35457473592E+02 -0.36479476310E+02  0.10934141631E+04  0.10945969654E+04  0.00000000000E+00 0. -1.
          1    1    1    2  501    0 -0.72043923788E+02 -0.60822595535E+02 -0.83940605219E+03  0.84468469593E+03  0.00000000000E+00 0.  1.
<scales pt_clust_3="14000.00000" pt_clust_4="92.21117" pt_clust_5="50.87224" pt_clust_6="94.17059"></scales>
<clustering>
<clus scale="   50.872">  1  5  2 -1</clus>
<clus scale="   92.211">  1  4  2 -1</clus>
<clus scale="   94.171">  2  6  1 -1</clus>
<clus scale="   50.872">  1  3  2 -1</clus>
</clustering>
</event>
<event>
 6    0  0.6525019E+002  0.9325321E+02  0.7546771E-02  0.1295159E+00
         21   -1    0    0  501  502  0.00000000000E+00  0.00000000000E+00  0.55015333644E+03  0.55015333644E+03  0.00000000000E+00 0. -1.
          2   -1    0    0  504    0 -0.00000000000E+00 -0.00000000000E+00 -0.17997235340E+04  0.17997235340E+04  0.00000000000E+00 0.  1.
         21    1    1    2  503  505  0.97632380788E+02  0.35894919995E+02 -0.10066788051E+01  0.10402663343E+03  0.00000000000E+00 0.  1.
         21    1    1    2  504  503  0.83333484842E+01  0.33324578060E+02 -0.52289356778E+02  0.62563160343E+02  0.00000000000E+00 0.  1.
         21    1    1    2  505  502 -0.53064137982E+01 -0.36816728740E+02  0.49114810041E+03  0.49255465289E+03  0.00000000000E+00 0. -1.
          2    1    1    2  501    0 -0.10065931547E+03 -0.32402769315E+02 -0.16874222623E+04  0.16907324237E+04  0.00000000000E+00 0.  1.
<scales pt_clust_3="14000.00000" pt_clust_4="34.35072" pt_clust_5="37.18338" pt_clust_6="93.25321"></scales>
<clustering>
<clus scale="   34.351">  2  4  1 -1</clus>
<clus scale="   37.183">  1  5  2 -1</clus>
<clus scale="   93.253">  2  6  1 -1</clus>
<clus scale="   37.183">  1  3  2 -1</clus>
</clustering>
</event>
<event>
 6    0  0.6525019E+002  0.7926873E+02  0.7546771E-02  0.1331140E+00
         21   -1    0    0  504  502  0.00000000000E+00  0.00000000000E+00  0.10769653769E+03  0.10769653769E+03  0.00000000000E+00 0.  1.
          1   -1    0    0  503    0 -0.00000000000E+00 -0.00000000000E+00 -0.13806972582E+04  0.13806972582E+04  0.00000000000E+00 0. -1.
         21    1    1    2  503  505  0.29863946067E+02 -0.45014178006E+02 -0.42391908344E+02  0.68667353155E+02  0.00000000000E+00 0.  1.
         21    1    1    2  504  501 -0.97529300805E+02  0.76048197042E+02 -0.22494121704E+03  0.25669796242E+03  0.00000000000E+00 0. -1.
         21    1    1    2  505  502  0.95056784414E+01 -0.30320632001E+02  0.74657684153E+02  0.81138575602E+02  0.00000000000E+00 0.  1.
          1    1    1    2  501    0  0.58159676297E+02 -0.71338703474E+00 -0.10803252793E+04  0.10818899047E+04  0.00000000000E+00 0. -1.
<scales pt_clust_3="14000.00000" pt_clust_4="79.26873" pt_clust_5="31.77576" pt_clust_6="58.42873"></scales>
<clustering>
<clus scale="   31.776">  1  5  2 -1</clus>
<clus scale="   58.429">  2  6  1 -1</clus>
<clus scale="   79.269">  2  4  1 -1</clus>
<clus scale="   31.776">  1  3  2 -1</clus>
</clustering>
</event>
<event>
 6    0  0.6525019E+002  0.7146784E+02  0.7546771E-02  0.1355172E+00
         21   -1    0    0  504  502  0.00000000000E+00  0.00000000000E+00  0.15545720267E+04  0.15545720267E+04  0.00000000000E+00 0. -1.
         -3   -1    0    0    0  501 -0.00000000000E+00 -0.00000000000E+00 -0.24337962762E+03  0.24337962762E+03  0.00000000000E+00 0. -1.
         21    1    1    2  503  502  0.41239510807E+02 -0.98443900042E+01  0.48779824268E+03  0.48963735031E+03  0.00000000000E+00 0. -1.
         21    1    1    2  504  501 -0.36875877890E+02 -0.48202910871E+02  0.81785611229E+03  0.82010485391E+03  0.00000000000E+00 0. -1.
         21    1    1    2  505  503 -0.74213159991E+02  0.42089224827E+02  0.23384544069E+03  0.24892325342E+03  0.00000000000E+00 0. -1.
         -3    1    1    2    0  505  0.69849527074E+02  0.15958076048E+02 -0.22830739654E+03  0.23928619671E+03  0.00000000000E+00 0. -1.
<scales pt_clust_3="42.39822" pt_clust_4="56.00796" pt_clust_5="14000.00000" pt_clust_6="71.46784"></scales>
<clustering>
<clus scale="   42.398">  1  3  2 -1</clus>
<clus scale="   56.008">  1  4  2 -1</clus>
<clus scale="   71.468">  2  6  1 -1</clus>
<clus scale="   42.398">  1  3  2 -1</clus>
</clustering>
</event>
<event>
 6    0  0.6525019E+002  0.8977883E+02  0.7546771E-02  0.1303388E+00
          1   -1    0    0  505    0 -0.00000000000E+00  0.00000000000E+00  0.85056257729E+03  0.85056257729E+03  0.00000000000E+00 0. -1.
         21   -1    0    0  503  502  0.00000000000E+00 -0.00000000000E+00 -0.35576221361E+03  0.35576221361E+03  0.00000000000E+00 0. -1.
         21    1    1    2  503  501 -0.80919184244E+02  0.46215944476E+02 -0.51968377216E+02  0.10669836050E+03  0.00000000000E+00 0.  1.
         21    1    1    2  504  502 -0.13373368652E+02  0.38694816189E+02 -0.26085893996E+03  0.26405212051E+03  0.00000000000E+00 0. -1.
         21    1    1    2  505  504  0.52882429159E+02 -0.48309999462E+01  0.51106865082E+02  0.73700756663E+02  0.00000000000E+00 0.  1.
          1    1    1    2  501    0  0.41410123737E+02 -0.80079760718E+02  0.75652081577E+03  0.76187355323E+03  0.00000000000E+00 0. -1.
<scales pt_clust_3="89.77883" pt_clust_4="40.94064" pt_clust_5="51.26348" pt_clust_6="14000.00000"></scales>
<clustering>
<clus scale="   40.941">  2  4  1 -1</clus>
<clus scale="   51.263">  2  5  1 -1</clus>
<clus scale="   89.779">  2  3  1 -1</clus>
<clus scale="   40.941">  2  3  1 -1</clus>
</clustering>
</event>
<event>
 6    0  0.6525019E+002  0.1813437E+03  0.7546771E-02  0.1166509E+00
         -1   -1    0    0    0  501 -0.00000000000E+00  0.00000000000E+00  0.19413482747E+04  0.19413482747E+04  0.00000000000E+00 0.  1.
         21   -1    0    0  505  502  0.00000000000E+00 -0.00000000000E+00 -0.51837418044E+02  0.51837418044E+02  0.00000000000E+00 0.  1.
         21    1    1    2  503  502 -0.21769822048E+03  0.67974848066E+02  0.87504024349E+03  0.90427237208E+03  0.00000000000E+00 0.  1.
         21    1    1    2  504  501  0.14123242555E+03 -0.19938296821E+02  0.28209819968E+03  0.31610682999E+03  0.00000000000E+00 0.  1.
         21    1    1    2  505  504  0.44323390437E+02 -0.16349900199E+02  0.90803592900E+01  0.48107536844E+02  0.00000000000E+00 0. -1.
         -1    1    1    2    0  503  0.32142404498E+02 -0.31686651046E+02  0.72329205415E+03  0.72469895379E+03  0.00000000000E+00 0.  1.
<scales pt_clust_3="181.34369" pt_clust_4="14000.00000" pt_clust_5="48.21069" pt_clust_6="45.13511"></scales>
<clustering>
<clus scale="   45.135">  1  6  2 -1</clus>
<clus scale="   48.211">  2  5  1 -1</clus>
<clus scale="  181.344">  1  3  2 -1</clus>
<clus scale="   48.211">  2  3  1 -1</clus>
</clustering>
</event>
<event>
 6    0  0.6525019E+002  0.1150436E+03  0.7546771E-02  0.1251505E+00
          2   -1    0    0  503    0 -0.00000000000E+00  0.00000000000E+00  0.10670577873E+04  0.10670577873E+04  0.00000000000E+00 0.  1.
         21   -1    0    0  505  502  0.00000000000E+00 -0.00000000000E+00 -0.71224913184E+03  0.71224913184E+03  0.00000000000E+00 0.  1.
         21    1    1    2  503  502  0.46733165835E+02 -0.10536256444E+03 -0.57260413622E+03  0.58408968112E+03  0.00000000000E+00 0.  1.
         21    1    1    2  504  501  0.86992160076E+02  0.69427756323E+02  0.10765743544E+01  0.11130592201E+03  0.00000000000E+00 0. -1.
         21    1    1    2  505  504 -0.30400001461E+02 -0.14994019379E+02 -0.71668588781E+02  0.79280308550E+02  0.00000000000E+00 0.  1.
          2    1    1    2  501    0 -0.10332532445E+03  0.50928827499E+02  0.99800480608E+03  0.10046310074E+04  0.00000000000E+00 0.  1.
<scales pt_clust_3="115.04363" pt_clust_4="108.43645" pt_clust_5="33.89662" pt_clust_6="14000.00000"></scales>
<clustering>
<clus scale="   33.897">  2  5  1 -1</clus>
<clus scale="  108.436">  2  4  1 -1</clus>
<clus scale="  115.044">  2  3  1 -1</clus>
<clus scale="   33.897">  2  3  1 -1</clus>
</clustering>
</event>
<event>
 6    0  0.6525019E+002  0.2293677E+03  0.7546771E-02  0.1127086E+00
          1   -1    0    0  504    0 -0.00000000000E+00  0.00000000000E+00  0.11847869243E+04  0.11847869243E+04  0.00000000000E+00 0.  1.
         21   -1    0    0  503  502  0.00000000000E+00 -0.00000000000E+00 -0.11060855569E+03  0.11060855569E+03  0.00000000000E+00 0.  1.
         21    1    1    2  503  501  0.54562808126E+02 -0.49267527150E+02  0.23552460567E+02  0.77195256725E+02  0.00000000000E+00 0.  1.
         21    1    1    2  504  505 -0.10385527165E+03  0.14669889572E+03  0.68673067331E+03  0.70986301574E+03  0.00000000000E+00 0.  1.
         21    1    1    2  505  502 -0.95235467267E+02  0.58061073772E+02  0.35038093171E+02  0.11691257625E+03  0.00000000000E+00 0.  1.
          1    1    1    2  501    0  0.14452793079E+03 -0.15549244234E+03  0.32885714153E+03  0.39142463124E+03  0.00000000000E+00 0.  1.
<scales pt_clust_3="69.25038" pt_clust_4="196.87879" pt_clust_5="111.53870" pt_clust_6="69.25038"></scales>
<clustering>
<clus scale="   69.250">  3  6 -1 -1</clus>
<clus scale="  111.539">  2  5  1 -1</clus>
<clus scale="  196.879">  1  4  2 -1</clus>
<clus scale="  111.539">  2  3  1 -1</clus>
</clustering>
</event>
<event>
 6    0  0.6525019E+002  0.6801786E+02  0.7546771E-02  0.1366966E+00
          2   -1    0    0  504    0 -0.00000000000E+00  0.00000000000E+00  0.35522778566E+03  0.35522778566E+03  0.00000000000E+00 0.  1.
         21   -1    0    0  503  502  0.00000000000E+00 -0.00000000000E+00 -0.21290681950E+03  0.21290681950E+03  0.00000000000E+00 0. -1.
         21    1    1    2  503  501  0.52597303741E+02 -0.51101205614E+02 -0.11709950701E+02  0.74262591669E+02  0.00000000000E+00 0. -1.
         21    1    1    2  504  505 -0.92926635368E+02  0.18371265670E+02 -0.40302974195E+02  0.10294266701E+03  0.00000000000E+00 0. -1.
         21    1    1    2  505  502 -0.25947346393E+02  0.39267116827E+02 -0.88566539926E+02  0.10029557938E+03  0.00000000000E+00 0.  1.
          2    1    1    2  501    0  0.66276678020E+02 -0.65371768833E+01  0.28290043098E+03  0.29063376710E+03  0.00000000000E+00 0.  1.
<scales pt_clust_3="56.77130" pt_clust_4="14000.00000" pt_clust_5="47.06561" pt_clust_6="68.01786"></scales>
<clustering>
<clus scale="   47.066">  2  5  1 -1</clus>
<clus scale="   56.771">  2  3  1 -1</clus>
<clus scale="   68.018">  1  6  2 -1</clus>
<clus scale="   47.066">  2  3  1 -1</clus>
</clustering>
</event>
<event>
 6    0  0.6525019E+002  0.7239223E+02  0.7546771E-02  0.1352142E+00
         21   -1    0    0  503  502  0.00000000000E+00  0.00000000000E+00  0.58931616641E+02  0.58931616641E+02  0.00000000000E+00 0.  1.
          2   -1    0    0  505    0 -0.00000000000E+00 -0.00000000000E+00 -0.10671118026E+04  0.10671118026E+04  0.00000000000E+00 0. -1.
         21    1    1    2  503  504 -0.35229600591E+02  0.19970740386E+02 -0.33521423977E+02  0.52570344252E+02  0.00000000000E+00 0.  1.
         21    1    1    2  504  501 -0.64069739448E+02  0.65600672697E+01 -0.22398421324E+03  0.23305985020E+03  0.00000000000E+00 0. -1.
         21    1    1    2  505  502  0.92264379485E+02  0.32265902761E+02 -0.10986949281E+02  0.98359123914E+02  0.00000000000E+00 0.  1.
          2    1    1    2  501    0  0.70349605540E+01 -0.58796710417E+02 -0.73968759945E+03  0.74205410086E+03  0.00000000000E+00 0. -1.
<scales pt_clust_3="40.49636" pt_clust_4="14000.00000" pt_clust_5="72.39223" pt_clust_6="58.64615"></scales>
<clustering>
<clus scale="   40.496">  1  3  2 -1</clus>
<clus scale="   58.646">  2  6  1 -1</clus>
<clus scale="   72.392">  1  5  2 -1</clus>
<clus scale="   40.496">  1  3  2 -1</clus>
</clustering>
</event>
<event>
 6    0  0.6525019E+002  0.1135563E+03  0.7546771E-02  0.1254122E+00
         21   -1    0    0  504  502  0.00000000000E+00  0.00000000000E+00  0.27358077198E+03  0.27358077198E+03  0.00000000000E+00 0. -1.
          2   -1    0    0  503    0 -0.00000000000E+00 -0.00000000000E+00 -0.22352840440E+04  0.22352840440E+04  0.00000000000E+00 0. -1.
         21    1    1    2  503  505  0.11737040303E+03 -0.13074554334E+03 -0.32100341377E+03  0.36594179901E+03  0.00000000000E+00 0. -1.
         21    1    1    2  504  501 -0.14132938682E+02  0.28775669700E+02  0.15657481455E+00  0.32059376759E+02  0.00000000000E+00 0. -1.
         21    1    1    2  505  502 -0.77706004338E+01  0.47925873764E+02  0.23087260079E+03  0.23592250720E+03  0.00000000000E+00 0. -1.
          2    1    1    2  501    0 -0.95466863918E+02  0.54043999880E+02 -0.18717290338E+04  0.18749411330E+04  0.00000000000E+00 0. -1.
<scales pt_clust_3="113.55632" pt_clust_4="32.05899" pt_clust_5="76.81943" pt_clust_6="14000.00000"></scales>
<clustering>
<clus scale="   32.059">  1  4  2 -1</clus>
<clus scale="   76.819">  1  5  2 -1</clus>
<clus scale="  113.556">  1  3  2 -1</clus>
<clus scale="   32.059">  1  3  2 -1</clus>
</clustering>
</event>
<event>
 6    0  0.6525019E+002  0.1358343E+03  0.7546771E-02  0.1219047E+00
          1   -1    0    0  503    0 -0.00000000000E+00  0.00000000000E+00  0.11765436345E+04  0.11765436345E+04  0.00000000000E+00 0.  1.
         21   -1    0    0  501  502  0.00000000000E+00 -0.00000000000E+00 -0.11532717201E+03  0.11532717201E+03  0.00000000000E+00 0.  1.
         21    1    1    2  503  505 -0.16511255163E+03 -0.64975467266E+01  0.78919010715E+03  0.80630353965E+03  0.00000000000E+00 0.  1.
         21    1    1    2  504  502 -0.12170736708E+01 -0.45971417335E+02 -0.65473719235E+02  0.80010376768E+02  0.00000000000E+00 0.  1.
         21    1    1    2  505  504  0.12464949991E+03  0.76039928730E+02  0.13982420034E+03  0.20216422925E+03  0.00000000000E+00 0.  1.
          1    1    1    2  501    0  0.41680125389E+02 -0.23570964668E+02  0.19767587428E+03  0.20339266088E+03  0.00000000000E+00 0.  1.
<scales pt_clust_3="135.83434" pt_clust_4="45.98753" pt_clust_5="14000.00000" pt_clust_6="49.40655"></scales>
<clustering>
<clus scale="   45.988">  2  4  1 -1</clus>
<clus scale="   49.407">  1  6  2 -1</clus>
<clus scale="  135.834">  1  3  2 -1</clus>
<clus scale="   45.988">  2  3  1 -1</clus>
</clustering>
</event>
<event>
 6    0  0.6525019E+002  0.9820776E+02  0.7546771E-02  0.1284111E+00
          2   -1    0    0  504    0 -0.00000000000E+00  0.00000000000E+00  0.22746138658E+03  0.22746138658E+03  0.00000000000E+00 0.  1.
         21   -1    0    0  505  502  0.00000000000E+00 -0.00000000000E+00 -0.50679618719E+03  0.50679618719E+03  0.00000000000E+00 0. -1.
         21    1    1    2  503  501 -0.57133734718E+02 -0.30424141177E+02  0.13130230452E+03  0.14639052969E+03  0.00000000000E+00 0.  1.
         21    1    1    2  504  502  0.99786197863E+02  0.14800420118E+02 -0.17187139032E+03  0.19928901759E+03  0.00000000000E+00 0. -1.
         21    1    1    2  505  503 -0.32253021513E+02  0.69272833020E+02 -0.29820243225E+03  0.30783708904E+03  0.00000000000E+00 0. -1.
          2    1    1    2  501    0 -0.10399441631E+02 -0.53649111962E+02  0.59436717437E+02  0.80740937449E+02  0.00000000000E+00 0.  1.
<scales pt_clust_3="98.20776" pt_clust_4="14000.00000" pt_clust_5="75.06523" pt_clust_6="54.64774"></scales>
<clustering>
<clus scale="   54.648">  1  6  2 -1</clus>
<clus scale="   75.065">  2  5  1 -1</clus>
<clus scale="   98.208">  1  3  2 -1</clus>
<clus scale="   75.065">  2  3  1 -1</clus>
</clustering>
</event>
<event>
 6    0  0.6525019E+002  0.6474246E+02  0.7546771E-02  0.1378943E+00
          2   -1    0    0  504    0 -0.00000000000E+00  0.00000000000E+00  0.92208733231E+03  0.92208733231E+03  0.00000000000E+00 0.  1.
         21   -1    0    0  505  502  0.00000000000E+00 -0.00000000000E+00 -0.53747461710E+03  0.53747461710E+03  0.00000000000E+00 0. -1.
         21    1    1    2  503  502  0.56608356218E+02  0.20162308621E+02  0.82604928959E+01  0.60656907484E+02  0.00000000000E+00 0. -1.
         21    1    1    2  504  503  0.36359748061E+02 -0.49908059141E+00  0.12229144541E+03  0.12758321983E+03  0.00000000000E+00 0. -1.
         21    1    1    2  505  501 -0.11219049553E+03 -0.55458512736E+02 -0.50037730940E+03  0.51579046684E+03  0.00000000000E+00 0. -1.
          2    1    1    2  501    0  0.19222391255E+02  0.35795284706E+02  0.75443808630E+03  0.75553135527E+03  0.00000000000E+00 0.  1.
<scales pt_clust_3="61.56762" pt_clust_4="36.36317" pt_clust_5="64.74246" pt_clust_6="14000.00000"></scales>
<clustering>
<clus scale="   36.363">  1  4  2 -1</clus>
<clus scale="   61.568">  2  3  1 -1</clus>
<clus scale="   64.742">  2  5  1 -1</clus>
<clus scale="   61.568">  2  3  1 -1</clus>
</clustering>
</event>
<event>
 6    0  0.6525019E+002  0.2480119E+03  0.7546771E-02  0.1114568E+00
         21   -1    0    0  501  502  0.00000000000E+00  0.00000000000E+00  0.19892790058E+03  0.19892790058E+03  0.00000000000E+00 0. -1.
          2   -1    0    0  503    0 -0.00000000000E+00 -0.00000000000E+00 -0.20330793534E+04  0.20330793534E+04  0.00000000000E+00 0. -1.
         21    1    1    2  503  504 -0.47198155251E+02  0.53747736726E+02 -0.15841057175E+03  0.17381137565E+03  0.00000000000E+00 0.  1.
         21    1    1    2  504  505  0.21838029290E+03  0.74676151593E+02 -0.37061904869E+03  0.43660618319E+03  0.00000000000E+00 0. -1.
         21    1    1    2  505  502 -0.20928518541E+03 -0.14419290317E+03  0.55668503338E+02  0.26017468059E+03  0.00000000000E+00 0. -1.
          2    1    1    2  501    0  0.38103047767E+02  0.15769014849E+02 -0.13607903357E+04  0.13614150145E+04  0.00000000000E+00 0. -1.
<scales pt_clust_3="68.92245" pt_clust_4="248.01190" pt_clust_5="14000.00000" pt_clust_6="41.23717"></scales>
<clustering>
<clus scale="   41.237">  2  6  1 -1</clus>
<clus scale="   68.922">  2  3  1 -1</clus>
<clus scale="  248.012">  2  4  1 -1</clus>
<clus scale="  248.012">  1  3  2 -1</clus>
</clustering>
</event>
<event>
 6    0  0.6525019E+002  0.8172049E+02  0.7546771E-02  0.1324239E+00
         21   -1    0    0  501  502  0.00000000000E+00  0.00000000000E+00  0.11173899460E+03  0.11173899460E+03  0.00000000000E+00 0. -1.
          2   -1    0    0  503    0 -0.00000000000E+00 -0.00000000000E+00 -0.19007680549E+04  0.19007680549E+04  0.00000000000E+00 0.  1.
         21    1    1    2  503  505  0.46360799385E+02  0.48076775296E+02 -0.33004254785E+03  0.33673251021E+03  0.00000000000E+00 0.  1.
         21    1    1    2  504  502  0.48365364760E+02  0.13971544524E+02  0.56239913145E+02  0.75480728635E+02  0.00000000000E+00 0. -1.
         21    1    1    2  505  504 -0.71796237644E+02  0.25367167001E+02  0.60031869799E+01  0.76382138981E+02  0.00000000000E+00 0. -1.
          2    1    1    2  501    0 -0.22929926501E+02 -0.87415486821E+02 -0.15212296125E+04  0.15239116716E+04  0.00000000000E+00 0.  1.
<scales pt_clust_3="14000.00000" pt_clust_4="50.34295" pt_clust_5="47.35189" pt_clust_6="81.72049"></scales>
<clustering>
<clus scale="   50.343">  1  4  2 -1</clus>
<clus scale="   47.352">  1  5  2 -1</clus>
<clus scale="   81.720">  2  6  1 -1</clus>
<clus scale="   50.343">  1  3  2 -1</clus>
</clustering>
</event>
<event>
 6    0  0.6525019E+002  0.1565776E+03  0.7546771E-02  0.1192616E+00
         21   -1    0    0  503  502  0.00000000000E+00  0.00000000000E+00  0.47355393913E+03  0.47355393913E+03  0.00000000000E+00 0.  1.
          2   -1    0    0  504    0 -0.00000000000E+00 -0.00000000000E+00 -0.25001231565E+04  0.25001231565E+04  0.00000000000E+00 0.  1.
         21    1    1    2  503  501  0.21079199333E+02  0.59096035993E+02 -0.31363926183E+02  0.70145348956E+02  0.00000000000E+00 0.  1.
         21    1    1    2  504  505 -0.59459110419E+02  0.99842924725E+02 -0.52888296019E+03  0.54149901294E+03  0.00000000000E+00 0.  1.
         21    1    1    2  505  502  0.72161267492E+02 -0.14014256835E+03  0.43378239686E+03  0.46153478289E+03  0.00000000000E+00 0.  1.
          2    1    1    2  501    0 -0.33781356406E+02 -0.18796392364E+02 -0.19001047278E+04  0.19004979508E+04  0.00000000000E+00 0.  1.
<scales pt_clust_3="60.32317" pt_clust_4="14000.00000" pt_clust_5="156.57758" pt_clust_6="38.65856"></scales>
<clustering>
<clus scale="   38.659">  2  6  1 -1</clus>
<clus scale="   60.323">  2  3  1 -1</clus>
<clus scale="  156.578">  1  5  2 -1</clus>
<clus scale="  156.578">  1  3  2 -1</clus>
</clustering>
</event>
<event>
 6    0  0.6525019E+002  0.7695012E+02  0.7546771E-02  0.1337936E+00
         21   -1    0    0  503  502  0.00000000000E+00  0.00000000000E+00  0.17000310134E+03  0.17000310134E+03  0.00000000000E+00 0. -1.
          2   -1    0    0  505    0 -0.00000000000E+00 -0.00000000000E+00 -0.21322371226E+04  0.21322371226E+04  0.00000000000E+00 0. -1.
         21    1    1    2  503  504  0.68655277590E+02 -0.33665355861E+02  0.15387244737E+03  0.17182442604E+03  0.00000000000E+00 0. -1.
         21    1    1    2  504  501 -0.12267640086E+03  0.61356899426E+01 -0.66237204016E+03  0.67366450523E+03  0.00000000000E+00 0.  1.
         21    1    1    2  505  502  0.41772331466E+02 -0.46698993910E+01 -0.11943081459E+04  0.11950475651E+04  0.00000000000E+00 0.  1.
          2    1    1    2  501    0  0.12248791800E+02  0.32199565309E+02 -0.25942628263E+03  0.26170372757E+03  0.00000000000E+00 0. -1.
<scales pt_clust_3="14000.00000" pt_clust_4="76.95012" pt_clust_5="52.07207" pt_clust_6="34.45062"></scales>
<clustering>
<clus scale="   34.451">  2  6  1 -1</clus>
<clus scale="   52.072">  2  5  1 -1</clus>
<clus scale="   76.950">  2  4  1 -1</clus>
<clus scale="   76.950">  1  3  2 -1</clus>
</clustering>
</event>
<event>
 6    0  0.6525019E+002  0.1688703E+03  0.7546771E-02  0.1179031E+00
         -3   -1    0    0    0  501 -0.00000000000E+00  0.00000000000E+00  0.27783286281E+03  0.27783286281E+03  0.00000000000E+00 0.  1.
         21   -1    0    0  504  502  0.00000000000E+00 -0.00000000000E+00 -0.30429411776E+03  0.30429411776E+03  0.00000000000E+00 0. -1.
         21    1    1    2  503  501 -0.15598988682E+03 -0.24462232156E+02  0.11345423314E+03  0.19443021527E+03  0.00000000000E+00 0.  1.
         21    1    1    2  504  503  0.19840287439E+03 -0.57890853390E+01 -0.17929361740E+03  0.26747600886E+03  0.00000000000E+00 0. -1.
         21    1    1    2  505  502 -0.33060086068E+02  0.11968098615E+01 -0.29852763297E+02  0.44559949743E+02  0.00000000000E+00 0. -1.
         -3    1    1    2    0  505 -0.93529015044E+01  0.29054507633E+02  0.69230892605E+02  0.75660806705E+02  0.00000000000E+00 0.  1.
<scales pt_clust_3="168.87031" pt_clust_4="14000.00000" pt_clust_5="33.46980" pt_clust_6="30.52280"></scales>
<clustering>
<clus scale="   30.523">  1  6  2 -1</clus>
<clus scale="   33.470">  2  5  1 -1</clus>
<clus scale="  168.870">  1  3  2 -1</clus>
<clus scale="   33.470">  2  3  1 -1</clus>
</clustering>
</event>
<event>
 6    0  0.6525019E+002  0.9867393E+02  0.7546771E-02  0.1283109E+00
         21   -1    0    0  503  502  0.00000000000E+00  0.00000000000E+00  0.74602482816E+02  0.74602482816E+02  0.00000000000E+00 0. -1.
          2   -1    0    0  505    0 -0.00000000000E+00 -0.00000000000E+00 -0.67826958797E+03  0.67826958797E+03  0.00000000000E+00 0. -1.
         21    1    1    2  503  501 -0.10407185729E+03  0.12208241750E+02  0.15623953404E+02  0.10594385573E+03  0.00000000000E+00 0. -1.
         21    1    1    2  504  502  0.41953150026E+02  0.47767640858E+02 -0.11767597786E+03  0.13375144887E+03  0.00000000000E+00 0. -1.
         21    1    1    2  505  504  0.29268360771E+02 -0.13396540585E+02 -0.61767422431E+02  0.69651408569E+02  0.00000000000E+00 0. -1.
          2    1    1    2  501    0  0.32850346491E+02 -0.46579342022E+02 -0.43984765827E+03  0.44352535762E+03  0.00000000000E+00 0. -1.
<scales pt_clust_3="98.67393" pt_clust_4="65.77835" pt_clust_5="32.18857" pt_clust_6="14000.00000"></scales>
<clustering>
<clus scale="   32.189">  2  5  1 -1</clus>
<clus scale="   65.778">  2  4  1 -1</clus>
<clus scale="   98.674">  1  3  2 -1</clus>
<clus scale="   98.674">  1  3  2 -1</clus>
</clustering>
</event>
<event>
 6    0  0.6525019E+002  0.1101453E+03  0.7546771E-02  0.1260301E+00
         21   -1    0    0  505  502  0.00000000000E+00  0.00000000000E+00  0.19196027444E+03  0.19196027444E+03  0.00000000000E+00 0. -1.
          1   -1    0    0  503    0 -0.00000000000E+00 -0.00000000000E+00 -0.11859539997E+04  0.11859539997E+04  0.00000000000E+00 0. -1.
         21    1    1    2  503  504  0.55450998861E+02  0.95276361155E+02  0.49296576179E+02  0.12075823240E+03  0.00000000000E+00 0. -1.
         21    1    1    2  504  502  0.25290933780E+02 -0.21412432739E+02  0.96932368565E+02  0.10244026397E+03  0.00000000000E+00 0. -1.
         21    1    1    2  505  501 -0.67340043092E+02 -0.11691925893E+03 -0.76677392359E+03  0.77855445822E+03  0.00000000000E+00 0. -1.
          1    1    1    2  501    0 -0.13401889549E+02  0.43055330519E+02 -0.37344874642E+03  0.37616131956E+03  0.00000000000E+00 0. -1.
<scales pt_clust_3="14000.00000" pt_clust_4="33.13795" pt_clust_5="110.14529" pt_clust_6="44.68270"></scales>
<clustering>
<clus scale="   33.138">  1  4  2 -1</clus>
<clus scale="   44.683">  2  6  1 -1</clus>
<clus scale="  110.145">  2  5  1 -1</clus>
<clus scale="   33.138">  1  3  2 -1</clus>
</clustering>
</event>
<event>
 6    0  0.6525019E+002  0.1010176E+03  0.7546771E-02  0.1278171E+00
         21   -1    0    0  501  502  0.00000000000E+00  0.00000000000E+00  0.26659833585E+03  0.26659833585E+03  0.00000000000E+00 0.  1.
         -3   -1    0    0    0  501 -0.00000000000E+00 -0.00000000000E+00 -0.13045967333E+04  0.13045967333E+04  0.00000000000E+00 0.  1.
         21    1    1    2  503  504  0.15582911272E+02 -0.87050839938E+02 -0.43588278014E+03  0.44476339090E+03  0.00000000000E+00 0.  1.
         21    1    1    2  504  505 -0.34668534377E+02  0.71431658458E+02 -0.70982882340E+02  0.10650332714E+03  0.00000000000E+00 0. -1.
         21    1    1    2  505  502 -0.12190474570E+02  0.41641532362E+02  0.24193285222E+03  0.24579285968E+03  0.00000000000E+00 0.  1.
         -3    1    1    2    0  503  0.31276097675E+02 -0.26022350882E+02 -0.77306558715E+03  0.77413549142E+03  0.00000000000E+00 0.  1.
<scales pt_clust_3="14000.00000" pt_clust_4="101.01755" pt_clust_5="43.26659" pt_clust_6="40.68608"></scales>
<clustering>
<clus scale="   40.686">  2  6  1 -1</clus>
<clus scale="   43.267">  1  5  2 -1</clus>
<clus scale="  101.018">  1  4  2 -1</clus>
<clus scale="   43.267">  1  3  2 -1</clus>
</clustering>
</event>
<event>
 6    0  0.6525019E+002  0.8128376E+02  0.7546771E-02  0.1325447E+00
         21   -1    0    0  503  502  0.00000000000E+00  0.00000000000E+00  0.12014053475E+03  0.12014053475E+03  0.00000000000E+00 0.  1.
          1   -1    0    0  505    0 -0.00000000000E+00 -0.00000000000E+00 -0.12840779448E+04  0.12840779448E+04  0.00000000000E+00 0.  1.
         21    1    1    2  503  504 -0.28235747770E+02  0.32670182995E+02 -0.52960291926E+02  0.68332941031E+02  0.00000000000E+00 0.  1.
         21    1    1    2  504  501  0.11560184320E+03  0.13068275860E+02  0.55228976326E+02  0.12878200888E+03  0.00000000000E+00 0.  1.
         21    1    1    2  505  502 -0.92191765134E+01 -0.66485833881E+02 -0.40285088928E+02  0.78283125336E+02  0.00000000000E+00 0. -1.
          1    1    1    2  501    0 -0.78146918918E+02  0.20747375026E+02 -0.11259210055E+04  0.11288204043E+04  0.00000000000E+00 0.  1.
<scales pt_clust_3="43.18099" pt_clust_4="14000.00000" pt_clust_5="62.55071" pt_clust_6="81.28376"></scales>
<clustering>
<clus scale="   43.181">  1  3  2 -1</clus>
<clus scale="   62.551">  1  5  2 -1</clus>
<clus scale="   81.284">  2  6  1 -1</clus>
<clus scale="   43.181">  1  3  2 -1</clus>
</clustering>
</event>
<event>
 6    0  0.6525019E+002  0.1062617E+03  0.7546771E-02  0.1267653E+00
         21   -1    0    0  505  502  0.00000000000E+00  0.00000000000E+00  0.84117607272E+03  0.84117607272E+03  0.00000000000E+00 0. -1.
         -1   -1    0    0    0  501 -0.00000000000E+00 -0.00000000000E+00 -0.40294310094E+03  0.40294310094E+03  0.00000000000E+00 0.  1.
         21    1    1    2  503  502 -0.37543866367E+02  0.63986592986E+02  0.66108025289E+03  0.66522998034E+03  0.00000000000E+00 0. -1.
         21    1    1    2  504  501  0.12690079585E+02 -0.90962290836E+02 -0.30521045787E+02  0.96781768479E+02  0.00000000000E+00 0.  1.
         21    1    1    2  505  504 -0.45112543721E+02  0.13584608577E+02  0.13715080662E+03  0.14501733327E+03  0.00000000000E+00 0. -1.
         -1    1    1    2    0  503  0.69966330502E+02  0.13391089273E+02 -0.32947704193E+03  0.33709009158E+03  0.00000000000E+00 0.  1.
<scales pt_clust_3="106.26170" pt_clust_4="14000.00000" pt_clust_5="47.11351" pt_clust_6="71.00936"></scales>
<clustering>
<clus scale="   47.114">  1  5  2 -1</clus>
<clus scale="   71.009">  2  6  1 -1</clus>
<clus scale="  106.262">  1  3  2 -1</clus>
<clus scale="   47.114">  1  3  2 -1</clus>
</clustering>
</event>
<event>
 6    0  0.6525019E+002  0.1795060E+03  0.7546771E-02  0.1168282E+00
         21   -1    0    0  505  502  0.00000000000E+00  0.00000000000E+00  0.20186096827E+03  0.20186096827E+03  0.00000000000E+00 0. -1.
          2   -1    0    0  504    0 -0.00000000000E+00 -0.00000000000E+00 -0.32671883736E+04  0.32671883736E+04  0.00000000000E+00 0. -1.
         21    1    1    2  503  502 -0.80597139953E+02 -0.16376867524E+01  0.17159735816E+03  0.18958964717E+03  0.00000000000E+00 0. -1.
         21    1    1    2  504  503 -0.70926361945E+02  0.10500950559E+03 -0.20034058668E+03  0.23705251687E+03  0.00000000000E+00 0.  1.
         21    1    1    2  505  501  0.10748982168E+03 -0.48981437746E+02 -0.18767474519E+04  0.18804611778E+04  0.00000000000E+00 0. -1.
          2    1    1    2  501    0  0.44033680221E+02 -0.54390381092E+02 -0.11598367249E+04  0.11619460000E+04  0.00000000000E+00 0. -1.
<scales pt_clust_3="80.61378" pt_clust_4="174.55521" pt_clust_5="32.22512" pt_clust_6="32.22512"></scales>
<clustering>
<clus scale="   32.225">  5  6 -1 -1</clus>
<clus scale="   80.614">  1  3  2 -1</clus>
<clus scale="  174.555">  1  4  2 -1</clus>
<clus scale="   80.614">  1  3  2 -1</clus>
</clustering>
</event>
<event>
 6    0  0.6525019E+002  0.1679217E+03  0.7546771E-02  0.1180033E+00
         -1   -1    0    0    0  501 -0.00000000000E+00  0.00000000000E+00  0.10892333983E+04  0.10892333983E+04  0.00000000000E+00 0. -1.
         21   -1    0    0  503  502  0.00000000000E+00 -0.00000000000E+00 -0.94207598267E+02  0.94207598267E+02  0.00000000000E+00 0. -1.
         21    1    1    2  503  501 -0.19062959331E+03 -0.13454502936E+01  0.34301437648E+03  0.39242873818E+03  0.00000000000E+00 0. -1.
         21    1    1    2  504  505  0.14384156907E+03 -0.34619723966E+02  0.36173548414E+03  0.39082154849E+03  0.00000000000E+00 0. -1.
         21    1    1    2  505  502  0.18947798847E+02  0.93433576410E+02 -0.75139938369E+01  0.95631126655E+02  0.00000000000E+00 0. -1.
         -1    1    1    2    0  504  0.27840225396E+02 -0.57468402151E+02  0.29778993328E+03  0.30455958327E+03  0.00000000000E+00 0. -1.
<scales pt_clust_3="167.92167" pt_clust_4="14000.00000" pt_clust_5="92.52130" pt_clust_6="63.85684"></scales>
<clustering>
<clus scale="   63.857">  1  6  2 -1</clus>
<clus scale="   92.521">  2  5  1 -1</clus>
<clus scale="  167.922">  2  3  1 -1</clus>
<clus scale="   92.521">  2  3  1 -1</clus>
</clustering>
</event>
<event>
 6    0  0.6525019E+002  0.7032074E+02  0.7546771E-02  0.1359006E+00
         21   -1    0    0  504  502  0.00000000000E+00  0.00000000000E+00  0.50149550378E+02  0.50149550378E+02  0.00000000000E+00 0.  1.
          2   -1    0    0  503    0 -0.00000000000E+00 -0.00000000000E+00 -0.49438704988E+04  0.49438704988E+04  0.00000000000E+00 0.  1.
         21    1    1    2  503  502 -0.26863302998E+02  0.10903157454E+03 -0.22938141244E+03  0.25539254818E+03  0.00000000000E+00 0.  1.
         21    1    1    2  504  505  0.25919617725E+02  0.33922866469E+02  0.19543888507E+02  0.46952646682E+02  0.00000000000E+00 0.  1.
         21    1    1    2  505  501  0.63497608555E+01 -0.73630790820E+02 -0.37407540001E+03  0.38130593716E+03  0.00000000000E+00 0.  1.
          2    1    1    2  501    0 -0.54060755827E+01 -0.69323650184E+02 -0.43098080245E+04  0.43103689171E+04  0.00000000000E+00 0.  1.
<scales pt_clust_3="14000.00000" pt_clust_4="42.69177" pt_clust_5="67.43179" pt_clust_6="70.32074"></scales>
<clustering>
<clus scale="   42.692">  1  4  2 -1</clus>
<clus scale="   67.432">  1  5  2 -1</clus>
<clus scale="   70.321">  2  6  1 -1</clus>
<clus scale="   42.692">  1  3  2 -1</clus>
</clustering>
</event>
<event>
 6    0  0.6525019E+002  0.9737639E+02  0.7546771E-02  0.1285912E+00
         21   -1    0    0  503  502  0.00000000000E+00  0.00000000000E+00  0.37553573401E+02  0.37553573401E+02  0.00000000000E+00 0. -1.
         -1   -1    0    0    0  501 -0.00000000000E+00 -0.00000000000E+00 -0.16044292926E+04  0.16044292926E+04  0.00000000000E+00 0. -1.
         21    1    1    2  503  504  0.10790828402E+03 -0.18387703365E+02 -0.71378557794E+02  0.13067977620E+03  0.00000000000E+00 0. -1.
         21    1    1    2  504  501 -0.77037145950E+02 -0.40126345497E+01 -0.68200194427E+03  0.68635083965E+03  0.00000000000E+00 0. -1.
         21    1    1    2  505  502 -0.80027998733E+01  0.42664012280E+02 -0.81667661781E+02  0.92487132783E+02  0.00000000000E+00 0. -1.
         -1    1    1    2    0  505 -0.22868338198E+02 -0.20263674365E+02 -0.73182755536E+03  0.73246511737E+03  0.00000000000E+00 0. -1.
<scales pt_clust_3="97.37639" pt_clust_4="14000.00000" pt_clust_5="41.92253" pt_clust_6="30.55450"></scales>
<clustering>
<clus scale="   30.554">  2  6  1 -1</clus>
<clus scale="   41.923">  1  5  2 -1</clus>
<clus scale="   97.376">  1  3  2 -1</clus>
<clus scale="   41.923">  1  3  2 -1</clus>
</clustering>
</event>
<event>
 6    0  0.6525019E+002  0.9473783E+02  0.7546771E-02  0.1291768E+00
         21   -1    0    0  504  502  0.00000000000E+00  0.00000000000E+00  0.67363651934E+03  0.67363651934E+03  0.00000000000E+00 0. -1.
          2   -1    0    0  503    0 -0.00000000000E+00 -0.00000000000E+00 -0.11502445379E+04  0.11502445379E+04  0.00000000000E+00 0. -1.
         21    1    1    2  503  502 -0.16414015331E+02 -0.43261190080E+02  0.54709111840E+03  0.54904429903E+03  0.00000000000E+00 0. -1.
         21    1    1    2  504  505  0.91238024684E+02  0.11068074038E+03  0.76600647532E+02  0.16261077037E+03  0.00000000000E+00 0. -1.
         21    1    1    2  505  501 -0.32802981027E+02 -0.40521758871E+02 -0.12222678641E+03  0.13288128470E+03  0.00000000000E+00 0.  1.
          2    1    1    2  501    0 -0.42021028326E+02 -0.26897791426E+02 -0.97807299809E+03  0.97934470316E+03  0.00000000000E+00 0. -1.
<scales pt_clust_3="46.27041" pt_clust_4="14000.00000" pt_clust_5="94.73783" pt_clust_6="50.08076"></scales>
<clustering>
<clus scale="   46.270">  1  3  2 -1</clus>
<clus scale="   50.081">  2  6  1 -1</clus>
<clus scale="   94.738">  2  5  1 -1</clus>
<clus scale="   46.270">  1  3  2 -1</clus>
</clustering>
</event>
<event>
 6    0  0.6525019E+002  0.1173849E+03  0.7546771E-02  0.1247475E+00
         21   -1    0    0  505  502  0.00000000000E+00  0.00000000000E+00  0.23019966054E+03  0.23019966054E+03  0.00000000000E+00 0.  1.
          2   -1    0    0  504    0 -0.00000000000E+00 -0.00000000000E+00 -0.14643340322E+04  0.14643340322E+04  0.00000000000E+00 0.  1.
         21    1    1    2  503  502  0.41933780341E+02  0.73513017573E+01 -0.61936484647E+01  0.43021446425E+02  0.00000000000E+00 0. -1.
         21    1    1    2  504  503  0.93793924214E+02  0.69223178435E+02 -0.49139216475E+03  0.50503010626E+03  0.00000000000E+00 0.  1.
         21    1    1    2  505  501 -0.15752805658E+03 -0.24457302493E+02  0.17296049500E+03  0.23522028205E+03  0.00000000000E+00 0.  1.
          2    1    1    2  501    0  0.21800352024E+02 -0.52117177699E+02 -0.90950905347E+03  0.91126185803E+03  0.00000000000E+00 0.  1.
<scales pt_clust_3="42.57327" pt_clust_4="14000.00000" pt_clust_5="117.38487" pt_clust_6="56.53213"></scales>
<clustering>
<clus scale="   42.573">  1  3  2 -1</clus>
<clus scale="   56.532">  2  6  1 -1</clus>
<clus scale="  117.385">  1  5  2 -1</clus>
<clus scale="   42.573">  1  3  2 -1</clus>
</clustering>
</event>
<event>
 6    0  0.6525019E+002  0.1555142E+03  0.7546771E-02  0.1193856E+00
         21   -1    0    0  505  502  0.00000000000E+00  0.00000000000E+00  0.52440718573E+03  0.52440718573E+03  0.00000000000E+00 0.  1.
         -1   -1    0    0    0  501 -0.00000000000E+00 -0.00000000000E+00 -0.79115308787E+03  0.79115308787E+03  0.00000000000E+00 0.  1.
         21    1    1    2  503  504  0.53205360859E+02 -0.12295185299E+03 -0.17458818116E+03  0.22006590280E+03  0.00000000000E+00 0.  1.
         21    1    1    2  504  502  0.91784537981E+02  0.19915351953E+03  0.36401844194E+02  0.22228724663E+03  0.00000000000E+00 0.  1.
         21    1    1    2  505  501 -0.89919426256E+02 -0.41266613544E+02  0.36356180405E+03  0.37678325596E+03  0.00000000000E+00 0.  1.
         -1    1    1    2    0  503 -0.55070472584E+02 -0.34935052995E+02 -0.49212136923E+03  0.49642386821E+03  0.00000000000E+00 0.  1.
<scales pt_clust_3="155.51425" pt_clust_4="14000.00000" pt_clust_5="100.37569" pt_clust_6="65.21668"></scales>
<clustering>
<clus scale="   65.217">  2  6  1 -1</clus>
<clus scale="  100.376">  1  5  2 -1</clus>
<clus scale="  155.514">  2  3  1 -1</clus>
<clus scale="  100.376">  1  3  2 -1</clus>
</clustering>
</event>
<event>
 6    0  0.6525019E+002  0.1754288E+03  0.7546771E-02  0.1172302E+00
          2   -1    0    0  504    0 -0.00000000000E+00  0.00000000000E+00  0.14402781384E+04  0.14402781384E+04  0.00000000000E+00 0. -1.
         21   -1    0    0  505  502  0.00000000000E+00 -0.00000000000E+00 -0.44694633510E+03  0.44694633510E+03  0.00000000000E+00 0.  1.
         21    1    1    2  503  502  0.13907129641E+02 -0.32493088852E+02 -0.36384815392E+03  0.36556078590E+03  0.00000000000E+00 0.  1.
         21    1    1    2  504  503  0.13471199704E+03  0.68960879949E+02  0.51093358158E+03  0.53287526673E+03  0.00000000000E+00 0.  1.
         21    1    1    2  505  501  0.65121525759E+02 -0.34180435663E+02 -0.35383883309E+02  0.81615773582E+02  0.00000000000E+00 0. -1.
          2    1    1    2  501    0 -0.21374065244E+03 -0.22873554333E+01  0.88163025896E+03  0.90717264731E+03  0.00000000000E+00 0. -1.
<scales pt_clust_3="35.34415" pt_clust_4="14000.00000" pt_clust_5="94.39066" pt_clust_6="175.42884"></scales>
<clustering>
<clus scale="   35.344">  2  3  1 -1</clus>
<clus scale="   94.391">  2  5  1 -1</clus>
<clus scale="  175.429">  2  6  1 -1</clus>
<clus scale="   35.344">  2  3  1 -1</clus>
</clustering>
</event>
<event>
 6    0  0.6525019E+002  0.9793714E+02  0.7546771E-02  0.1284695E+00
          1   -1    0    0  504    0 -0.00000000000E+00  0.00000000000E+00  0.10136280639E+04  0.10136280639E+04  0.00000000000E+00 0. -1.
         21   -1    0    0  501  502  0.00000000000E+00 -0.00000000000E+00 -0.16030830450E+04  0.16030830450E+04  0.00000000000E+00 0.  1.
         21    1    1    2  503  502 -0.48785354554E+01 -0.66645560596E+02 -0.15846268618E+04  0.15860352209E+04  0.00000000000E+00 0.  1.
         21    1    1    2  504  505  0.24238882961E+02  0.33704307448E+02  0.68152123747E+02  0.79801101239E+02  0.00000000000E+00 0. -1.
         21    1    1    2  505  503 -0.41021859653E+02  0.11646996537E+03  0.48200895803E+03  0.49757479983E+03  0.00000000000E+00 0. -1.
          1    1    1    2  501    0  0.21661512148E+02 -0.83528712226E+02  0.44501079894E+03  0.45329998682E+03  0.00000000000E+00 0. -1.
<scales pt_clust_3="66.79736" pt_clust_4="41.51510" pt_clust_5="97.93714" pt_clust_6="14000.00000"></scales>
<clustering>
<clus scale="   41.515">  1  4  2 -1</clus>
<clus scale="   66.797">  2  3  1 -1</clus>
<clus scale="   97.937">  2  5  1 -1</clus>
<clus scale="   66.797">  2  3  1 -1</clus>
</clustering>
</event>
<event>
 6    0  0.6525019E+002  0.1502472E+03  0.7546771E-02  0.1200170E+00
         21   -1    0    0  503  502  0.00000000000E+00  0.00000000000E+00  0.42258791596E+03  0.42258791596E+03  0.00000000000E+00 0.  1.
          2   -1    0    0  504    0 -0.00000000000E+00 -0.00000000000E+00 -0.57304113960E+03  0.57304113960E+03  0.00000000000E+00 0.  1.
         21    1    1    2  503  501  0.11695585244E+03  0.66900809329E+02  0.12384964321E+03  0.18301126696E+03  0.00000000000E+00 0.  1.
         21    1    1    2  504  505 -0.18356941794E+03 -0.53778938833E+02 -0.60892702271E+02  0.20074318582E+03  0.00000000000E+00 0.  1.
         21    1    1    2  505  502 -0.36057188975E+02  0.69768120509E+02  0.18028842584E+03  0.19665103104E+03  0.00000000000E+00 0.  1.
          2    1    1    2  501    0  0.10267075447E+03 -0.82889991005E+02 -0.39369859043E+03  0.41522357175E+03  0.00000000000E+00 0.  1.
<scales pt_clust_3="150.24722" pt_clust_4="14000.00000" pt_clust_5="78.53478" pt_clust_6="128.65847"></scales>
<clustering>
<clus scale="   78.535">  1  5  2 -1</clus>
<clus scale="  128.658">  2  6  1 -1</clus>
<clus scale="  150.247">  1  3  2 -1</clus>
<clus scale="   78.535">  1  3  2 -1</clus>
</clustering>
</event>
<event>
 6    0  0.6525019E+002  0.2776768E+03  0.7546771E-02  0.1096965E+00
          2   -1    0    0  503    0 -0.00000000000E+00  0.00000000000E+00  0.13197256130E+04  0.13197256130E+04  0.00000000000E+00 0. -1.
         21   -1    0    0  501  502  0.00000000000E+00 -0.00000000000E+00 -0.35875028376E+03  0.35875028376E+03  0.00000000000E+00 0.  1.
         21    1    1    2  503  505 -0.18572288835E+02  0.12261760882E+03  0.40940393424E+03  0.42777516206E+03  0.00000000000E+00 0.  1.
         21    1    1    2  504  502  0.32235538290E+02 -0.26836948884E+03 -0.28027803167E+03  0.38938038922E+03  0.00000000000E+00 0.  1.
         21    1    1    2  505  504  0.20920357669E+02  0.86560587753E+02  0.13894984846E+03  0.16503774448E+03  0.00000000000E+00 0.  1.
          2    1    1    2  501    0 -0.34583607124E+02  0.59191292268E+02  0.69289957819E+03  0.69628260097E+03  0.00000000000E+00 0. -1.
<scales pt_clust_3="65.07470" pt_clust_4="264.82100" pt_clust_5="65.07470" pt_clust_6="68.55388"></scales>
<clustering>
<clus scale="   68.554">  1  6  2 -1</clus>
<clus scale="   65.075">  3  5 -1 -1</clus>
<clus scale="  264.821">  2  4  1 -1</clus>
<clus scale="  264.821">  2  3  1 -1</clus>
</clustering>
</event>
<event>
 6    0  0.6525019E+002  0.1230618E+03  0.7546771E-02  0.1238130E+00
         21   -1    0    0  505  502  0.00000000000E+00  0.00000000000E+00  0.50780456032E+03  0.50780456032E+03  0.00000000000E+00 0. -1.
          2   -1    0    0  504    0 -0.00000000000E+00 -0.00000000000E+00 -0.21902687098E+03  0.21902687098E+03  0.00000000000E+00 0. -1.
         21    1    1    2  503  501 -0.33641619818E+02 -0.18893903453E+02  0.84661533501E+02  0.93039311188E+02  0.00000000000E+00 0.  1.
         21    1    1    2  504  502  0.89382430433E+02  0.11014326495E+03  0.14447407992E+03  0.20246855917E+03  0.00000000000E+00 0. -1.
         21    1    1    2  505  503  0.31672316628E+02 -0.75451976776E+01  0.22447876877E+03  0.22682765104E+03  0.00000000000E+00 0. -1.
          2    1    1    2  501    0 -0.87413127243E+02 -0.83704163824E+02 -0.16483669285E+03  0.20449590990E+03  0.00000000000E+00 0. -1.
<scales pt_clust_3="31.82104" pt_clust_4="123.06180" pt_clust_5="32.55865" pt_clust_6="14000.00000"></scales>
<clustering>
<clus scale="   32.559">  1  5  2 -1</clus>
<clus scale="   31.821">  1  3  2 -1</clus>
<clus scale="  123.062">  1  4  2 -1</clus>
<clus scale="   32.559">  1  3  2 -1</clus>
</clustering>
</event>
<event>
 6    0  0.6525019E+002  0.1364476E+03  0.7546771E-02  0.1218191E+00
          2   -1    0    0  504    0 -0.00000000000E+00  0.00000000000E+00  0.66153876865E+03  0.66153876865E+03  0.00000000000E+00 0.  1.
         21   -1    0    0  505  502  0.00000000000E+00 -0.00000000000E+00 -0.44676569872E+03  0.44676569872E+03  0.00000000000E+00 0. -1.
         21    1    1    2  503  501 -0.31992429788E+02 -0.47516511187E+02 -0.11835318234E+03  0.13148692014E+03  0.00000000000E+00 0. -1.
         21    1    1    2  504  502 -0.12997519137E+03  0.34403972238E+02 -0.90947659223E+02  0.16232270450E+03  0.00000000000E+00 0. -1.
         21    1    1    2  505  503  0.25916103684E+02  0.26081083510E+02 -0.18584717166E+03  0.18944930341E+03  0.00000000000E+00 0. -1.
          2    1    1    2  501    0  0.13605151747E+03 -0.12968544561E+02  0.60992108315E+03  0.62504553933E+03  0.00000000000E+00 0.  1.
<scales pt_clust_3="40.01486" pt_clust_4="136.44755" pt_clust_5="36.76775" pt_clust_6="14000.00000"></scales>
<clustering>
<clus scale="   36.768">  2  5  1 -1</clus>
<clus scale="   40.015">  2  3  1 -1</clus>
<clus scale="  136.448">  2  4  1 -1</clus>
<clus scale="   36.768">  2  3  1 -1</clus>
</clustering>
</event>
<event>
 6    0  0.6525019E+002  0.9090797E+02  0.7546771E-02  0.1300668E+00
          2   -1    0    0  505    0 -0.00000000000E+00  0.00000000000E+00  0.10237800635E+04  0.10237800635E+04  0.00000000000E+00 0. -1.
         21   -1    0    0  503  502  0.00000000000E+00 -0.00000000000E+00 -0.79104840297E+03  0.79104840297E+03  0.00000000000E+00 0.  1.
         21    1    1    2  503  501 -0.31403535561E+02  0.40781275575E+02 -0.21985155645E+02  0.55970005824E+02  0.00000000000E+00 0. -1.
         21    1    1    2  504  502 -0.27526206277E+02  0.65634525906E+02 -0.69346067002E+03  0.69710349582E+03  0.00000000000E+00 0.  1.
         21    1    1    2  505  504  0.55519192610E+02 -0.41526583697E+02 -0.34146628531E+02  0.77284087247E+02  0.00000000000E+00 0. -1.
          2    1    1    2  501    0  0.34105492285E+01 -0.64889217783E+02  0.98232411469E+03  0.98447087755E+03  0.00000000000E+00 0. -1.
<scales pt_clust_3="51.47130" pt_clust_4="14000.00000" pt_clust_5="90.90797" pt_clust_6="64.91832"></scales>
<clustering>
<clus scale="   51.471">  2  3  1 -1</clus>
<clus scale="   64.918">  1  6  2 -1</clus>
<clus scale="   90.908">  1  5  2 -1</clus>
<clus scale="   51.471">  2  3  1 -1</clus>
</clustering>
</event>
<event>
 6    0  0.6525019E+002  0.1258682E+03  0.7546771E-02  0.1233719E+00
          1   -1    0    0  503    0 -0.00000000000E+00  0.00000000000E+00  0.17320264436E+03  0.17320264436E+03  0.00000000000E+00 0. -1.
         21   -1    0    0  505  502  0.00000000000E+00 -0.00000000000E+00 -0.28241611535E+04  0.28241611535E+04  0.00000000000E+00 0.  1.
         21    1    1    2  503  504  0.98324223259E+02  0.60740000050E+02 -0.65908246463E+02  0.13304471969E+03  0.00000000000E+00 0. -1.
         21    1    1    2  504  502 -0.10033581816E+03  0.11168158909E+03 -0.16942173239E+04  0.17008563708E+04  0.00000000000E+00 0.  1.
         21    1    1    2  505  501 -0.33225405196E+02 -0.97886249480E+02 -0.10118029395E+04  0.10170697290E+04  0.00000000000E+00 0.  1.
          1    1    1    2  501    0  0.35237000094E+02 -0.74535339664E+02  0.12097000067E+03  0.14639297830E+03  0.00000000000E+00 0. -1.
<scales pt_clust_3="125.86819" pt_clust_4="14000.00000" pt_clust_5="107.38763" pt_clust_6="82.44491"></scales>
<clustering>
<clus scale="   82.445">  1  6  2 -1</clus>
<clus scale="  107.388">  2  5  1 -1</clus>
<clus scale="  125.868">  1  3  2 -1</clus>
<clus scale="  107.388">  2  3  1 -1</clus>
</clustering>
</event>
<event>
 6    0  0.6525019E+002  0.1345014E+03  0.7546771E-02  0.1220925E+00
         21   -1    0    0  505  502  0.00000000000E+00  0.00000000000E+00  0.11026996455E+03  0.11026996455E+03  0.00000000000E+00 0. -1.
          1   -1    0    0  504    0 -0.00000000000E+00 -0.00000000000E+00 -0.10386174066E+04  0.10386174066E+04  0.00000000000E+00 0. -1.
         21    1    1    2  503  501  0.67328402179E+02  0.48611619503E+02 -0.42205885816E+03  0.43015100028E+03  0.00000000000E+00 0. -1.
         21    1    1    2  504  502 -0.16089803318E+03 -0.10535582090E+03 -0.17663859084E+03  0.26113065284E+03  0.00000000000E+00 0. -1.
         21    1    1    2  505  503  0.83476947922E+02  0.18080515693E+02  0.33879621545E+02  0.91886531321E+02  0.00000000000E+00 0. -1.
          1    1    1    2  501    0  0.10092683082E+02  0.38663685705E+02 -0.36352961457E+03  0.36571918669E+03  0.00000000000E+00 0. -1.
<scales pt_clust_3="35.70308" pt_clust_4="124.26392" pt_clust_5="85.41256" pt_clust_6="35.70308"></scales>
<clustering>
<clus scale="   35.703">  3  6 -1 -1</clus>
<clus scale="   85.413">  1  5  2 -1</clus>
<clus scale="  124.264">  1  4  2 -1</clus>
<clus scale="   85.413">  1  3  2 -1</clus>
</clustering>
</event>
<event>
 6    0  0.6525019E+002  0.1001305E+03  0.7546771E-02  0.1280022E+00
         21   -1    0    0  503  502  0.00000000000E+00  0.00000000000E+00  0.81439050479E+02  0.81439050479E+02  0.00000000000E+00 0.  1.
          2   -1    0    0  505    0 -0.00000000000E+00 -0.00000000000E+00 -0.19947586734E+04  0.19947586734E+04  0.00000000000E+00 0.  1.
         21    1    1    2  503  504 -0.25800508736E+01  0.30695404451E+02  0.57514955790E+02  0.65244422417E+02  0.00000000000E+00 0.  1.
         21    1    1    2  504  501 -0.90706842195E+02  0.61728237907E+02 -0.31193710726E+03  0.33067032746E+03  0.00000000000E+00 0.  1.
         21    1    1    2  505  502  0.47073531782E+02 -0.95508450803E+02 -0.26466165898E+03  0.28527806663E+03  0.00000000000E+00 0. -1.
          2    1    1    2  501    0  0.46213361286E+02  0.30848084444E+01 -0.13942358125E+04  0.13950049074E+04  0.00000000000E+00 0.  1.
<scales pt_clust_3="30.80364" pt_clust_4="100.13053" pt_clust_5="14000.00000" pt_clust_6="46.30981"></scales>
<clustering>
<clus scale="   30.804">  1  3  2 -1</clus>
<clus scale="   46.310">  2  6  1 -1</clus>
<clus scale="  100.131">  2  4  1 -1</clus>
<clus scale="   30.804">  1  3  2 -1</clus>
</clustering>
</event>
<event>
 6    0  0.6525019E+002  0.1100558E+03  0.7546771E-02  0.1260467E+00
         21   -1    0    0  505  502  0.00000000000E+00  0.00000000000E+00  0.93449866763E+03  0.93449866763E+03  0.00000000000E+00 0.  1.
          2   -1    0    0  504    0 -0.00000000000E+00 -0.00000000000E+00 -0.11387961674E+04  0.11387961674E+04  0.00000000000E+00 0. -1.
         21    1    1    2  503  501  0.16747056550E+02  0.13505093848E+03  0.34429489022E+03  0.37021371033E+03  0.00000000000E+00 0. -1.
         21    1    1    2  504  502 -0.10648542210E+02 -0.10330661534E+03 -0.33637808543E+03  0.35204525928E+03  0.00000000000E+00 0. -1.
         21    1    1    2  505  503  0.28507713729E+02 -0.34867852406E+02  0.56813297407E+03  0.56991537363E+03  0.00000000000E+00 0.  1.
          2    1    1    2  501    0 -0.34606228068E+02  0.31235292612E+01 -0.78034727860E+03  0.78112049178E+03  0.00000000000E+00 0. -1.
<scales pt_clust_3="110.05584" pt_clust_4="14000.00000" pt_clust_5="44.97790" pt_clust_6="34.74691"></scales>
<clustering>
<clus scale="   34.747">  2  6  1 -1</clus>
<clus scale="   44.978">  1  5  2 -1</clus>
<clus scale="  110.056">  1  3  2 -1</clus>
<clus scale="   44.978">  1  3  2 -1</clus>
</clustering>
</event>
<event>
 6    0  0.6525019E+002  0.9442288E+02  0.7546771E-02  0.1292481E+00
          2   -1    0    0  503    0 -0.00000000000E+00  0.00000000000E+00  0.28246362323E+04  0.28246362323E+04  0.00000000000E+00 0. -1.
         21   -1    0    0  505  502  0.00000000000E+00 -0.00000000000E+00 -0.20424021982E+02  0.20424021982E+02  0.00000000000E+00 0. -1.
         21    1    1    2  503  504 -0.64856189084E+02 -0.28480606299E+02  0.61553265875E+03  0.61959496785E+03  0.00000000000E+00 0. -1.
         21    1    1    2  504  502 -0.93675850510E+02 -0.44036276247E+01  0.20713475754E+03  0.22737494296E+03  0.00000000000E+00 0. -1.
         21    1    1    2  505  501  0.94249938555E+02  0.17193116689E+02  0.29332877283E+03  0.30857806654E+03  0.00000000000E+00 0. -1.
          2    1    1    2  501    0  0.64282101040E+02  0.15691117234E+02  0.16882160212E+04  0.16895122770E+04  0.00000000000E+00 0. -1.
<scales pt_clust_3="35.94677" pt_clust_4="94.42288" pt_clust_5="14000.00000" pt_clust_6="66.16948"></scales>
<clustering>
<clus scale="   66.169">  1  6  2 -1</clus>
<clus scale="   35.947">  1  3  2 -1</clus>
<clus scale="   94.423">  2  4  1 -1</clus>
<clus scale="   94.423">  2  3  1 -1</clus>
</clustering>
</event>
<event>
 6    0  0.6525019E+002  0.9066975E+02  0.7546771E-02  0.1301238E+00
          1   -1    0    0  504    0 -0.00000000000E+00  0.00000000000E+00  0.35330601124E+04  0.35330601124E+04  0.00000000000E+00 0.  1.
         21   -1    0    0  505  502  0.00000000000E+00 -0.00000000000E+00 -0.65184697238E+02  0.65184697238E+02  0.00000000000E+00 0. -1.
         21    1    1    2  503  502 -0.10150927445E+02 -0.38306634964E+02 -0.40178063431E+02  0.56433291516E+02  0.00000000000E+00 0. -1.
         21    1    1    2  504  503 -0.16818388424E+02 -0.41441130857E+02  0.65379777137E+02  0.79213261354E+02  0.00000000000E+00 0. -1.
         21    1    1    2  505  501  0.11523350604E+03  0.64090284573E+02  0.45862824806E+03  0.47720665902E+03  0.00000000000E+00 0. -1.
          1    1    1    2  501    0 -0.88264190172E+02  0.15657481248E+02  0.29840454534E+04  0.29853915978E+04  0.00000000000E+00 0.  1.
<scales pt_clust_3="39.62877" pt_clust_4="60.86784" pt_clust_5="90.66975" pt_clust_6="14000.00000"></scales>
<clustering>
<clus scale="   39.629">  2  3  1 -1</clus>
<clus scale="   60.868">  2  4  1 -1</clus>
<clus scale="   90.670">  2  5  1 -1</clus>
<clus scale="   39.629">  2  3  1 -1</clus>
</clustering>
</event>
<event>
 6    0  0.6525019E+002  0.1533370E+03  0.7546771E-02  0.1196431E+00
         -1   -1    0    0    0  501 -0.00000000000E+00  0.00000000000E+00  0.18198973515E+03  0.18198973515E+03  0.00000000000E+00 0.  1.
         21   -1    0    0  504  502  0.00000000000E+00 -0.00000000000E+00 -0.50534947672E+03  0.50534947672E+03  0.00000000000E+00 0. -1.
         21    1    1    2  503  502 -0.14572562745E+02  0.12876677018E+03 -0.18579772855E+03  0.22652601754E+03  0.00000000000E+00 0.  1.
         21    1    1    2  504  505  0.62399785555E+02 -0.20064043607E+03 -0.18898969373E+03  0.28260824857E+03  0.00000000000E+00 0. -1.
         21    1    1    2  505  501  0.40791320894E+02  0.22229843156E+02 -0.23425558339E+02  0.52027440553E+02  0.00000000000E+00 0.  1.
         -1    1    1    2    0  503 -0.88618543704E+02  0.49643822734E+02  0.74853239055E+02  0.12617750521E+03  0.00000000000E+00 0.  1.
<scales pt_clust_3="14000.00000" pt_clust_4="153.33697" pt_clust_5="46.45533" pt_clust_6="89.90295"></scales>
<clustering>
<clus scale="   46.455">  1  5  2 -1</clus>
<clus scale="   89.903">  1  6  2 -1</clus>
<clus scale="  153.337">  1  4  2 -1</clus>
<clus scale="  153.337">  2  3  1 -1</clus>
</clustering>
</event>
<event>
 6    0  0.6525019E+002  0.7290525E+02  0.7546771E-02  0.1350483E+00
         21   -1    0    0  503  502  0.00000000000E+00  0.00000000000E+00  0.63502521169E+02  0.63502521169E+02  0.00000000000E+00 0.  1.
          2   -1    0    0  505    0 -0.00000000000E+00 -0.00000000000E+00 -0.39778774479E+04  0.39778774479E+04  0.00000000000E+00 0. -1.
         21    1    1    2  503  504  0.42078489194E+02 -0.17327791740E+02  0.23133989583E+02  0.51049320206E+02  0.00000000000E+00 0.  1.
         21    1    1    2  504  501 -0.60819346877E+01  0.12215552499E+03 -0.64913081504E+03  0.66055263019E+03  0.00000000000E+00 0. -1.
         21    1    1    2  505  502 -0.24632652469E+02 -0.35903003388E+02 -0.29855918630E+01  0.43642948786E+02  0.00000000000E+00 0.  1.
          2    1    1    2  501    0 -0.11363902037E+02 -0.68924729866E+02 -0.32853925094E+04  0.32861350699E+04  0.00000000000E+00 0. -1.
<scales pt_clust_3="52.51769" pt_clust_4="72.90525" pt_clust_5="43.54071" pt_clust_6="14000.00000"></scales>
<clustering>
<clus scale="   43.541">  1  5  2 -1</clus>
<clus scale="   52.518">  1  3  2 -1</clus>
<clus scale="   72.905">  1  4  2 -1</clus>
<clus scale="   43.541">  1  3  2 -1</clus>
</clustering>
</event>
<event>
 6    0  0.6525019E+002  0.8111157E+02  0.7546771E-02  0.1325926E+00
          2   -1    0    0  505    0 -0.00000000000E+00  0.00000000000E+00  0.47541783868E+03  0.47541783868E+03  0.00000000000E+00 0.  1.
         21   -1    0    0  503  502  0.00000000000E+00 -0.00000000000E+00 -0.47621294406E+03  0.47621294406E+03  0.00000000000E+00 0. -1.
         21    1    1    2  503  501 -0.12053000440E+02 -0.38350091251E+02 -0.63019417424E+02  0.74749256123E+02  0.00000000000E+00 0. -1.
         21    1    1    2  504  502  0.26315978587E+02 -0.48024573115E+02 -0.26679723176E+03  0.27235941920E+03  0.00000000000E+00 0. -1.
         21    1    1    2  505  504 -0.86786808415E+02  0.76845945411E+02 -0.10978787834E+03  0.15965784563E+03  0.00000000000E+00 0.  1.
          2    1    1    2  501    0  0.72523830267E+02  0.95287189543E+01  0.43880942215E+03  0.44486426178E+03  0.00000000000E+00 0.  1.
<scales pt_clust_3="40.19956" pt_clust_4="81.11157" pt_clust_5="14000.00000" pt_clust_6="73.02168"></scales>
<clustering>
<clus scale="   40.200">  2  3  1 -1</clus>
<clus scale="   73.022">  1  6  2 -1</clus>
<clus scale="   81.112">  2  4  1 -1</clus>
<clus scale="   40.200">  2  3  1 -1</clus>
</clustering>
</event>
<event>
 6    0  0.6655885E+002  0.1196704E+03  0.7546771E-02  0.1243642E+00
         21   -1    0    0  504  502  0.00000000000E+00  0.00000000000E+00  0.12628868092E+04  0.12628868092E+04  0.00000000000E+00 0.  1.
          2   -1    0    0  505    0 -0.00000000000E+00 -0.00000000000E+00 -0.22608996049E+04  0.22608996049E+04  0.00000000000E+00 0. -1.
         21    1    1    2  503  502 -0.52362346653E+02  0.18542972532E+03  0.88988738031E+03  0.91050840084E+03  0.00000000000E+00 0.  1.
         21    1    1    2  504  501  0.22021748659E+02 -0.64290686624E+02  0.30685969426E+03  0.31429464164E+03  0.00000000000E+00 0.  1.
         21    1    1    2  505  503  0.10391238502E+02 -0.80610500477E+02  0.20049108696E+02  0.83713782523E+02  0.00000000000E+00 0. -1.
          2    1    1    2  501    0  0.19949359492E+02 -0.40528538216E+02 -0.22148089790E+04  0.22152695891E+04  0.00000000000E+00 0. -1.
<scales pt_clust_3="14000.00000" pt_clust_4="71.59124" pt_clust_5="119.67043" pt_clust_6="45.17233"></scales>
<clustering>
<clus scale="   45.172">  2  6  1 -1</clus>
<clus scale="   71.591">  1  4  2 -1</clus>
<clus scale="  119.670">  2  5  1 -1</clus>
<clus scale="   71.591">  1  3  2 -1</clus>
</clustering>
</event>
<event>
 6    0  0.6525019E+002  0.1058108E+03  0.7546771E-02  0.1268530E+00
         -1   -1    0    0    0  501 -0.00000000000E+00  0.00000000000E+00  0.11020519054E+04  0.11020519054E+04  0.00000000000E+00 0.  1.
         21   -1    0    0  504  502  0.00000000000E+00 -0.00000000000E+00 -0.13606278339E+03  0.13606278339E+03  0.00000000000E+00 0. -1.
         21    1    1    2  503  502 -0.19460804669E+02 -0.27329378821E+02 -0.10666506110E+03  0.11181705203E+03  0.00000000000E+00 0. -1.
         21    1    1    2  504  501 -0.85927045322E+02  0.29471217845E+02  0.10982845108E+03  0.14252823743E+03  0.00000000000E+00 0. -1.
         21    1    1    2  505  503  0.13348122583E+03  0.22787799303E+02  0.45931930799E+03  0.47886401843E+03  0.00000000000E+00 0.  1.
         -1    1    1    2    0  505 -0.28093375840E+02 -0.24929638326E+02  0.50350642400E+03  0.50490538088E+03  0.00000000000E+00 0.  1.
<scales pt_clust_3="33.55023" pt_clust_4="105.81082" pt_clust_5="14000.00000" pt_clust_6="38.41278"></scales>
<clustering>
<clus scale="   33.550">  2  3  1 -1</clus>
<clus scale="   38.413">  1  6  2 -1</clus>
<clus scale="  105.811">  2  4  1 -1</clus>
<clus scale="   33.550">  2  3  1 -1</clus>
</clustering>
</event>
<event>
 6    0  0.6525019E+002  0.1214164E+03  0.7546771E-02  0.1240779E+00
          1   -1    0    0  504    0 -0.00000000000E+00  0.00000000000E+00  0.36238910163E+04  0.36238910163E+04  0.00000000000E+00 0. -1.
         21   -1    0    0  503  502  0.00000000000E+00 -0.00000000000E+00 -0.40593624378E+03  0.40593624378E+03  0.00000000000E+00 0.  1.
         21    1    1    2  503  501  0.22460498257E+02 -0.29400822672E+02 -0.29671215601E+03  0.29901000966E+03  0.00000000000E+00 0.  1.
         21    1    1    2  504  505  0.22522610148E+02  0.16746847044E+03  0.35811471776E+03  0.39597867068E+03  0.00000000000E+00 0. -1.
         21    1    1    2  505  502 -0.62377620887E+01 -0.92102650320E+02 -0.64888109754E+02  0.11283738148E+03  0.00000000000E+00 0.  1.
          1    1    1    2  501    0 -0.38745346316E+02 -0.45964997446E+02  0.32214403205E+04  0.32220011983E+04  0.00000000000E+00 0. -1.
<scales pt_clust_3="36.99841" pt_clust_4="121.41636" pt_clust_5="14000.00000" pt_clust_6="60.13725"></scales>
<clustering>
<clus scale="   36.998">  2  3  1 -1</clus>
<clus scale="   60.137">  1  6  2 -1</clus>
<clus scale="  121.416">  1  4  2 -1</clus>
<clus scale="   36.998">  2  3  1 -1</clus>
</clustering>
</event>
<event>
 6    0  0.6525019E+002  0.1537857E+03  0.7546771E-02  0.1195897E+00
          2   -1    0    0  503    0 -0.00000000000E+00  0.00000000000E+00  0.18840646369E+03  0.18840646369E+03  0.00000000000E+00 0.  1.
         21   -1    0    0  504  502  0.00000000000E+00 -0.00000000000E+00 -0.38469368817E+03  0.38469368817E+03  0.00000000000E+00 0. -1.
         21    1    1    2  503  502 -0.13893203086E+02  0.50677164980E+02 -0.41418661171E+02  0.66908158213E+02  0.00000000000E+00 0. -1.
         21    1    1    2  504  505  0.22391346622E+02 -0.36779176059E+02 -0.48754673967E+02  0.65046894075E+02  0.00000000000E+00 0. -1.
         21    1    1    2  505  501  0.14408924160E+03  0.15801032251E+02 -0.20927888824E+03  0.25457618747E+03  0.00000000000E+00 0. -1.
          2    1    1    2  501    0 -0.15258738514E+03 -0.29699021171E+02  0.10316499890E+03  0.18656891210E+03  0.00000000000E+00 0.  1.
<scales pt_clust_3="45.74992" pt_clust_4="43.05903" pt_clust_5="14000.00000" pt_clust_6="153.78573"></scales>
<clustering>
<clus scale="   43.059">  2  4  1 -1</clus>
<clus scale="   45.750">  2  3  1 -1</clus>
<clus scale="  153.786">  1  6  2 -1</clus>
<clus scale="   43.059">  2  3  1 -1</clus>
</clustering>
</event>
<event>
 6    0  0.6525019E+002  0.1412494E+03  0.7546771E-02  0.1211658E+00
         21   -1    0    0  504  502  0.00000000000E+00  0.00000000000E+00  0.96275574968E+02  0.96275574968E+02  0.00000000000E+00 0. -1.
          2   -1    0    0  503    0 -0.00000000000E+00 -0.00000000000E+00 -0.15439452019E+04  0.15439452019E+04  0.00000000000E+00 0. -1.
         21    1    1    2  503  505 -0.10204693445E+03 -0.35903012345E+01 -0.36356030066E+03  0.37762754045E+03  0.00000000000E+00 0. -1.
         21    1    1    2  504  501  0.11115489924E+03 -0.13543395923E+03 -0.23957772633E+03  0.29680844983E+03  0.00000000000E+00 0. -1.
         21    1    1    2  505  502  0.37167297596E+01  0.40273645743E+02  0.50799175346E+02  0.64933326092E+02  0.00000000000E+00 0. -1.
          2    1    1    2  501    0 -0.12824694550E+02  0.98750614718E+02 -0.89533077530E+03  0.90085146050E+03  0.00000000000E+00 0. -1.
<scales pt_clust_3="101.43695" pt_clust_4="14000.00000" pt_clust_5="40.44478" pt_clust_6="141.24944"></scales>
<clustering>
<clus scale="   40.445">  1  5  2 -1</clus>
<clus scale="  101.437">  2  3  1 -1</clus>
<clus scale="  141.249">  2  6  1 -1</clus>
<clus scale="   40.445">  1  3  2 -1</clus>
</clustering>
</event>
<event>
 6    0  0.6525019E+002  0.1511578E+03  0.7546771E-02  0.1199057E+00
          2   -1    0    0  505    0 -0.00000000000E+00  0.00000000000E+00  0.10101322865E+04  0.10101322865E+04  0.00000000000E+00 0.  1.
         21   -1    0    0  503  502  0.00000000000E+00 -0.00000000000E+00 -0.68844795463E+02  0.68844795463E+02  0.00000000000E+00 0.  1.
         21    1    1    2  503  504  0.33142822134E+02 -0.21295117329E+01  0.25910350087E+01  0.33312084018E+02  0.00000000000E+00 0. -1.
         21    1    1    2  504  501 -0.45136178250E+02  0.11779250378E+03  0.36460430461E+03  0.38580908164E+03  0.00000000000E+00 0.  1.
         21    1    1    2  505  502  0.33288008339E+02 -0.15181127041E+03  0.10199246540E+03  0.18589571357E+03  0.00000000000E+00 0.  1.
          2    1    1    2  501    0 -0.21294652223E+02  0.36148278365E+02  0.47209968597E+03  0.47396020269E+03  0.00000000000E+00 0.  1.
<scales pt_clust_3="33.21116" pt_clust_4="14000.00000" pt_clust_5="151.15780" pt_clust_6="41.63250"></scales>
<clustering>
<clus scale="   33.211">  2  3  1 -1</clus>
<clus scale="   41.633">  1  6  2 -1</clus>
<clus scale="  151.158">  2  5  1 -1</clus>
<clus scale="   33.211">  2  3  1 -1</clus>
</clustering>
</event>
<event>
 6    0  0.6525019E+002  0.3986452E+03  0.7546771E-02  0.1044250E+00
          1   -1    0    0  503    0 -0.00000000000E+00  0.00000000000E+00  0.13733558216E+04  0.13733558216E+04  0.00000000000E+00 0. -1.
         21   -1    0    0  505  502  0.00000000000E+00 -0.00000000000E+00 -0.72648863100E+03  0.72648863100E+03  0.00000000000E+00 0. -1.
         21    1    1    2  503  504  0.33975582618E+03 -0.12406554931E+03 -0.41246897899E+03  0.54859542523E+03  0.00000000000E+00 0. -1.
         21    1    1    2  504  502  0.31651749841E+02 -0.88186518486E+01 -0.75888695857E+00  0.32866058447E+02  0.00000000000E+00 0.  1.
         21    1    1    2  505  501 -0.35524049217E+03  0.88088660278E+02 -0.82182984316E+02  0.37511259944E+03  0.00000000000E+00 0. -1.
          1    1    1    2  501    0 -0.16167083848E+02  0.44795540884E+02  0.11422780408E+04  0.11432703694E+04  0.00000000000E+00 0. -1.
<scales pt_clust_3="32.65475" pt_clust_4="32.65475" pt_clust_5="383.63992" pt_clust_6="47.62368"></scales>
<clustering>
<clus scale="   32.655">  3  4 -1 -1</clus>
<clus scale="   47.624">  1  6  2 -1</clus>
<clus scale="  383.640">  1  5  2 -1</clus>
<clus scale="  398.645">  2  3  1 -1</clus>
</clustering>
</event>
<event>
 6    0  0.6525019E+002  0.1169215E+03  0.7546771E-02  0.1248264E+00
         -1   -1    0    0    0  501 -0.00000000000E+00  0.00000000000E+00  0.15471952418E+04  0.15471952418E+04  0.00000000000E+00 0. -1.
         21   -1    0    0  505  502  0.00000000000E+00 -0.00000000000E+00 -0.10394250813E+03  0.10394250813E+03  0.00000000000E+00 0. -1.
         21    1    1    2  503  502  0.96560500171E+02 -0.12094011020E+02 -0.21773787920E+01  0.97339284332E+02  0.00000000000E+00 0. -1.
         21    1    1    2  504  503 -0.14369235486E+03 -0.43404159063E+02  0.24748262800E+03  0.28944613494E+03  0.00000000000E+00 0. -1.
         21    1    1    2  505  501  0.12992931521E+02  0.51198404923E+02 -0.11793670523E+02  0.54121932713E+02  0.00000000000E+00 0. -1.
         -1    1    1    2    0  504  0.34138923167E+02  0.42997651603E+01  0.12097411549E+04  0.12102303979E+04  0.00000000000E+00 0. -1.
<scales pt_clust_3="14000.00000" pt_clust_4="116.92153" pt_clust_5="53.64763" pt_clust_6="34.40863"></scales>
<clustering>
<clus scale="   34.409">  1  6  2 -1</clus>
<clus scale="   53.648">  2  5  1 -1</clus>
<clus scale="  116.922">  1  4  2 -1</clus>
<clus scale="   53.648">  2  3  1 -1</clus>
</clustering>
</event>
<event>
 6    0  0.6525019E+002  0.1331017E+03  0.7546771E-02  0.1222925E+00
         -1   -1    0    0    0  501 -0.00000000000E+00  0.00000000000E+00  0.57806014972E+03  0.57806014972E+03  0.00000000000E+00 0. -1.
         21   -1    0    0  505  502  0.00000000000E+00 -0.00000000000E+00 -0.68764294852E+03  0.68764294852E+03  0.00000000000E+00 0. -1.
         21    1    1    2  503  502  0.14800252907E+03  0.53442046554E+02 -0.30696696208E+03  0.34494857119E+03  0.00000000000E+00 0. -1.
         21    1    1    2  504  501 -0.15819480984E+03 -0.50587789776E+02 -0.96212278229E+02  0.19194146196E+03  0.00000000000E+00 0. -1.
         21    1    1    2  505  504 -0.43663906417E+02 -0.47085744737E+02 -0.21042041944E+03  0.22000081136E+03  0.00000000000E+00 0. -1.
         -1    1    1    2    0  503  0.53856187186E+02  0.44231487959E+02  0.50401686095E+03  0.50881225374E+03  0.00000000000E+00 0. -1.
<scales pt_clust_3="133.10173" pt_clust_4="14000.00000" pt_clust_5="64.21529" pt_clust_6="69.36865"></scales>
<clustering>
<clus scale="   64.215">  2  5  1 -1</clus>
<clus scale="   69.369">  1  6  2 -1</clus>
<clus scale="  133.102">  2  3  1 -1</clus>
<clus scale="   64.215">  2  3  1 -1</clus>
</clustering>
</event>
<event>
 6    0  0.6525019E+002  0.2406599E+03  0.7546771E-02  0.1119354E+00
          1   -1    0    0  504    0 -0.00000000000E+00  0.00000000000E+00  0.62873047600E+03  0.62873047600E+03  0.00000000000E+00 0.  1.
         21   -1    0    0  505  502  0.00000000000E+00 -0.00000000000E+00 -0.57295018644E+03  0.57295018644E+03  0.00000000000E+00 0.  1.
         21    1    1    2  503  501 -0.16080670733E+03  0.50632944291E+02 -0.24928575449E+03  0.30094165475E+03  0.00000000000E+00 0.  1.
         21    1    1    2  504  502  0.27383706679E+03  0.17456097346E+02 -0.37952232113E+02  0.27700510177E+03  0.00000000000E+00 0.  1.
         21    1    1    2  505  503 -0.58382850329E+02 -0.13625341971E+02 -0.13068940655E+03  0.14378431118E+03  0.00000000000E+00 0.  1.
          1    1    1    2  501    0 -0.54647509129E+02 -0.54463699665E+02  0.47370768271E+03  0.47994959475E+03  0.00000000000E+00 0.  1.
<scales pt_clust_3="37.65110" pt_clust_4="232.22997" pt_clust_5="37.65110" pt_clust_6="77.15339"></scales>
<clustering>
<clus scale="   37.651">  3  5 -1 -1</clus>
<clus scale="   77.153">  1  6  2 -1</clus>
<clus scale="  232.230">  1  4  2 -1</clus>
<clus scale="  240.660">  2  3  1 -1</clus>
</clustering>
</event>
<event>
 6    0  0.6525019E+002  0.9243396E+02  0.7546771E-02  0.1297062E+00
         21   -1    0    0  504  502  0.00000000000E+00  0.00000000000E+00  0.53508364670E+03  0.53508364670E+03  0.00000000000E+00 0. -1.
          2   -1    0    0  505    0 -0.00000000000E+00 -0.00000000000E+00 -0.20050917335E+04  0.20050917335E+04  0.00000000000E+00 0.  1.
         21    1    1    2  503  502 -0.16677653182E+02  0.34716600639E+02  0.48742509045E+03  0.48894437851E+03  0.00000000000E+00 0. -1.
         21    1    1    2  504  501 -0.68989695886E+02 -0.19352287908E+02 -0.43008691298E+01  0.71781520331E+02  0.00000000000E+00 0.  1.
         21    1    1    2  505  503  0.68183642933E+02  0.78147593791E+02 -0.21491154089E+03  0.23862737895E+03  0.00000000000E+00 0.  1.
          2    1    1    2  501    0  0.17483706136E+02 -0.93511906523E+02 -0.17382207672E+04  0.17408221024E+04  0.00000000000E+00 0.  1.
<scales pt_clust_3="38.51476" pt_clust_4="81.18306" pt_clust_5="92.43396" pt_clust_6="14000.00000"></scales>
<clustering>
<clus scale="   38.515">  1  3  2 -1</clus>
<clus scale="   81.183">  1  4  2 -1</clus>
<clus scale="   92.434">  1  5  2 -1</clus>
<clus scale="   38.515">  1  3  2 -1</clus>
</clustering>
</event>
<event>
 6    0  0.6525019E+002  0.1538804E+03  0.7546771E-02  0.1195784E+00
          2   -1    0    0  504    0 -0.00000000000E+00  0.00000000000E+00  0.20696605532E+04  0.20696605532E+04  0.00000000000E+00 0.  1.
         21   -1    0    0  501  502  0.00000000000E+00 -0.00000000000E+00 -0.14196338856E+03  0.14196338856E+03  0.00000000000E+00 0.  1.
         21    1    1    2  503  502  0.12762037283E+03  0.10578402661E+03 -0.61076074893E+02  0.17665646541E+03  0.00000000000E+00 0.  1.
         21    1    1    2  504  505 -0.12658763378E+03  0.51504569143E+01  0.30200130633E+03  0.32749922940E+03  0.00000000000E+00 0.  1.
         21    1    1    2  505  503 -0.65700668504E+02 -0.75624896921E+02  0.25753025773E+03  0.27632867481E+03  0.00000000000E+00 0. -1.
          2    1    1    2  501    0  0.64667929450E+02 -0.35309586602E+02  0.14292416754E+04  0.14311395721E+04  0.00000000000E+00 0.  1.
<scales pt_clust_3="153.88043" pt_clust_4="95.54362" pt_clust_5="14000.00000" pt_clust_6="73.67977"></scales>
<clustering>
<clus scale="   73.680">  1  6  2 -1</clus>
<clus scale="   95.544">  1  4  2 -1</clus>
<clus scale="  153.880">  2  3  1 -1</clus>
<clus scale="  153.880">  2  3  1 -1</clus>
</clustering>
</event>
<event>
 6    0  0.6525019E+002  0.1348153E+03  0.7546771E-02  0.1220481E+00
         21   -1    0    0  504  502  0.00000000000E+00  0.00000000000E+00  0.79184569799E+03  0.79184569799E+03  0.00000000000E+00 0. -1.
          2   -1    0    0  505    0 -0.00000000000E+00 -0.00000000000E+00 -0.14930532411E+04  0.14930532411E+04  0.00000000000E+00 0. -1.
         21    1    1    2  503  502  0.25239993907E+02 -0.37789979641E+02 -0.35382988406E+01  0.45581349392E+02  0.00000000000E+00 0. -1.
         21    1    1    2  504  501  0.65626559397E+02 -0.62002859743E+02  0.75726587514E+03  0.76262887801E+03  0.00000000000E+00 0. -1.
         21    1    1    2  505  503 -0.40578055274E+02  0.16395704549E+03 -0.88777985242E+03  0.90370435304E+03  0.00000000000E+00 0.  1.
          2    1    1    2  501    0 -0.50288498030E+02 -0.64164206107E+02 -0.56715526697E+03  0.57298435863E+03  0.00000000000E+00 0. -1.
<scales pt_clust_3="45.44381" pt_clust_4="14000.00000" pt_clust_5="134.81526" pt_clust_6="81.57663"></scales>
<clustering>
<clus scale="   45.444">  1  3  2 -1</clus>
<clus scale="   81.577">  2  6  1 -1</clus>
<clus scale="  134.815">  2  5  1 -1</clus>
<clus scale="   45.444">  1  3  2 -1</clus>
</clustering>
</event>
<event>
 6    0  0.6525019E+002  0.9612370E+02  0.7546771E-02  0.1288665E+00
          1   -1    0    0  503    0 -0.00000000000E+00  0.00000000000E+00  0.31832388743E+04  0.31832388743E+04  0.00000000000E+00 0. -1.
         21   -1    0    0  504  502  0.00000000000E+00 -0.00000000000E+00 -0.10340782796E+03  0.10340782796E+03  0.00000000000E+00 0.  1.
         21    1    1    2  503  502 -0.23441365934E+02 -0.83380869052E+02  0.15333697514E+03  0.17610819091E+03  0.00000000000E+00 0.  1.
         21    1    1    2  504  505 -0.10510634707E+02  0.30618363889E+02 -0.61463790432E+02  0.69467655664E+02  0.00000000000E+00 0.  1.
         21    1    1    2  505  501  0.42830612757E+02 -0.43992479021E+02  0.10816177102E+02  0.62344119904E+02  0.00000000000E+00 0.  1.
          1    1    1    2  501    0 -0.88786121157E+01  0.96754984184E+02  0.29771416845E+04  0.29787267358E+04  0.00000000000E+00 0. -1.
<scales pt_clust_3="14000.00000" pt_clust_4="32.37217" pt_clust_5="42.57161" pt_clust_6="96.12370"></scales>
<clustering>
<clus scale="   32.372">  2  4  1 -1</clus>
<clus scale="   42.572">  2  5  1 -1</clus>
<clus scale="   96.124">  1  6  2 -1</clus>
<clus scale="   32.372">  2  3  1 -1</clus>
</clustering>
</event>
<event>
 6    0  0.6525019E+002  0.1379230E+03  0.7546771E-02  0.1216151E+00
         21   -1    0    0  503  502  0.00000000000E+00  0.00000000000E+00  0.11979913524E+04  0.11979913524E+04  0.00000000000E+00 0.  1.
          3   -1    0    0  504    0 -0.00000000000E+00 -0.00000000000E+00 -0.94155993419E+03  0.94155993419E+03  0.00000000000E+00 0.  1.
         21    1    1    2  503  501 -0.81804213281E+02 -0.68389078092E+02 -0.66351924107E+01  0.10683174196E+03  0.00000000000E+00 0.  1.
         21    1    1    2  504  505  0.79601598473E+02  0.15229805393E+03  0.92591313916E+02  0.19520313298E+03  0.00000000000E+00 0.  1.
         21    1    1    2  505  502 -0.33932313309E+02  0.15226147947E+02  0.10003095846E+04  0.10010007505E+04  0.00000000000E+00 0.  1.
          3    1    1    2  501    0  0.36134928117E+02 -0.99135123790E+02 -0.82983428794E+03  0.83651566109E+03  0.00000000000E+00 0.  1.
<scales pt_clust_3="14000.00000" pt_clust_4="137.92303" pt_clust_5="37.19190" pt_clust_6="105.07750"></scales>
<clustering>
<clus scale="   37.192">  1  5  2 -1</clus>
<clus scale="  105.078">  2  6  1 -1</clus>
<clus scale="  137.923">  1  4  2 -1</clus>
<clus scale="   37.192">  1  3  2 -1</clus>
</clustering>
</event>
<event>
 6    0  0.6525019E+002  0.1861746E+03  0.7546771E-02  0.1161958E+00
          1   -1    0    0  504    0 -0.00000000000E+00  0.00000000000E+00  0.14234378237E+04  0.14234378237E+04  0.00000000000E+00 0.  1.
         21   -1    0    0  505  502  0.00000000000E+00 -0.00000000000E+00 -0.66358156587E+02  0.66358156587E+02  0.00000000000E+00 0. -1.
         21    1    1    2  503  502 -0.49556067834E+02 -0.25368076706E+02  0.13257925686E+02  0.57228627176E+02  0.00000000000E+00 0. -1.
         21    1    1    2  504  503 -0.11460992059E+03 -0.64947880867E+02  0.11598648570E+03  0.17551787941E+03  0.00000000000E+00 0. -1.
         21    1    1    2  505  501  0.10265276814E+03  0.13167884370E+03  0.53977834075E+03  0.56501112009E+03  0.00000000000E+00 0.  1.
          1    1    1    2  501    0  0.61513220290E+02 -0.41362886129E+02  0.68805691495E+03  0.69203835359E+03  0.00000000000E+00 0.  1.
<scales pt_clust_3="31.57680" pt_clust_4="31.57680" pt_clust_5="179.72646" pt_clust_6="74.12668"></scales>
<clustering>
<clus scale="   31.577">  3  4 -1 -1</clus>
<clus scale="   74.127">  1  6  2 -1</clus>
<clus scale="  179.726">  1  5  2 -1</clus>
<clus scale="  186.175">  2  3  1 -1</clus>
</clustering>
</event>
<event>
 6    0  0.6525019E+002  0.1094002E+03  0.7546771E-02  0.1261685E+00
          1   -1    0    0  503    0 -0.00000000000E+00  0.00000000000E+00  0.15759607180E+04  0.15759607180E+04  0.00000000000E+00 0.  1.
         21   -1    0    0  504  502  0.00000000000E+00 -0.00000000000E+00 -0.19925819668E+02  0.19925819668E+02  0.00000000000E+00 0.  1.
         21    1    1    2  503  502 -0.57866110138E+02  0.17930531387E+02  0.20198045241E+03  0.21086985041E+03  0.00000000000E+00 0.  1.
         21    1    1    2  504  505 -0.58890697633E+02 -0.88810167022E+02  0.26246831900E+03  0.28327544637E+03  0.00000000000E+00 0.  1.
         21    1    1    2  505  501  0.88142278844E+02  0.54439003181E+02  0.58660188304E+03  0.59567980960E+03  0.00000000000E+00 0.  1.
          1    1    1    2  501    0  0.28614528928E+02  0.16440632455E+02  0.50498424394E+03  0.50606143133E+03  0.00000000000E+00 0.  1.
<scales pt_clust_3="56.44083" pt_clust_4="109.40025" pt_clust_5="14000.00000" pt_clust_6="33.00130"></scales>
<clustering>
<clus scale="   33.001">  1  6  2 -1</clus>
<clus scale="   56.441">  2  3  1 -1</clus>
<clus scale="  109.400">  2  4  1 -1</clus>
<clus scale="   56.441">  2  3  1 -1</clus>
</clustering>
</event>
<event>
 6    0  0.6525019E+002  0.2011108E+03  0.7546771E-02  0.1148805E+00
         21   -1    0    0  505  502  0.00000000000E+00  0.00000000000E+00  0.24585988177E+03  0.24585988177E+03  0.00000000000E+00 0.  1.
          1   -1    0    0  504    0 -0.00000000000E+00 -0.00000000000E+00 -0.51825811169E+03  0.51825811169E+03  0.00000000000E+00 0.  1.
         21    1    1    2  503  501  0.13594482736E+03 -0.11924675968E+03 -0.12677275870E+03  0.22084410368E+03  0.00000000000E+00 0.  1.
         21    1    1    2  504  502 -0.16993999361E+03  0.14249766936E+03  0.10896011684E+03  0.24709814703E+03  0.00000000000E+00 0.  1.
         21    1    1    2  505  503  0.31343957044E+02  0.75641594089E+01  0.68113851001E+01  0.32955350366E+02  0.00000000000E+00 0.  1.
          1    1    1    2  501    0  0.26512092052E+01 -0.30815069085E+02 -0.26139697316E+03  0.26322039239E+03  0.00000000000E+00 0.  1.
<scales pt_clust_3="14000.00000" pt_clust_4="201.11080" pt_clust_5="32.04426" pt_clust_6="30.92891"></scales>
<clustering>
<clus scale="   30.929">  2  6  1 -1</clus>
<clus scale="   32.044">  1  5  2 -1</clus>
<clus scale="  201.111">  1  4  2 -1</clus>
<clus scale="   32.044">  1  3  2 -1</clus>
</clustering>
</event>
<event>
 6    0  0.6525019E+002  0.8881893E+02  0.7546771E-02  0.1305737E+00
         21   -1    0    0  504  502  0.00000000000E+00  0.00000000000E+00  0.56846156259E+03  0.56846156259E+03  0.00000000000E+00 0. -1.
          2   -1    0    0  503    0 -0.00000000000E+00 -0.00000000000E+00 -0.25474871128E+04  0.25474871128E+04  0.00000000000E+00 0.  1.
         21    1    1    2  503  502 -0.21584709779E+02  0.43375209589E+02 -0.24700639555E+03  0.25171306670E+03  0.00000000000E+00 0.  1.
         21    1    1    2  504  505 -0.35166158137E+02  0.21023498343E+02  0.31400181768E+03  0.31666352437E+03  0.00000000000E+00 0. -1.
         21    1    1    2  505  501  0.12138009075E+03 -0.41115244067E+02  0.23385155942E+03  0.26666484876E+03  0.00000000000E+00 0. -1.
          2    1    1    2  501    0 -0.64629222832E+02 -0.23283463865E+02 -0.22798725318E+04  0.22809072356E+04  0.00000000000E+00 0.  1.
<scales pt_clust_3="48.77011" pt_clust_4="40.97128" pt_clust_5="88.81893" pt_clust_6="14000.00000"></scales>
<clustering>
<clus scale="   40.971">  1  4  2 -1</clus>
<clus scale="   48.770">  2  3  1 -1</clus>
<clus scale="   88.819">  1  5  2 -1</clus>
<clus scale="   40.971">  1  3  2 -1</clus>
</clustering>
</event>
<event>
 6    0  0.6525019E+002  0.7943911E+02  0.7546771E-02  0.1330651E+00
         21   -1    0    0  503  502  0.00000000000E+00  0.00000000000E+00  0.32242249227E+02  0.32242249227E+02  0.00000000000E+00 0. -1.
          2   -1    0    0  504    0 -0.00000000000E+00 -0.00000000000E+00 -0.19075490435E+04  0.19075490435E+04  0.00000000000E+00 0. -1.
         21    1    1    2  503  501 -0.45507450844E+02  0.18202917445E+02 -0.42995596147E+03  0.43274057250E+03  0.00000000000E+00 0. -1.
         21    1    1    2  504  505  0.77026423077E+02 -0.39337394083E+02 -0.16180597271E+03  0.18347117820E+03  0.00000000000E+00 0. -1.
         21    1    1    2  505  502 -0.47608285991E+02  0.62876278293E+02 -0.59692633951E+02  0.98909988449E+02  0.00000000000E+00 0. -1.
          2    1    1    2  501    0  0.16089313758E+02 -0.41741801655E+02 -0.12238522262E+04  0.12246695536E+04  0.00000000000E+00 0. -1.
<scales pt_clust_3="36.27741" pt_clust_4="79.43911" pt_clust_5="14000.00000" pt_clust_6="44.73527"></scales>
<clustering>
<clus scale="   44.735">  2  6  1 -1</clus>
<clus scale="   36.277">  2  3  1 -1</clus>
<clus scale="   79.439">  2  4  1 -1</clus>
<clus scale="   79.439">  1  3  2 -1</clus>
</clustering>
</event>
<event>
 6    0  0.6525019E+002  0.6688523E+02  0.7546771E-02  0.1371017E+00
          2   -1    0    0  505    0 -0.00000000000E+00  0.00000000000E+00  0.36008372073E+04  0.36008372073E+04  0.00000000000E+00 0. -1.
         21   -1    0    0  501  502  0.00000000000E+00 -0.00000000000E+00 -0.37903618541E+03  0.37903618541E+03  0.00000000000E+00 0.  1.
         21    1    1    2  503  504  0.21258645225E+02 -0.86533132076E+02  0.29596453739E+03  0.30908723742E+03  0.00000000000E+00 0.  1.
         21    1    1    2  504  502  0.11954653159E+02  0.65660503934E+02 -0.36523789359E+03  0.37128551604E+03  0.00000000000E+00 0.  1.
         21    1    1    2  505  503 -0.40856945404E+02 -0.28821653745E+02  0.15177608074E+03  0.15979973842E+03  0.00000000000E+00 0.  1.
          2    1    1    2  501    0  0.76436470206E+01  0.49694281888E+02  0.31392982974E+04  0.31397009009E+04  0.00000000000E+00 0. -1.
<scales pt_clust_3="66.88523" pt_clust_4="14000.00000" pt_clust_5="49.99978" pt_clust_6="37.74198"></scales>
<clustering>
<clus scale="   50.000">  1  5  2 -1</clus>
<clus scale="   37.742">  1  6  2 -1</clus>
<clus scale="   66.885">  1  3  2 -1</clus>
<clus scale="   66.885">  2  3  1 -1</clus>
</clustering>
</event>
<event>
 6    0  0.6525019E+002  0.2107586E+03  0.7546771E-02  0.1140967E+00
          2   -1    0    0  502    0 -0.00000000000E+00  0.00000000000E+00  0.20188381754E+04  0.20188381754E+04  0.00000000000E+00 0. -1.
         21   -1    0    0  504  502  0.00000000000E+00 -0.00000000000E+00 -0.14300137897E+03  0.14300137897E+03  0.00000000000E+00 0.  1.
         21    1    1    2  503  505  0.33048466889E+02 -0.11268821520E+03  0.35334365490E+02  0.12263503738E+03  0.00000000000E+00 0.  1.
         21    1    1    2  504  503  0.41477481209E+02 -0.15186122616E+02 -0.31157037730E+02  0.54053314123E+02  0.00000000000E+00 0.  1.
         21    1    1    2  505  501 -0.27221044976E+03  0.15324260106E+03  0.43958508770E+03  0.53927439497E+03  0.00000000000E+00 0.  1.
          2    1    1    2  501    0  0.19768450166E+03 -0.25368263247E+02  0.14320743810E+04  0.14458768079E+04  0.00000000000E+00 0. -1.
<scales pt_clust_3="129.76781" pt_clust_4="44.17012" pt_clust_5="14000.00000" pt_clust_6="210.75862"></scales>
<clustering>
<clus scale="   44.170">  2  4  1 -1</clus>
<clus scale="  129.768">  2  3  1 -1</clus>
<clus scale="  210.759">  1  6  2 -1</clus>
<clus scale="   44.170">  2  3  1 -1</clus>
</clustering>
</event>
<event>
 6    0  0.6525019E+002  0.1071459E+03  0.7546771E-02  0.1265948E+00
         21   -1    0    0  503  502  0.00000000000E+00  0.00000000000E+00  0.17669826337E+02  0.17669826337E+02  0.00000000000E+00 0.  1.
          2   -1    0    0  505    0 -0.00000000000E+00 -0.00000000000E+00 -0.21206653548E+04  0.21206653548E+04  0.00000000000E+00 0.  1.
         21    1    1    2  503  501 -0.48955395811E+02 -0.88734002096E+02 -0.57897089520E+03  0.58777346946E+03  0.00000000000E+00 0.  1.
         21    1    1    2  504  502  0.88575870628E+01  0.86514393257E+02 -0.18227359186E+03  0.20195756826E+03  0.00000000000E+00 0.  1.
         21    1    1    2  505  504  0.66939593762E+02  0.47797622788E+02 -0.75157343704E+03  0.75606094544E+03  0.00000000000E+00 0.  1.
          2    1    1    2  501    0 -0.26841785014E+02 -0.45578013950E+02 -0.59017760439E+03  0.59254319801E+03  0.00000000000E+00 0.  1.
<scales pt_clust_3="35.79087" pt_clust_4="95.00504" pt_clust_5="82.25279" pt_clust_6="35.79087"></scales>
<clustering>
<clus scale="   35.791">  3  6 -1 -1</clus>
<clus scale="   82.253">  2  5  1 -1</clus>
<clus scale="   95.005">  1  4  2 -1</clus>
<clus scale="   95.005">  1  3  2 -1</clus>
</clustering>
</event>
<event>
 6    0  0.6525019E+002  0.9802509E+02  0.7546771E-02  0.1284505E+00
          1   -1    0    0  503    0 -0.00000000000E+00  0.00000000000E+00  0.95868213277E+03  0.95868213277E+03  0.00000000000E+00 0.  1.
         21   -1    0    0  504  502  0.00000000000E+00 -0.00000000000E+00 -0.39368871985E+03  0.39368871985E+03  0.00000000000E+00 0.  1.
         21    1    1    2  503  505 -0.28355313891E+02 -0.10535692288E+03 -0.12132687210E+03  0.16316958945E+03  0.00000000000E+00 0.  1.
         21    1    1    2  504  501 -0.11189725936E+02  0.32887800981E+02 -0.99384094737E+01  0.36132940688E+02  0.00000000000E+00 0.  1.
         21    1    1    2  505  502 -0.13762001343E+02  0.82361117013E+02 -0.21994455322E+03  0.23526230630E+03  0.00000000000E+00 0.  1.
          1    1    1    2  501    0  0.53307041170E+02 -0.98919951108E+01  0.91620324772E+03  0.91780601618E+03  0.00000000000E+00 0.  1.
<scales pt_clust_3="14000.00000" pt_clust_4="34.73928" pt_clust_5="98.02509" pt_clust_6="54.18036"></scales>
<clustering>
<clus scale="   34.739">  2  4  1 -1</clus>
<clus scale="   54.180">  1  6  2 -1</clus>
<clus scale="   98.025">  2  5  1 -1</clus>
<clus scale="   34.739">  2  3  1 -1</clus>
</clustering>
</event>
<event>
 6    0  0.6525019E+002  0.1038606E+03  0.7546771E-02  0.1272381E+00
         21   -1    0    0  504  502  0.00000000000E+00  0.00000000000E+00  0.58076035958E+02  0.58076035958E+02  0.00000000000E+00 0.  1.
          2   -1    0    0  505    0 -0.00000000000E+00 -0.00000000000E+00 -0.24176265379E+04  0.24176265379E+04  0.00000000000E+00 0.  1.
         21    1    1    2  503  502 -0.41910298727E+02 -0.14856637734E+03 -0.17495617861E+03  0.23331975066E+03  0.00000000000E+00 0.  1.
         21    1    1    2  504  501 -0.85059559960E+00  0.53401209874E+02 -0.63630206220E+01  0.53785692896E+02  0.00000000000E+00 0.  1.
         21    1    1    2  505  503  0.34860886466E+02  0.16979835683E+02 -0.18733475395E+04  0.18737488092E+04  0.00000000000E+00 0.  1.
          2    1    1    2  501    0  0.79000078606E+01  0.78185331783E+02 -0.30488376323E+03  0.31484832112E+03  0.00000000000E+00 0.  1.
<scales pt_clust_3="103.86057" pt_clust_4="54.35044" pt_clust_5="38.77623" pt_clust_6="14000.00000"></scales>
<clustering>
<clus scale="   38.776">  2  5  1 -1</clus>
<clus scale="   54.350">  1  4  2 -1</clus>
<clus scale="  103.861">  1  3  2 -1</clus>
<clus scale="   54.350">  1  3  2 -1</clus>
</clustering>
</event>
<event>
 6    0  0.6525019E+002  0.1763304E+03  0.7546771E-02  0.1171402E+00
         21   -1    0    0  501  502  0.00000000000E+00  0.00000000000E+00  0.14439467860E+03  0.14439467860E+03  0.00000000000E+00 0. -1.
         -3   -1    0    0    0  501 -0.00000000000E+00 -0.00000000000E+00 -0.10509827072E+04  0.10509827072E+04  0.00000000000E+00 0.  1.
         21    1    1    2  503  502 -0.11446060620E+03 -0.10714854408E+03  0.23295863332E+02  0.15850784876E+03  0.00000000000E+00 0. -1.
         21    1    1    2  504  505  0.99230067776E+02  0.91140030097E+02 -0.91295211512E+02  0.16275112006E+03  0.00000000000E+00 0. -1.
         21    1    1    2  505  503  0.64387935827E+01 -0.35244275199E+02 -0.19663327300E+01  0.35881519777E+02  0.00000000000E+00 0.  1.
         -3    1    1    2    0  504  0.87917448418E+01  0.51252789180E+02 -0.83662234770E+03  0.83823689721E+03  0.00000000000E+00 0.  1.
<scales pt_clust_3="35.08829" pt_clust_4="160.32646" pt_clust_5="35.08829" pt_clust_6="52.00138"></scales>
<clustering>
<clus scale="   35.088">  3  5 -1 -1</clus>
<clus scale="   52.001">  2  6  1 -1</clus>
<clus scale="  160.326">  2  4  1 -1</clus>
<clus scale="  176.330">  1  3  2 -1</clus>
</clustering>
</event>
<event>
 6    0  0.6525019E+002  0.2665447E+03  0.7546771E-02  0.1103274E+00
          1   -1    0    0  502    0 -0.00000000000E+00  0.00000000000E+00  0.26836200475E+04  0.26836200475E+04  0.00000000000E+00 0. -1.
         21   -1    0    0  504  502  0.00000000000E+00 -0.00000000000E+00 -0.36914865418E+03  0.36914865418E+03  0.00000000000E+00 0. -1.
         21    1    1    2  503  505 -0.95483807188E+02  0.26691410010E+02 -0.10365435963E+03  0.14343575242E+03  0.00000000000E+00 0. -1.
         21    1    1    2  504  503 -0.14567344983E+03 -0.80888109611E+02 -0.19344584581E+03  0.25531340647E+03  0.00000000000E+00 0. -1.
         21    1    1    2  505  501  0.24482079178E+03  0.85650638986E+02  0.77646637327E+03  0.81864111848E+03  0.00000000000E+00 0. -1.
          1    1    1    2  501    0 -0.36635347648E+01 -0.31453939384E+02  0.18351052255E+04  0.18353784243E+04  0.00000000000E+00 0. -1.
<scales pt_clust_3="75.53299" pt_clust_4="75.53299" pt_clust_5="247.80599" pt_clust_6="31.66657"></scales>
<clustering>
<clus scale="   31.667">  1  6  2 -1</clus>
<clus scale="   75.533">  3  4 -1 -1</clus>
<clus scale="  247.806">  1  5  2 -1</clus>
<clus scale="  266.545">  2  3  1 -1</clus>
</clustering>
</event>
<event>
 6    0  0.6525019E+002  0.1650302E+03  0.7546771E-02  0.1183132E+00
         21   -1    0    0  501  502  0.00000000000E+00  0.00000000000E+00  0.31272453420E+03  0.31272453420E+03  0.00000000000E+00 0. -1.
         -1   -1    0    0    0  501 -0.00000000000E+00 -0.00000000000E+00 -0.93687932075E+03  0.93687932075E+03  0.00000000000E+00 0. -1.
         21    1    1    2  503  502 -0.20380844206E+02 -0.22535320516E+02  0.93733867500E+02  0.98535564127E+02  0.00000000000E+00 0. -1.
         21    1    1    2  504  503  0.76612922527E+02 -0.12078673501E+03  0.18460388668E+03  0.23353280333E+03  0.00000000000E+00 0. -1.
         21    1    1    2  505  504 -0.47406356952E+02  0.81429033651E+02 -0.38889047374E+03  0.40014228815E+03  0.00000000000E+00 0. -1.
         -1    1    1    2    0  505 -0.88257213698E+01  0.61893021880E+02 -0.51360206699E+03  0.51739319935E+03  0.00000000000E+00 0. -1.
<scales pt_clust_3="30.38453" pt_clust_4="153.49152" pt_clust_5="49.37764" pt_clust_6="49.37764"></scales>
<clustering>
<clus scale="   30.385">  1  3  2 -1</clus>
<clus scale="   49.378">  5  6 -1 -1</clus>
<clus scale="  153.492">  1  4  2 -1</clus>
<clus scale="   30.385">  1  3  2 -1</clus>
</clustering>
</event>
<event>
 6    0  0.6525019E+002  0.7012902E+02  0.7546771E-02  0.1359655E+00
         21   -1    0    0  504  502  0.00000000000E+00  0.00000000000E+00  0.57247030706E+03  0.57247030706E+03  0.00000000000E+00 0. -1.
          2   -1    0    0  503    0 -0.00000000000E+00 -0.00000000000E+00 -0.26023353190E+04  0.26023353190E+04  0.00000000000E+00 0.  1.
         21    1    1    2  503  502  0.88430178253E+02  0.80341495124E+02 -0.18862509622E+03  0.22328027048E+03  0.00000000000E+00 0.  1.
         21    1    1    2  504  505 -0.32331491779E+02  0.42214711878E+02  0.16159042927E+03  0.17011429714E+03  0.00000000000E+00 0. -1.
         21    1    1    2  505  501 -0.38702432376E+01 -0.99028751761E+02  0.38263351918E+03  0.39525951280E+03  0.00000000000E+00 0. -1.
          2    1    1    2  501    0 -0.52228443236E+02 -0.23527455241E+02 -0.23854638642E+04  0.23861515456E+04  0.00000000000E+00 0.  1.
<scales pt_clust_3="14000.00000" pt_clust_4="53.17337" pt_clust_5="70.12902" pt_clust_6="57.29336"></scales>
<clustering>
<clus scale="   53.173">  1  4  2 -1</clus>
<clus scale="   57.293">  2  6  1 -1</clus>
<clus scale="   70.129">  1  5  2 -1</clus>
<clus scale="   53.173">  1  3  2 -1</clus>
</clustering>
</event>
<event>
 6    0  0.6525019E+002  0.9954220E+02  0.7546771E-02  0.1281262E+00
         21   -1    0    0  505  502  0.00000000000E+00  0.00000000000E+00  0.20749841608E+03  0.20749841608E+03  0.00000000000E+00 0.  1.
          2   -1    0    0  504    0 -0.00000000000E+00 -0.00000000000E+00 -0.24656023843E+04  0.24656023843E+04  0.00000000000E+00 0.  1.
         21    1    1    2  503  501 -0.40419278826E+02 -0.43963712800E+02 -0.31189743534E+03  0.31756343668E+03  0.00000000000E+00 0.  1.
         21    1    1    2  504  502  0.33780529499E+02  0.98137532328E+02 -0.27329558655E+03  0.29233983145E+03  0.00000000000E+00 0.  1.
         21    1    1    2  505  503  0.36597452937E+02  0.40142564599E+02  0.19002410422E+03  0.19763592598E+03  0.00000000000E+00 0.  1.
          2    1    1    2  501    0 -0.29958703611E+02 -0.94316384127E+02 -0.18629350506E+04  0.18655616063E+04  0.00000000000E+00 0.  1.
<scales pt_clust_3="48.46155" pt_clust_4="14000.00000" pt_clust_5="54.32126" pt_clust_6="99.54220"></scales>
<clustering>
<clus scale="   54.321">  1  5  2 -1</clus>
<clus scale="   48.462">  1  3  2 -1</clus>
<clus scale="   99.542">  2  6  1 -1</clus>
<clus scale="   54.321">  1  3  2 -1</clus>
</clustering>
</event>
<event>
 6    0  0.6525019E+002  0.1114605E+03  0.7546771E-02  0.1257889E+00
          4   -1    0    0  505    0 -0.00000000000E+00  0.00000000000E+00  0.55566968429E+03  0.55566968429E+03  0.00000000000E+00 0. -1.
         21   -1    0    0  501  502  0.00000000000E+00 -0.00000000000E+00 -0.15027586386E+04  0.15027586386E+04  0.00000000000E+00 0.  1.
         21    1    1    2  503  504 -0.92433405629E+02  0.52296019508E+02 -0.16902197205E+03  0.19961772258E+03  0.00000000000E+00 0.  1.
         21    1    1    2  504  502  0.10982708635E+03 -0.26057050969E+02 -0.13090096260E+04  0.13138672535E+04  0.00000000000E+00 0.  1.
         21    1    1    2  505  503 -0.42817835709E+02 -0.42744082550E+02  0.13613374200E+03  0.14897254565E+03  0.00000000000E+00 0.  1.
          4    1    1    2  501    0  0.25424154993E+02  0.16505114011E+02  0.39480890177E+03  0.39597080115E+03  0.00000000000E+00 0. -1.
<scales pt_clust_3="14000.00000" pt_clust_4="111.46050" pt_clust_5="34.58143" pt_clust_6="30.31182"></scales>
<clustering>
<clus scale="   30.312">  1  6  2 -1</clus>
<clus scale="   34.581">  1  5  2 -1</clus>
<clus scale="  111.460">  2  4  1 -1</clus>
<clus scale="  111.460">  2  3  1 -1</clus>
</clustering>
</event>
<event>
 6    0  0.6525019E+002  0.8668844E+02  0.7546771E-02  0.1311075E+00
         21   -1    0    0  505  502  0.00000000000E+00  0.00000000000E+00  0.71150314421E+03  0.71150314421E+03  0.00000000000E+00 0. -1.
          1   -1    0    0  503    0 -0.00000000000E+00 -0.00000000000E+00 -0.18627914866E+03  0.18627914866E+03  0.00000000000E+00 0.  1.
         21    1    1    2  503  504  0.15478878242E+02 -0.46067304502E+02 -0.23954264876E+02  0.54181168513E+02  0.00000000000E+00 0.  1.
         21    1    1    2  504  502 -0.55764755070E+02 -0.52750245530E+02  0.20605138721E+03  0.21988513020E+03  0.00000000000E+00 0.  1.
         21    1    1    2  505  501 -0.35524608667E+02  0.49772925671E+02  0.46668966008E+03  0.47067885100E+03  0.00000000000E+00 0. -1.
          1    1    1    2  501    0  0.75810485496E+02  0.49044624362E+02 -0.12356278686E+03  0.15303714316E+03  0.00000000000E+00 0.  1.
<scales pt_clust_3="48.59827" pt_clust_4="86.68844" pt_clust_5="60.52058" pt_clust_6="14000.00000"></scales>
<clustering>
<clus scale="   48.598">  2  3  1 -1</clus>
<clus scale="   60.521">  1  5  2 -1</clus>
<clus scale="   86.688">  1  4  2 -1</clus>
<clus scale="   60.521">  1  3  2 -1</clus>
</clustering>
</event>
<event>
 6    0  0.6525019E+002  0.1860825E+03  0.7546771E-02  0.1162043E+00
         21   -1    0    0  503  502  0.00000000000E+00  0.00000000000E+00  0.31075663147E+03  0.31075663147E+03  0.00000000000E+00 0. -1.
         -4   -1    0    0    0  501 -0.00000000000E+00 -0.00000000000E+00 -0.11089248910E+04  0.11089248910E+04  0.00000000000E+00 0. -1.
         21    1    1    2  503  501  0.20402378757E+01 -0.88768255074E+02 -0.15686341362E+03  0.18025009351E+03  0.00000000000E+00 0. -1.
         21    1    1    2  504  505  0.51036719462E+00  0.43018818555E+02  0.35529564381E+02  0.55796318603E+02  0.00000000000E+00 0.  1.
         21    1    1    2  505  502 -0.89977708969E+02  0.10850346218E+03  0.23036841565E+03  0.27007146526E+03  0.00000000000E+00 0. -1.
         -4    1    1    2    0  504  0.87427103898E+02 -0.62754025662E+02 -0.90720282591E+03  0.91356364506E+03  0.00000000000E+00 0. -1.
<scales pt_clust_3="88.79170" pt_clust_4="37.16157" pt_clust_5="37.16157" pt_clust_6="173.49933"></scales>
<clustering>
<clus scale="   37.162">  4  5 -1 -1</clus>
<clus scale="   88.792">  2  3  1 -1</clus>
<clus scale="  173.499">  2  6  1 -1</clus>
<clus scale="  186.082">  1  3  2 -1</clus>
</clustering>
</event>
<event>
 6    0  0.6525019E+002  0.7505099E+02  0.7546771E-02  0.1343713E+00
         21   -1    0    0  504  502  0.00000000000E+00  0.00000000000E+00  0.28226579865E+02  0.28226579865E+02  0.00000000000E+00 0.  1.
          1   -1    0    0  503    0 -0.00000000000E+00 -0.00000000000E+00 -0.27484372740E+04  0.27484372740E+04  0.00000000000E+00 0.  1.
         21    1    1    2  503  502  0.42860482760E+02  0.28698525170E+00 -0.88691853170E+02  0.98505574267E+02  0.00000000000E+00 0. -1.
         21    1    1    2  504  505 -0.32903762061E+02  0.86054169690E+02 -0.92013855276E+02  0.13020955127E+03  0.00000000000E+00 0.  1.
         21    1    1    2  505  501 -0.60979375295E+02 -0.45018543423E+02 -0.38212370314E+03  0.38956857928E+03  0.00000000000E+00 0. -1.
          1    1    1    2  501    0  0.51022654595E+02 -0.41322611519E+02 -0.21573812825E+04  0.21583801490E+04  0.00000000000E+00 0.  1.
<scales pt_clust_3="42.86144" pt_clust_4="75.05099" pt_clust_5="14000.00000" pt_clust_6="66.36923"></scales>
<clustering>
<clus scale="   42.861">  1  3  2 -1</clus>
<clus scale="   66.369">  2  6  1 -1</clus>
<clus scale="   75.051">  1  4  2 -1</clus>
<clus scale="   42.861">  1  3  2 -1</clus>
</clustering>
</event>
<event>
 6    0  0.6525019E+002  0.9551805E+02  0.7546771E-02  0.1290014E+00
         21   -1    0    0  505  502  0.00000000000E+00  0.00000000000E+00  0.12498326538E+03  0.12498326538E+03  0.00000000000E+00 0.  1.
          2   -1    0    0  504    0 -0.00000000000E+00 -0.00000000000E+00 -0.11437756439E+04  0.11437756439E+04  0.00000000000E+00 0.  1.
         21    1    1    2  503  502 -0.38183532223E+02  0.98149362393E+01  0.20552632666E+02  0.44460384793E+02  0.00000000000E+00 0.  1.
         21    1    1    2  504  503  0.42311865236E+02  0.45155181965E+02 -0.12357464000E+03  0.13820266296E+03  0.00000000000E+00 0.  1.
         21    1    1    2  505  501  0.82394575487E+02 -0.92196135148E+02  0.36699451024E+02  0.12898001051E+03  0.00000000000E+00 0.  1.
          2    1    1    2  501    0 -0.86522908500E+02  0.37226016943E+02 -0.95246982222E+03  0.95711585102E+03  0.00000000000E+00 0.  1.
<scales pt_clust_3="39.42480" pt_clust_4="60.44463" pt_clust_5="95.51805" pt_clust_6="14000.00000"></scales>
<clustering>
<clus scale="   39.425">  1  3  2 -1</clus>
<clus scale="   60.445">  2  4  1 -1</clus>
<clus scale="   95.518">  1  5  2 -1</clus>
<clus scale="   39.425">  1  3  2 -1</clus>
</clustering>
</event>
<event>
 6    0  0.6525019E+002  0.1605755E+03  0.7546771E-02  0.1188049E+00
          2   -1    0    0  503    0 -0.00000000000E+00  0.00000000000E+00  0.29916377244E+04  0.29916377244E+04  0.00000000000E+00 0.  1.
         21   -1    0    0  504  502  0.00000000000E+00 -0.00000000000E+00 -0.48966045991E+03  0.48966045991E+03  0.00000000000E+00 0. -1.
         21    1    1    2  503  502  0.15300562584E+03 -0.64165685563E+02  0.15985789492E+03  0.23039640473E+03  0.00000000000E+00 0.  1.
         21    1    1    2  504  505  0.40011479117E+02 -0.17309242638E+02 -0.37652554853E+03  0.37904091737E+03  0.00000000000E+00 0. -1.
         21    1    1    2  505  501 -0.36178703793E+02  0.47855722404E+02 -0.62186434842E+02  0.86407299769E+02  0.00000000000E+00 0.  1.
          2    1    1    2  501    0 -0.15683840116E+03  0.33619205797E+02  0.27808313530E+04  0.27854535625E+04  0.00000000000E+00 0.  1.
<scales pt_clust_3="14000.00000" pt_clust_4="43.59505" pt_clust_5="37.60861" pt_clust_6="160.57551"></scales>
<clustering>
<clus scale="   43.595">  2  4  1 -1</clus>
<clus scale="   37.609">  2  5  1 -1</clus>
<clus scale="  160.576">  1  6  2 -1</clus>
<clus scale="   43.595">  2  3  1 -1</clus>
</clustering>
</event>
<event>
 6    0  0.6525019E+002  0.1068100E+03  0.7546771E-02  0.1266594E+00
         21   -1    0    0  501  502  0.00000000000E+00  0.00000000000E+00  0.10224528887E+03  0.10224528887E+03  0.00000000000E+00 0.  1.
         -4   -1    0    0    0  501 -0.00000000000E+00 -0.00000000000E+00 -0.22774969521E+04  0.22774969521E+04  0.00000000000E+00 0. -1.
         21    1    1    2  503  502 -0.26042964871E+02  0.19431722931E+02  0.62518304503E+02  0.70458259085E+02  0.00000000000E+00 0.  1.
         21    1    1    2  504  505  0.46493491876E+02  0.88469384826E+02 -0.21984523228E+03  0.24149617594E+03  0.00000000000E+00 0.  1.
         21    1    1    2  505  503 -0.61855203079E+02 -0.92701668013E+02 -0.10114015199E+03  0.15049583298E+03  0.00000000000E+00 0.  1.
         -4    1    1    2    0  504  0.41404676074E+02 -0.15199439744E+02 -0.19167845835E+04  0.19172919730E+04  0.00000000000E+00 0. -1.
<scales pt_clust_3="32.49351" pt_clust_4="106.81000" pt_clust_5="14000.00000" pt_clust_6="43.88543"></scales>
<clustering>
<clus scale="   32.494">  1  3  2 -1</clus>
<clus scale="   43.885">  2  6  1 -1</clus>
<clus scale="  106.810">  2  4  1 -1</clus>
<clus scale="   32.494">  1  3  2 -1</clus>
</clustering>
</event>
<event>
 6    0  0.6525019E+002  0.2906750E+03  0.7546771E-02  0.1089997E+00
          2   -1    0    0  505    0 -0.00000000000E+00  0.00000000000E+00  0.11668174381E+04  0.11668174381E+04  0.00000000000E+00 0. -1.
         21   -1    0    0  503  502  0.00000000000E+00 -0.00000000000E+00 -0.90454490458E+03  0.90454490458E+03  0.00000000000E+00 0. -1.
         21    1    1    2  503  504  0.21146960741E+02  0.16140260939E+03 -0.55635232409E+03  0.57967741441E+03  0.00000000000E+00 0. -1.
         21    1    1    2  504  501  0.80859128696E+02  0.86325353350E+02 -0.25164001315E+03  0.27805208423E+03  0.00000000000E+00 0. -1.
         21    1    1    2  505  502 -0.13271444651E+03 -0.28437368626E+03  0.27597100359E+03  0.41790131917E+03  0.00000000000E+00 0. -1.
          2    1    1    2  501    0  0.30708357074E+02  0.36645723513E+02  0.79429386716E+03  0.79573152486E+03  0.00000000000E+00 0. -1.
<scales pt_clust_3="89.99343" pt_clust_4="89.99343" pt_clust_5="270.95766" pt_clust_6="47.81121"></scales>
<clustering>
<clus scale="   47.811">  1  6  2 -1</clus>
<clus scale="   89.993">  3  4 -1 -1</clus>
<clus scale="  270.958">  1  5  2 -1</clus>
<clus scale="  290.675">  2  3  1 -1</clus>
</clustering>
</event>
<event>
 6    0  0.6525019E+002  0.1022787E+03  0.7546771E-02  0.1275576E+00
          2   -1    0    0  503    0 -0.00000000000E+00  0.00000000000E+00  0.41485220882E+03  0.41485220882E+03  0.00000000000E+00 0. -1.
         21   -1    0    0  504  502  0.00000000000E+00 -0.00000000000E+00 -0.35228576458E+03  0.35228576458E+03  0.00000000000E+00 0. -1.
         21    1    1    2  503  502 -0.28600733165E+02 -0.16532706304E+02 -0.14534743641E+03  0.14905438466E+03  0.00000000000E+00 0. -1.
         21    1    1    2  504  505  0.10018252235E+03  0.52478770658E+01 -0.60956595924E+02  0.11738732719E+03  0.00000000000E+00 0. -1.
         21    1    1    2  505  501 -0.10724025645E+03  0.22149707701E+02 -0.88864249574E+02  0.14102459717E+03  0.00000000000E+00 0. -1.
          2    1    1    2  501    0  0.35658467266E+02 -0.10864878463E+02  0.35773472615E+03  0.35967166439E+03  0.00000000000E+00 0. -1.
<scales pt_clust_3="33.03532" pt_clust_4="102.27866" pt_clust_5="14000.00000" pt_clust_6="37.17070"></scales>
<clustering>
<clus scale="   33.035">  2  3  1 -1</clus>
<clus scale="   37.171">  1  6  2 -1</clus>
<clus scale="  102.279">  2  4  1 -1</clus>
<clus scale="   33.035">  2  3  1 -1</clus>
</clustering>
</event>
<event>
 6    0  0.6525019E+002  0.9902619E+02  0.7546771E-02  0.1282357E+00
         21   -1    0    0  504  502  0.00000000000E+00  0.00000000000E+00  0.43562176418E+03  0.43562176418E+03  0.00000000000E+00 0. -1.
          2   -1    0    0  503    0 -0.00000000000E+00 -0.00000000000E+00 -0.27625264488E+04  0.27625264488E+04  0.00000000000E+00 0.  1.
         21    1    1    2  503  505  0.16724064281E+02 -0.67282668962E+02  0.41491153331E+02  0.80797077134E+02  0.00000000000E+00 0. -1.
         21    1    1    2  504  501 -0.32173448141E+00  0.13381786178E+03  0.56104423861E+02  0.14510351485E+03  0.00000000000E+00 0. -1.
         21    1    1    2  505  502  0.11450880744E+02  0.28218442058E+02  0.27212033322E+03  0.27381906233E+03  0.00000000000E+00 0. -1.
          2    1    1    2  501    0 -0.27853210544E+02 -0.94753634874E+02 -0.26966205950E+04  0.26984285586E+04  0.00000000000E+00 0.  1.
<scales pt_clust_3="60.45030" pt_clust_4="99.02619" pt_clust_5="30.45329" pt_clust_6="14000.00000"></scales>
<clustering>
<clus scale="   30.453">  1  5  2 -1</clus>
<clus scale="   60.450">  1  3  2 -1</clus>
<clus scale="   99.026">  1  4  2 -1</clus>
<clus scale="   30.453">  1  3  2 -1</clus>
</clustering>
</event>
<event>
 6    0  0.6525019E+002  0.8836610E+02  0.7546771E-02  0.1306857E+00
          3   -1    0    0  504    0 -0.00000000000E+00  0.00000000000E+00  0.21035656649E+03  0.21035656649E+03  0.00000000000E+00 0.  1.
         21   -1    0    0  501  502  0.00000000000E+00 -0.00000000000E+00 -0.45835975323E+03  0.45835975323E+03  0.00000000000E+00 0.  1.
         21    1    1    2  503  505 -0.32890630463E+00 -0.10906470973E+03 -0.11685876565E+03  0.15984739660E+03  0.00000000000E+00 0.  1.
         21    1    1    2  504  503  0.41838807215E+02  0.65396283628E+02  0.61984664713E+02  0.99344141051E+02  0.00000000000E+00 0.  1.
         21    1    1    2  505  502 -0.38657460979E+02  0.75768161518E+02 -0.29273124618E+03  0.30483896746E+03  0.00000000000E+00 0.  1.
          3    1    1    2  501    0 -0.28524399315E+01 -0.32099735416E+02  0.99602160389E+02  0.10468581461E+03  0.00000000000E+00 0.  1.
<scales pt_clust_3="14000.00000" pt_clust_4="57.41696" pt_clust_5="88.36610" pt_clust_6="32.22622"></scales>
<clustering>
<clus scale="   32.226">  1  6  2 -1</clus>
<clus scale="   57.417">  1  4  2 -1</clus>
<clus scale="   88.366">  2  5  1 -1</clus>
<clus scale="   88.366">  2  3  1 -1</clus>
</clustering>
</event>
<event>
 6    0  0.6525019E+002  0.8010046E+02  0.7546771E-02  0.1328767E+00
         21   -1    0    0  504  502  0.00000000000E+00  0.00000000000E+00  0.98500054534E+03  0.98500054534E+03  0.00000000000E+00 0. -1.
          2   -1    0    0  503    0 -0.00000000000E+00 -0.00000000000E+00 -0.17527079133E+04  0.17527079133E+04  0.00000000000E+00 0. -1.
         21    1    1    2  503  502 -0.75831872624E+02  0.61654844080E+02 -0.31969840774E+03  0.33430355160E+03  0.00000000000E+00 0.  1.
         21    1    1    2  504  505 -0.38274846894E+02  0.40761732833E+02  0.26097797969E+03  0.26690070935E+03  0.00000000000E+00 0. -1.
         21    1    1    2  505  501  0.11173242142E+03 -0.70654926262E+02  0.70745686350E+03  0.71970234564E+03  0.00000000000E+00 0. -1.
          2    1    1    2  501    0  0.23742980961E+01 -0.31761650651E+02 -0.14164438034E+04  0.14168018521E+04  0.00000000000E+00 0. -1.
<scales pt_clust_3="80.10046" pt_clust_4="55.69690" pt_clust_5="14000.00000" pt_clust_6="31.85027"></scales>
<clustering>
<clus scale="   31.850">  2  6  1 -1</clus>
<clus scale="   55.697">  1  4  2 -1</clus>
<clus scale="   80.100">  2  3  1 -1</clus>
<clus scale="   55.697">  1  3  2 -1</clus>
</clustering>
</event>
<event>
 6    0  0.6525019E+002  0.8143380E+02  0.7546771E-02  0.1325031E+00
         21   -1    0    0  504  502  0.00000000000E+00  0.00000000000E+00  0.58928514390E+02  0.58928514390E+02  0.00000000000E+00 0. -1.
          1   -1    0    0  503    0 -0.00000000000E+00 -0.00000000000E+00 -0.10489132400E+04  0.10489132400E+04  0.00000000000E+00 0.  1.
         21    1    1    2  503  505 -0.33897290903E+02 -0.67928817147E+02 -0.27464712626E+02  0.80732031866E+02  0.00000000000E+00 0. -1.
         21    1    1    2  504  501  0.82092974924E+02  0.76730343799E+02 -0.23553301811E+03  0.26096475780E+03  0.00000000000E+00 0. -1.
         21    1    1    2  505  502 -0.30674466754E+02  0.30466114098E+02 -0.57344743069E+01  0.43611824251E+02  0.00000000000E+00 0. -1.
          1    1    1    2  501    0 -0.17521217266E+02 -0.39267640750E+02 -0.72125252057E+03  0.72253314048E+03  0.00000000000E+00 0.  1.
<scales pt_clust_3="14000.00000" pt_clust_4="81.43380" pt_clust_5="42.19253" pt_clust_6="42.99931"></scales>
<clustering>
<clus scale="   42.999">  2  6  1 -1</clus>
<clus scale="   42.193">  1  5  2 -1</clus>
<clus scale="   81.434">  2  4  1 -1</clus>
<clus scale="   42.193">  1  3  2 -1</clus>
</clustering>
</event>
<event>
 6    0  0.6525019E+002  0.9868029E+02  0.7546771E-02  0.1283096E+00
         21   -1    0    0  504  502  0.00000000000E+00  0.00000000000E+00  0.11869574150E+03  0.11869574150E+03  0.00000000000E+00 0.  1.
          2   -1    0    0  503    0 -0.00000000000E+00 -0.00000000000E+00 -0.66638871524E+03  0.66638871524E+03  0.00000000000E+00 0.  1.
         21    1    1    2  503  502  0.44032086515E+02 -0.87596850762E+01  0.14695116073E+02  0.47238788743E+02  0.00000000000E+00 0. -1.
         21    1    1    2  504  505  0.11258357080E+02  0.28897920805E+02  0.40738620445E+02  0.51200347917E+02  0.00000000000E+00 0.  1.
         21    1    1    2  505  501 -0.54216941926E+02  0.80530356887E+02 -0.25585709140E+02  0.10039543657E+03  0.00000000000E+00 0.  1.
          2    1    1    2  501    0 -0.10735016700E+01 -0.10066859262E+03 -0.57754100112E+03  0.58624988351E+03  0.00000000000E+00 0.  1.
<scales pt_clust_3="48.95444" pt_clust_4="31.01355" pt_clust_5="98.68029" pt_clust_6="14000.00000"></scales>
<clustering>
<clus scale="   31.014">  1  4  2 -1</clus>
<clus scale="   48.954">  1  3  2 -1</clus>
<clus scale="   98.680">  1  5  2 -1</clus>
<clus scale="   31.014">  1  3  2 -1</clus>
</clustering>
</event>
<event>
 6    0  0.6525019E+002  0.8556500E+02  0.7546771E-02  0.1313962E+00
         21   -1    0    0  503  502  0.00000000000E+00  0.00000000000E+00  0.14946882880E+03  0.14946882880E+03  0.00000000000E+00 0.  1.
          2   -1    0    0  505    0 -0.00000000000E+00 -0.00000000000E+00 -0.15278465520E+04  0.15278465520E+04  0.00000000000E+00 0.  1.
         21    1    1    2  503  501 -0.41377253505E+02 -0.47973246139E+02 -0.13469292117E+03  0.14884788365E+03  0.00000000000E+00 0.  1.
         21    1    1    2  504  502 -0.27573223205E+02  0.16515188340E+02  0.76462971233E+02  0.82943475051E+02  0.00000000000E+00 0.  1.
         21    1    1    2  505  504  0.15221074174E+03  0.19158759203E+02 -0.34652752869E+02  0.15727676636E+03  0.00000000000E+00 0.  1.
          2    1    1    2  501    0 -0.83260265028E+02  0.12299298596E+02 -0.12854950204E+04  0.12882472557E+04  0.00000000000E+00 0.  1.
<scales pt_clust_3="63.99119" pt_clust_4="32.14085" pt_clust_5="14000.00000" pt_clust_6="85.56500"></scales>
<clustering>
<clus scale="   32.141">  1  4  2 -1</clus>
<clus scale="   63.991">  1  3  2 -1</clus>
<clus scale="   85.565">  2  6  1 -1</clus>
<clus scale="   32.141">  1  3  2 -1</clus>
</clustering>
</event>
<event>
 6    0  0.6525019E+002  0.1270721E+03  0.7546771E-02  0.1231866E+00
         21   -1    0    0  505  502  0.00000000000E+00  0.00000000000E+00  0.24783126843E+04  0.24783126843E+04  0.00000000000E+00 0. -1.
          2   -1    0    0  504    0 -0.00000000000E+00 -0.00000000000E+00 -0.24994160238E+04  0.24994160238E+04  0.00000000000E+00 0.  1.
         21    1    1    2  503  502 -0.14357616885E+03  0.36525332074E+02  0.28184241905E+03  0.31840754596E+03  0.00000000000E+00 0.  1.
         21    1    1    2  504  503  0.17073043101E+02 -0.29748830260E+02 -0.12132647593E+03  0.12608170154E+03  0.00000000000E+00 0.  1.
         21    1    1    2  505  501  0.16729902409E+02 -0.31038861513E+02  0.21743267465E+04  0.21746126324E+04  0.00000000000E+00 0. -1.
          2    1    1    2  501    0  0.10977322334E+03  0.24262359699E+02 -0.23559460291E+04  0.23586268282E+04  0.00000000000E+00 0.  1.
<scales pt_clust_3="14000.00000" pt_clust_4="34.29988" pt_clust_5="35.26253" pt_clust_6="127.07207"></scales>
<clustering>
<clus scale="   34.300">  2  4  1 -1</clus>
<clus scale="   35.263">  1  5  2 -1</clus>
<clus scale="  127.072">  2  6  1 -1</clus>
<clus scale="   35.263">  1  3  2 -1</clus>
</clustering>
</event>
<event>
 6    0  0.6525019E+002  0.9163177E+02  0.7546771E-02  0.1298948E+00
         21   -1    0    0  505  502  0.00000000000E+00  0.00000000000E+00  0.42303764639E+03  0.42303764639E+03  0.00000000000E+00 0.  1.
          1   -1    0    0  503    0 -0.00000000000E+00 -0.00000000000E+00 -0.48966872927E+03  0.48966872927E+03  0.00000000000E+00 0.  1.
         21    1    1    2  503  504  0.49549976419E+02  0.28267827652E+02 -0.37963207486E+03  0.38389423349E+03  0.00000000000E+00 0.  1.
         21    1    1    2  504  502 -0.20394309610E+02 -0.15253118598E+03  0.26905662025E+03  0.30995669933E+03  0.00000000000E+00 0.  1.
         21    1    1    2  505  501 -0.20477255887E+02  0.70069087995E+02  0.11059505946E+03  0.13251513981E+03  0.00000000000E+00 0. -1.
          1    1    1    2  501    0 -0.86784109224E+01  0.54194270334E+02 -0.66650687725E+02  0.86340303031E+02  0.00000000000E+00 0.  1.
<scales pt_clust_3="91.63177" pt_clust_4="14000.00000" pt_clust_5="74.44463" pt_clust_6="54.88473"></scales>
<clustering>
<clus scale="   54.885">  2  6  1 -1</clus>
<clus scale="   74.445">  1  5  2 -1</clus>
<clus scale="   91.632">  2  3  1 -1</clus>
<clus scale="   74.445">  1  3  2 -1</clus>
</clustering>
</event>
<event>
 6    0  0.6525019E+002  0.1047132E+03  0.7546771E-02  0.1270686E+00
         -2   -1    0    0    0  501 -0.00000000000E+00  0.00000000000E+00  0.66174023849E+02  0.66174023849E+02  0.00000000000E+00 0.  1.
         21   -1    0    0  503  502  0.00000000000E+00 -0.00000000000E+00 -0.12214100230E+04  0.12214100230E+04  0.00000000000E+00 0.  1.
         21    1    1    2  503  501  0.43089754940E+02  0.12235991705E+03 -0.62788785736E+03  0.64114884208E+03  0.00000000000E+00 0.  1.
         21    1    1    2  504  502 -0.85423789288E+02 -0.49647694279E+02 -0.51831141567E+03  0.52764461613E+03  0.00000000000E+00 0.  1.
         21    1    1    2  505  504  0.84312377630E+01 -0.43858424071E+02 -0.43611280820E+02  0.62422679748E+02  0.00000000000E+00 0.  1.
         -2    1    1    2    0  505  0.33902796585E+02 -0.28853798704E+02  0.34574554717E+02  0.56367908865E+02  0.00000000000E+00 0.  1.
<scales pt_clust_3="104.71316" pt_clust_4="14000.00000" pt_clust_5="61.75217" pt_clust_6="44.51900"></scales>
<clustering>
<clus scale="   44.519">  1  6  2 -1</clus>
<clus scale="   61.752">  1  5  2 -1</clus>
<clus scale="  104.713">  1  3  2 -1</clus>
<clus scale="  104.713">  2  3  1 -1</clus>
</clustering>
</event>
<event>
 6    0  0.6525019E+002  0.7286861E+02  0.7546771E-02  0.1350601E+00
         -1   -1    0    0    0  501 -0.00000000000E+00  0.00000000000E+00  0.38851595410E+03  0.38851595410E+03  0.00000000000E+00 0. -1.
         21   -1    0    0  504  502  0.00000000000E+00 -0.00000000000E+00 -0.54752688801E+03  0.54752688801E+03  0.00000000000E+00 0. -1.
         21    1    1    2  503  502 -0.35105159419E+02 -0.11285710976E+02 -0.29221953180E+02  0.47049570006E+02  0.00000000000E+00 0. -1.
         21    1    1    2  504  501 -0.42078045327E+02  0.43348320445E+02 -0.19608352265E+03  0.20517891373E+03  0.00000000000E+00 0. -1.
         21    1    1    2  505  503  0.38279667230E+02 -0.82161134224E+02 -0.29931759786E+03  0.31274080209E+03  0.00000000000E+00 0. -1.
         -1    1    1    2    0  505  0.38903537516E+02  0.50098524755E+02  0.36561213978E+03  0.37107355628E+03  0.00000000000E+00 0. -1.
<scales pt_clust_3="36.87465" pt_clust_4="72.86861" pt_clust_5="14000.00000" pt_clust_6="63.26675"></scales>
<clustering>
<clus scale="   36.875">  2  3  1 -1</clus>
<clus scale="   63.267">  1  6  2 -1</clus>
<clus scale="   72.869">  1  4  2 -1</clus>
<clus scale="   36.875">  2  3  1 -1</clus>
</clustering>
</event>
<event>
 6    0  0.6525019E+002  0.1039838E+03  0.7546771E-02  0.1272135E+00
          1   -1    0    0  504    0 -0.00000000000E+00  0.00000000000E+00  0.15439250008E+04  0.15439250008E+04  0.00000000000E+00 0. -1.
         21   -1    0    0  505  502  0.00000000000E+00 -0.00000000000E+00 -0.16345339766E+03  0.16345339766E+03  0.00000000000E+00 0. -1.
         21    1    1    2  503  502  0.44586694066E+02 -0.58852229421E+01 -0.70439139805E+02  0.83572014175E+02  0.00000000000E+00 0. -1.
         21    1    1    2  504  503  0.31980165553E+02 -0.14616000411E+02  0.10893093845E+04  0.10898767332E+04  0.00000000000E+00 0.  1.
         21    1    1    2  505  501  0.26703073882E+02  0.83705895397E+02 -0.52594089650E+02  0.10240053391E+03  0.00000000000E+00 0. -1.
          1    1    1    2  501    0 -0.10326993350E+03 -0.63204672044E+02  0.41419544814E+03  0.43152911720E+03  0.00000000000E+00 0. -1.
<scales pt_clust_3="45.45955" pt_clust_4="35.16189" pt_clust_5="14000.00000" pt_clust_6="103.98383"></scales>
<clustering>
<clus scale="   35.162">  1  4  2 -1</clus>
<clus scale="   45.460">  2  3  1 -1</clus>
<clus scale="  103.984">  1  6  2 -1</clus>
<clus scale="   45.460">  2  3  1 -1</clus>
</clustering>
</event>
<event>
 6    0  0.6525019E+002  0.7465319E+02  0.7546771E-02  0.1344948E+00
         21   -1    0    0  505  502  0.00000000000E+00  0.00000000000E+00  0.10108107863E+03  0.10108107863E+03  0.00000000000E+00 0.  1.
          2   -1    0    0  503    0 -0.00000000000E+00 -0.00000000000E+00 -0.16785567112E+04  0.16785567112E+04  0.00000000000E+00 0.  1.
         21    1    1    2  503  502  0.61058367630E+02  0.59629597300E+02  0.63476633212E+02  0.10636303914E+03  0.00000000000E+00 0.  1.
         21    1    1    2  504  501  0.42358234032E+02 -0.28926466971E+02 -0.71097129824E+02  0.87668479803E+02  0.00000000000E+00 0. -1.
         21    1    1    2  505  504 -0.39460105741E+02  0.76265525679E+01 -0.51050297545E+02  0.64972279694E+02  0.00000000000E+00 0.  1.
          2    1    1    2  501    0 -0.63956495921E+02 -0.38329682897E+02 -0.15188048384E+04  0.15206339912E+04  0.00000000000E+00 0.  1.
<scales pt_clust_3="14000.00000" pt_clust_4="48.06609" pt_clust_5="40.19035" pt_clust_6="74.65319"></scales>
<clustering>
<clus scale="   40.190">  1  5  2 -1</clus>
<clus scale="   48.066">  1  4  2 -1</clus>
<clus scale="   74.653">  2  6  1 -1</clus>
<clus scale="   40.190">  1  3  2 -1</clus>
</clustering>
</event>
<event>
 6    0  0.6525019E+002  0.1399659E+03  0.7546771E-02  0.1213375E+00
          1   -1    0    0  504    0 -0.00000000000E+00  0.00000000000E+00  0.17388483708E+04  0.17388483708E+04  0.00000000000E+00 0.  1.
         21   -1    0    0  501  502  0.00000000000E+00 -0.00000000000E+00 -0.39932861503E+03  0.39932861503E+03  0.00000000000E+00 0. -1.
         21    1    1    2  503  505 -0.36430884601E+02 -0.94850915645E+01 -0.74999290630E+02  0.83917041832E+02  0.00000000000E+00 0. -1.
         21    1    1    2  504  503 -0.76182672444E+02  0.87673955596E+02  0.33193971220E+03  0.35167384692E+03  0.00000000000E+00 0.  1.
         21    1    1    2  505  502 -0.45962893491E+02 -0.89554060875E+02 -0.29714523121E+03  0.31373206056E+03  0.00000000000E+00 0. -1.
          1    1    1    2  501    0  0.15857645054E+03  0.11365196843E+02  0.13797245654E+04  0.13888540365E+04  0.00000000000E+00 0.  1.
<scales pt_clust_3="33.69469" pt_clust_4="116.14871" pt_clust_5="33.69469" pt_clust_6="128.66501"></scales>
<clustering>
<clus scale="   33.695">  3  5 -1 -1</clus>
<clus scale="  116.149">  1  4  2 -1</clus>
<clus scale="  128.665">  1  6  2 -1</clus>
<clus scale="  139.966">  2  3  1 -1</clus>
</clustering>
</event>
<event>
 6    0  0.6525019E+002  0.8033671E+02  0.7546771E-02  0.1328099E+00
         21   -1    0    0  503  502  0.00000000000E+00  0.00000000000E+00  0.58017705003E+02  0.58017705003E+02  0.00000000000E+00 0. -1.
          2   -1    0    0  504    0 -0.00000000000E+00 -0.00000000000E+00 -0.22961534284E+04  0.22961534284E+04  0.00000000000E+00 0. -1.
         21    1    1    2  503  505  0.79770244692E+02  0.14731434837E+02 -0.33352633615E+02  0.87708068498E+02  0.00000000000E+00 0. -1.
         21    1    1    2  504  502 -0.74187407350E+02  0.69973550106E+02 -0.15796010938E+03  0.18801985342E+03  0.00000000000E+00 0. -1.
         21    1    1    2  505  501 -0.61232809292E+02 -0.67975393856E+02 -0.12075478432E+03  0.15149861069E+03  0.00000000000E+00 0. -1.
          2    1    1    2  501    0  0.55649971950E+02 -0.16729591087E+02 -0.19260681961E+04  0.19269446008E+04  0.00000000000E+00 0. -1.
<scales pt_clust_3="14000.00000" pt_clust_4="78.61143" pt_clust_5="80.33671" pt_clust_6="58.11023"></scales>
<clustering>
<clus scale="   58.110">  2  6  1 -1</clus>
<clus scale="   78.611">  2  4  1 -1</clus>
<clus scale="   80.337">  2  5  1 -1</clus>
<clus scale="   80.337">  1  3  2 -1</clus>
</clustering>
</event>
<event>
 6    0  0.6525019E+002  0.1073511E+03  0.7546771E-02  0.1265555E+00
         21   -1    0    0  505  502  0.00000000000E+00  0.00000000000E+00  0.83443816957E+02  0.83443816957E+02  0.00000000000E+00 0.  1.
          2   -1    0    0  503    0 -0.00000000000E+00 -0.00000000000E+00 -0.78297877943E+03  0.78297877943E+03  0.00000000000E+00 0.  1.
         21    1    1    2  503  502  0.57305884716E+01 -0.10049362875E+03 -0.14317339144E+03  0.17501551097E+03  0.00000000000E+00 0.  1.
         21    1    1    2  504  501  0.90548999360E+02  0.10729376944E+03 -0.15242021584E+03  0.20722692017E+03  0.00000000000E+00 0.  1.
         21    1    1    2  505  504 -0.30082492055E+02 -0.34103038935E+02  0.23218873951E+02  0.51059668040E+02  0.00000000000E+00 0.  1.
          2    1    1    2  501    0 -0.66197095777E+02  0.27302898245E+02 -0.42716022914E+03  0.43312049720E+03  0.00000000000E+00 0.  1.
<scales pt_clust_3="107.35112" pt_clust_4="14000.00000" pt_clust_5="45.47498" pt_clust_6="72.61229"></scales>
<clustering>
<clus scale="   45.475">  1  5  2 -1</clus>
<clus scale="   72.612">  2  6  1 -1</clus>
<clus scale="  107.351">  2  3  1 -1</clus>
<clus scale="   45.475">  1  3  2 -1</clus>
</clustering>
</event>
<event>
 6    0  0.6525019E+002  0.1652442E+03  0.7546771E-02  0.1182900E+00
          2   -1    0    0  504    0 -0.00000000000E+00  0.00000000000E+00  0.26325957705E+04  0.26325957705E+04  0.00000000000E+00 0. -1.
         21   -1    0    0  503  502  0.00000000000E+00 -0.00000000000E+00 -0.56886786633E+02  0.56886786633E+02  0.00000000000E+00 0. -1.
         21    1    1    2  503  501  0.39888056929E+01 -0.54660680547E+02 -0.25289108780E+02  0.60359254399E+02  0.00000000000E+00 0. -1.
         21    1    1    2  504  505  0.23169979171E+02 -0.58113447242E+02  0.24271045611E+03  0.25064394306E+03  0.00000000000E+00 0. -1.
         21    1    1    2  505  502 -0.34511682148E+02 -0.46768252306E+02  0.10899994825E+03  0.12352859728E+03  0.00000000000E+00 0. -1.
          2    1    1    2  501    0  0.73528972848E+01  0.15954238010E+03  0.22492876883E+04  0.22549507624E+04  0.00000000000E+00 0. -1.
<scales pt_clust_3="54.80603" pt_clust_4="70.03484" pt_clust_5="70.03484" pt_clust_6="148.76008"></scales>
<clustering>
<clus scale="   54.806">  2  3  1 -1</clus>
<clus scale="   70.035">  4  5 -1 -1</clus>
<clus scale="  148.760">  1  6  2 -1</clus>
<clus scale="   54.806">  2  3  1 -1</clus>
</clustering>
</event>
<event>
 6    0  0.6525019E+002  0.1276923E+03  0.7546771E-02  0.1230921E+00
          2   -1    0    0  504    0 -0.00000000000E+00  0.00000000000E+00  0.13308583553E+04  0.13308583553E+04  0.00000000000E+00 0.  1.
         21   -1    0    0  505  502  0.00000000000E+00 -0.00000000000E+00 -0.10407414291E+03  0.10407414291E+03  0.00000000000E+00 0. -1.
         21    1    1    2  503  501  0.11912712715E+03 -0.48185019703E-01  0.19373953213E+03  0.22743412465E+03  0.00000000000E+00 0. -1.
         21    1    1    2  504  502  0.26690187739E+01 -0.10913788666E+03 -0.24365371927E+02  0.11185648535E+03  0.00000000000E+00 0. -1.
         21    1    1    2  505  503 -0.12260267237E+02  0.31116437981E+02  0.40049120840E+01  0.33683618959E+02  0.00000000000E+00 0. -1.
          2    1    1    2  501    0 -0.10953587868E+03  0.78069633700E+02  0.10534051401E+04  0.10619582693E+04  0.00000000000E+00 0.  1.
<scales pt_clust_3="127.69230" pt_clust_4="85.64900" pt_clust_5="33.44468" pt_clust_6="14000.00000"></scales>
<clustering>
<clus scale="   33.445">  2  5  1 -1</clus>
<clus scale="   85.649">  2  4  1 -1</clus>
<clus scale="  127.692">  2  3  1 -1</clus>
<clus scale="   33.445">  2  3  1 -1</clus>
</clustering>
</event>
<event>
 6    0  0.6525019E+002  0.1064432E+03  0.7546771E-02  0.1267302E+00
         21   -1    0    0  504  502  0.00000000000E+00  0.00000000000E+00  0.31997305874E+02  0.31997305874E+02  0.00000000000E+00 0.  1.
          2   -1    0    0  505    0 -0.00000000000E+00 -0.00000000000E+00 -0.12982702846E+04  0.12982702846E+04  0.00000000000E+00 0.  1.
         21    1    1    2  503  501 -0.66961015841E+02 -0.15303748784E+03 -0.54832323253E+03  0.57320381860E+03  0.00000000000E+00 0.  1.
         21    1    1    2  504  503  0.17861557665E+02  0.90911663530E+02 -0.11773424291E+03  0.14981761499E+03  0.00000000000E+00 0.  1.
         21    1    1    2  505  502  0.22141034044E+02  0.29376495162E+02 -0.12950214371E+03  0.13462543995E+03  0.00000000000E+00 0.  1.
          2    1    1    2  501    0  0.26958424132E+02  0.32749329144E+02 -0.47071335961E+03  0.47262071697E+03  0.00000000000E+00 0.  1.
<scales pt_clust_3="14000.00000" pt_clust_4="106.44316" pt_clust_5="36.78592" pt_clust_6="57.28565"></scales>
<clustering>
<clus scale="   36.786">  2  5  1 -1</clus>
<clus scale="   57.286">  2  6  1 -1</clus>
<clus scale="  106.443">  1  4  2 -1</clus>
<clus scale="  106.443">  1  3  2 -1</clus>
</clustering>
</event>
<event>
 6    0  0.6525019E+002  0.8659066E+02  0.7546771E-02  0.1311324E+00
         21   -1    0    0  503  502  0.00000000000E+00  0.00000000000E+00  0.14146020023E+03  0.14146020023E+03  0.00000000000E+00 0. -1.
          2   -1    0    0  504    0 -0.00000000000E+00 -0.00000000000E+00 -0.12101153627E+04  0.12101153627E+04  0.00000000000E+00 0.  1.
         21    1    1    2  503  501  0.49679666510E+02 -0.65651534014E+02 -0.63038631333E+03  0.63573980308E+03  0.00000000000E+00 0.  1.
         21    1    1    2  504  505 -0.61018283469E+01 -0.31065922241E+02 -0.42908951079E+02  0.53324496403E+02  0.00000000000E+00 0.  1.
         21    1    1    2  505  502 -0.70174240330E+02  0.51025898643E+02  0.11798386989E+03  0.14645224441E+03  0.00000000000E+00 0. -1.
          2    1    1    2  501    0  0.26596402166E+02  0.45691557611E+02 -0.51334376798E+03  0.51605901907E+03  0.00000000000E+00 0.  1.
<scales pt_clust_3="86.59066" pt_clust_4="31.65950" pt_clust_5="14000.00000" pt_clust_6="39.88105"></scales>
<clustering>
<clus scale="   31.659">  2  4  1 -1</clus>
<clus scale="   39.881">  2  6  1 -1</clus>
<clus scale="   86.591">  2  3  1 -1</clus>
<clus scale="   86.591">  1  3  2 -1</clus>
</clustering>
</event>
<event>
 6    0  0.6525019E+002  0.2165343E+03  0.7546771E-02  0.1136494E+00
         21   -1    0    0  504  502  0.00000000000E+00  0.00000000000E+00  0.85641606231E+03  0.85641606231E+03  0.00000000000E+00 0. -1.
         -3   -1    0    0    0  501 -0.00000000000E+00 -0.00000000000E+00 -0.24767938079E+03  0.24767938079E+03  0.00000000000E+00 0.  1.
         21    1    1    2  503  501  0.12364332749E+03  0.61917103603E+02  0.47250712122E+03  0.49232548152E+03  0.00000000000E+00 0. -1.
         21    1    1    2  504  503  0.85506319741E+02  0.55709808094E+02  0.21564218661E+03  0.23857172104E+03  0.00000000000E+00 0. -1.
         21    1    1    2  505  502 -0.21593651200E+02 -0.29434833236E+02  0.95346998699E+02  0.10209674501E+03  0.00000000000E+00 0.  1.
         -3    1    1    2    0  505 -0.18755599603E+03 -0.88192078462E+02 -0.17475962501E+03  0.27110149554E+03  0.00000000000E+00 0.  1.
<scales pt_clust_3="48.97338" pt_clust_4="48.97338" pt_clust_5="36.50610" pt_clust_6="209.29769"></scales>
<clustering>
<clus scale="   36.506">  1  5  2 -1</clus>
<clus scale="   48.973">  3  4 -1 -1</clus>
<clus scale="  209.298">  2  6  1 -1</clus>
<clus scale="   36.506">  1  3  2 -1</clus>
</clustering>
</event>
<event>
 6    0  0.6525019E+002  0.1108921E+03  0.7546771E-02  0.1258927E+00
         21   -1    0    0  504  502  0.00000000000E+00  0.00000000000E+00  0.27794803646E+04  0.27794803646E+04  0.00000000000E+00 0. -1.
          2   -1    0    0  505    0 -0.00000000000E+00 -0.00000000000E+00 -0.41318440492E+03  0.41318440492E+03  0.00000000000E+00 0.  1.
         21    1    1    2  503  502 -0.48155059232E+02  0.47163457491E+02  0.74927757369E+02  0.10078427594E+03  0.00000000000E+00 0.  1.
         21    1    1    2  504  501 -0.34952783863E+02 -0.25791958275E+02  0.26541569021E+04  0.26545123438E+04  0.00000000000E+00 0. -1.
         21    1    1    2  505  503 -0.23895650031E+02 -0.94421336101E+02 -0.79019915521E+02  0.12542144095E+03  0.00000000000E+00 0.  1.
          2    1    1    2  501    0  0.10700349313E+03  0.73049836885E+02 -0.28376878431E+03  0.31194670884E+03  0.00000000000E+00 0.  1.
<scales pt_clust_3="78.28511" pt_clust_4="43.43872" pt_clust_5="14000.00000" pt_clust_6="110.89206"></scales>
<clustering>
<clus scale="   43.439">  1  4  2 -1</clus>
<clus scale="   78.285">  1  3  2 -1</clus>
<clus scale="  110.892">  2  6  1 -1</clus>
<clus scale="   43.439">  1  3  2 -1</clus>
</clustering>
</event>
<event>
 6    0  0.6525019E+002  0.7790314E+02  0.7546771E-02  0.1335110E+00
         21   -1    0    0  503  502  0.00000000000E+00  0.00000000000E+00  0.75647036386E+03  0.75647036386E+03  0.00000000000E+00 0.  1.
          2   -1    0    0  504    0 -0.00000000000E+00 -0.00000000000E+00 -0.28001792041E+04  0.28001792041E+04  0.00000000000E+00 0. -1.
         21    1    1    2  503  501  0.18609704589E+02  0.42777311687E+02 -0.27586885350E+03  0.27978535314E+03  0.00000000000E+00 0. -1.
         21    1    1    2  504  505 -0.36682833128E+02 -0.12799294467E+03  0.11630612455E+01  0.13315095509E+03  0.00000000000E+00 0.  1.
         21    1    1    2  505  502 -0.22733436809E+02  0.73337139228E+02  0.68502639344E+03  0.68931582373E+03  0.00000000000E+00 0.  1.
          2    1    1    2  501    0  0.40806565348E+02  0.11878493753E+02 -0.24540294414E+04  0.24543974360E+04  0.00000000000E+00 0. -1.
<scales pt_clust_3="73.32689" pt_clust_4="14000.00000" pt_clust_5="77.90314" pt_clust_6="42.50029"></scales>
<clustering>
<clus scale="   42.500">  2  6  1 -1</clus>
<clus scale="   73.327">  2  3  1 -1</clus>
<clus scale="   77.903">  1  5  2 -1</clus>
<clus scale="   77.903">  1  3  2 -1</clus>
</clustering>
</event>
<event>
 6    0  0.6525019E+002  0.1225823E+03  0.7546771E-02  0.1238897E+00
          1   -1    0    0  504    0 -0.00000000000E+00  0.00000000000E+00  0.16914894004E+04  0.16914894004E+04  0.00000000000E+00 0.  1.
         21   -1    0    0  505  502  0.00000000000E+00 -0.00000000000E+00 -0.82812632367E+02  0.82812632367E+02  0.00000000000E+00 0.  1.
         21    1    1    2  503  501  0.11369339129E+03 -0.35391773980E+02  0.53039977089E+03  0.54360158375E+03  0.00000000000E+00 0. -1.
         21    1    1    2  504  502 -0.35473880331E+02 -0.62232715304E+01  0.52892261490E+02  0.63989972807E+02  0.00000000000E+00 0.  1.
         21    1    1    2  505  503 -0.92915037908E+02 -0.76144236695E+00 -0.39439626412E+02  0.10094190505E+03  0.00000000000E+00 0.  1.
          1    1    1    2  501    0  0.14695526948E+02  0.42376487877E+02  0.10648243620E+04  0.10657685711E+04  0.00000000000E+00 0.  1.
<scales pt_clust_3="14000.00000" pt_clust_4="36.01563" pt_clust_5="122.58232" pt_clust_6="44.74573"></scales>
<clustering>
<clus scale="   36.016">  2  4  1 -1</clus>
<clus scale="   44.746">  1  6  2 -1</clus>
<clus scale="  122.582">  2  5  1 -1</clus>
<clus scale="   36.016">  2  3  1 -1</clus>
</clustering>
</event>
<event>
 6    0  0.6525019E+002  0.8178196E+02  0.7546771E-02  0.1324069E+00
          1   -1    0    0  505    0 -0.00000000000E+00  0.00000000000E+00  0.22694855781E+04  0.22694855781E+04  0.00000000000E+00 0.  1.
         21   -1    0    0  504  502  0.00000000000E+00 -0.00000000000E+00 -0.57988019927E+02  0.57988019927E+02  0.00000000000E+00 0. -1.
         21    1    1    2  503  502 -0.36446145300E+02  0.19179433137E+02 -0.72147043074E+01  0.41811770124E+02  0.00000000000E+00 0. -1.
         21    1    1    2  504  501  0.75417622649E+00 -0.11209720513E+03  0.23103533355E+03  0.25679501072E+03  0.00000000000E+00 0. -1.
         21    1    1    2  505  503  0.26733949688E+02  0.60778054780E+02  0.33436542268E+02  0.74341632802E+02  0.00000000000E+00 0. -1.
          1    1    1    2  501    0  0.89580193856E+01  0.32139717214E+02  0.19542403867E+04  0.19545251844E+04  0.00000000000E+00 0.  1.
<scales pt_clust_3="41.60963" pt_clust_4="81.78196" pt_clust_5="14000.00000" pt_clust_6="33.36476"></scales>
<clustering>
<clus scale="   33.365">  1  6  2 -1</clus>
<clus scale="   41.610">  2  3  1 -1</clus>
<clus scale="   81.782">  1  4  2 -1</clus>
<clus scale="   41.610">  2  3  1 -1</clus>
</clustering>
</event>
<event>
 6    0  0.6525019E+002  0.1211213E+03  0.7546771E-02  0.1241259E+00
         21   -1    0    0  504  502  0.00000000000E+00  0.00000000000E+00  0.16036368630E+03  0.16036368630E+03  0.00000000000E+00 0. -1.
          2   -1    0    0  503    0 -0.00000000000E+00 -0.00000000000E+00 -0.15602746439E+04  0.15602746439E+04  0.00000000000E+00 0.  1.
         21    1    1    2  503  505 -0.62772201784E+02 -0.53346881085E+02 -0.10781897252E+04  0.10813321980E+04  0.00000000000E+00 0.  1.
         21    1    1    2  504  501 -0.23389780392E+02  0.85503369358E+02  0.11358459249E+03  0.14408111483E+03  0.00000000000E+00 0. -1.
         21    1    1    2  505  502 -0.25643733184E+02  0.31022504336E+02  0.11525278639E+01  0.40265682005E+02  0.00000000000E+00 0.  1.
          2    1    1    2  501    0  0.11180571536E+03 -0.63178992609E+02 -0.43645835279E+03  0.45495933534E+03  0.00000000000E+00 0.  1.
<scales pt_clust_3="82.37370" pt_clust_4="14000.00000" pt_clust_5="40.24918" pt_clust_6="121.12133"></scales>
<clustering>
<clus scale="   40.249">  1  5  2 -1</clus>
<clus scale="   82.374">  2  3  1 -1</clus>
<clus scale="  121.121">  2  6  1 -1</clus>
<clus scale="   40.249">  1  3  2 -1</clus>
</clustering>
</event>
<event>
 6    0  0.6525019E+002  0.1036370E+03  0.7546771E-02  0.1272829E+00
          2   -1    0    0  503    0 -0.00000000000E+00  0.00000000000E+00  0.10396391492E+04  0.10396391492E+04  0.00000000000E+00 0. -1.
         21   -1    0    0  501  502  0.00000000000E+00 -0.00000000000E+00 -0.12763144218E+03  0.12763144218E+03  0.00000000000E+00 0. -1.
         21    1    1    2  503  504 -0.21356961433E+02 -0.67540133795E+02  0.34473989713E+03  0.35194230515E+03  0.00000000000E+00 0.  1.
         21    1    1    2  504  505  0.50269517410E+02  0.74427075430E+02  0.16106430104E+02  0.91245991848E+02  0.00000000000E+00 0. -1.
         21    1    1    2  505  502  0.35152885626E+02  0.95011178402E+01 -0.80823146040E+02  0.88647490342E+02  0.00000000000E+00 0. -1.
          2    1    1    2  501    0 -0.64065441603E+02 -0.16388059475E+02  0.63198452580E+03  0.63543480402E+03  0.00000000000E+00 0. -1.
<scales pt_clust_3="103.63699" pt_clust_4="14000.00000" pt_clust_5="36.41424" pt_clust_6="64.66396"></scales>
<clustering>
<clus scale="   36.414">  2  5  1 -1</clus>
<clus scale="   64.664">  1  6  2 -1</clus>
<clus scale="  103.637">  1  3  2 -1</clus>
<clus scale="   36.414">  2  3  1 -1</clus>
</clustering>
</event>
<event>
 6    0  0.6525019E+002  0.7297860E+02  0.7546771E-02  0.1350247E+00
         21   -1    0    0  501  502  0.00000000000E+00  0.00000000000E+00  0.95114243866E+03  0.95114243866E+03  0.00000000000E+00 0.  1.
          1   -1    0    0  505    0 -0.00000000000E+00 -0.00000000000E+00 -0.52140279735E+03  0.52140279735E+03  0.00000000000E+00 0.  1.
         21    1    1    2  503  502 -0.75569794980E+02  0.16218686577E+02  0.83529583065E+03  0.83886409174E+03  0.00000000000E+00 0.  1.
         21    1    1    2  504  503  0.26229840438E+02 -0.68210381238E+02  0.96100140294E+02  0.12073068211E+03  0.00000000000E+00 0.  1.
         21    1    1    2  505  504  0.66581694619E+02  0.24455649779E+02 -0.39963799866E+03  0.40588388837E+03  0.00000000000E+00 0.  1.
          1    1    1    2  501    0 -0.17241740078E+02  0.27536044882E+02 -0.10201833097E+03  0.10706657379E+03  0.00000000000E+00 0.  1.
<scales pt_clust_3="72.97860" pt_clust_4="14000.00000" pt_clust_5="71.41062" pt_clust_6="32.48863"></scales>
<clustering>
<clus scale="   32.489">  2  6  1 -1</clus>
<clus scale="   71.411">  2  5  1 -1</clus>
<clus scale="   72.979">  1  3  2 -1</clus>
<clus scale="   72.979">  1  3  2 -1</clus>
</clustering>
</event>
<event>
 6    0  0.6525019E+002  0.1078372E+03  0.7546771E-02  0.1264628E+00
          1   -1    0    0  505    0 -0.00000000000E+00  0.00000000000E+00  0.22975497294E+04  0.22975497294E+04  0.00000000000E+00 0.  1.
         21   -1    0    0  503  502  0.00000000000E+00 -0.00000000000E+00 -0.13934437104E+03  0.13934437104E+03  0.00000000000E+00 0. -1.
         21    1    1    2  503  501  0.94303124783E+01 -0.12701864520E+03 -0.28861704725E+02  0.13059733926E+03  0.00000000000E+00 0. -1.
         21    1    1    2  504  502  0.69548514352E+02  0.58965348278E+02  0.12392730223E+03  0.15385670081E+03  0.00000000000E+00 0. -1.
         21    1    1    2  505  504 -0.11747277767E+03 -0.32531824898E+02  0.42737216572E+02  0.12916904740E+03  0.00000000000E+00 0. -1.
          1    1    1    2  501    0  0.38493950842E+02  0.10058512182E+03  0.20204025442E+04  0.20232710129E+04  0.00000000000E+00 0.  1.
<scales pt_clust_3="14000.00000" pt_clust_4="91.18063" pt_clust_5="94.08216" pt_clust_6="107.83717"></scales>
<clustering>
<clus scale="   91.181">  2  4  1 -1</clus>
<clus scale="   94.082">  2  5  1 -1</clus>
<clus scale="  107.837">  1  6  2 -1</clus>
<clus scale="   91.181">  2  3  1 -1</clus>
</clustering>
</event>
<event>
 6    0  0.6525019E+002  0.9420581E+02  0.7546771E-02  0.1292975E+00
         21   -1    0    0  504  502  0.00000000000E+00  0.00000000000E+00  0.34790273178E+03  0.34790273178E+03  0.00000000000E+00 0. -1.
          2   -1    0    0  505    0 -0.00000000000E+00 -0.00000000000E+00 -0.28313692570E+04  0.28313692570E+04  0.00000000000E+00 0.  1.
         21    1    1    2  503  501 -0.22724411145E+02  0.84149616933E+02  0.24475043237E+02  0.90534991209E+02  0.00000000000E+00 0. -1.
         21    1    1    2  504  503  0.27391519190E+02  0.20962054762E+02  0.28249071690E+03  0.28458866492E+03  0.00000000000E+00 0. -1.
         21    1    1    2  505  502  0.37414692969E+02 -0.61163867009E+02 -0.19116378462E+03  0.20416775071E+03  0.00000000000E+00 0.  1.
          2    1    1    2  501    0 -0.42081801013E+02 -0.43947804685E+02 -0.25992685008E+04  0.25999805820E+04  0.00000000000E+00 0.  1.
<scales pt_clust_3="14000.00000" pt_clust_4="34.49207" pt_clust_5="94.20581" pt_clust_6="60.65789"></scales>
<clustering>
<clus scale="   34.492">  1  4  2 -1</clus>
<clus scale="   60.658">  2  6  1 -1</clus>
<clus scale="   94.206">  2  5  1 -1</clus>
<clus scale="   34.492">  1  3  2 -1</clus>
</clustering>
</event>
<event>
 6    0  0.6525019E+002  0.7733514E+02  0.7546771E-02  0.1336789E+00
         21   -1    0    0  505  502  0.00000000000E+00  0.00000000000E+00  0.67323080123E+02  0.67323080123E+02  0.00000000000E+00 0. -1.
          2   -1    0    0  503    0 -0.00000000000E+00 -0.00000000000E+00 -0.12737423959E+04  0.12737423959E+04  0.00000000000E+00 0. -1.
         21    1    1    2  503  502 -0.78004228008E+02 -0.71527840853E+02 -0.35103635848E+03  0.36664344611E+03  0.00000000000E+00 0.  1.
         21    1    1    2  504  501  0.34454069047E+02  0.14064052902E+02 -0.76330192609E+02  0.84918659679E+02  0.00000000000E+00 0.  1.
         21    1    1    2  505  504  0.68005649914E+02  0.32937192410E+02  0.28832440991E+02  0.80876057753E+02  0.00000000000E+00 0. -1.
          2    1    1    2  501    0 -0.24455490953E+02  0.24526595541E+02 -0.80788520567E+03  0.80862731246E+03  0.00000000000E+00 0. -1.
<scales pt_clust_3="14000.00000" pt_clust_4="35.33382" pt_clust_5="77.33514" pt_clust_6="34.63560"></scales>
<clustering>
<clus scale="   34.636">  2  6  1 -1</clus>
<clus scale="   35.334">  2  4  1 -1</clus>
<clus scale="   77.335">  1  5  2 -1</clus>
<clus scale="   77.335">  1  3  2 -1</clus>
</clustering>
</event>
<event>
 6    0  0.6525019E+002  0.8856744E+02  0.7546771E-02  0.1306358E+00
         21   -1    0    0  504  502  0.00000000000E+00  0.00000000000E+00  0.47983122042E+03  0.47983122042E+03  0.00000000000E+00 0.  1.
         -3   -1    0    0    0  501 -0.00000000000E+00 -0.00000000000E+00 -0.31121678552E+03  0.31121678552E+03  0.00000000000E+00 0.  1.
         21    1    1    2  503  502 -0.79589543934E+02 -0.78136496507E+02  0.39661488373E+03  0.41199899707E+03  0.00000000000E+00 0.  1.
         21    1    1    2  504  505  0.40721455986E+02  0.11420135702E+02  0.11454397906E+02  0.43816203720E+02  0.00000000000E+00 0. -1.
         21    1    1    2  505  501  0.41237373389E+02  0.11900163069E+03 -0.44816674683E+02  0.13368037777E+03  0.00000000000E+00 0.  1.
         -3    1    1    2    0  503 -0.23692854408E+01 -0.52285269886E+02 -0.19463817205E+03  0.20155242737E+03  0.00000000000E+00 0.  1.
<scales pt_clust_3="14000.00000" pt_clust_4="42.29251" pt_clust_5="88.56744" pt_clust_6="52.23851"></scales>
<clustering>
<clus scale="   42.293">  1  4  2 -1</clus>
<clus scale="   52.239">  2  6  1 -1</clus>
<clus scale="   88.567">  2  5  1 -1</clus>
<clus scale="   42.293">  1  3  2 -1</clus>
</clustering>
</event>
<event>
 6    0  0.6525019E+002  0.1841355E+03  0.7546771E-02  0.1163860E+00
         -3   -1    0    0    0  501 -0.00000000000E+00  0.00000000000E+00  0.91757147994E+02  0.91757147994E+02  0.00000000000E+00 0.  1.
         21   -1    0    0  505  502  0.00000000000E+00 -0.00000000000E+00 -0.15269277496E+04  0.15269277496E+04  0.00000000000E+00 0. -1.
         21    1    1    2  503  501 -0.27701571466E+02  0.45666080063E+02 -0.19071626513E+03  0.19805418884E+03  0.00000000000E+00 0. -1.
         21    1    1    2  504  502  0.11902197756E+03 -0.10742471423E+03 -0.86356532323E+03  0.87832304299E+03  0.00000000000E+00 0. -1.
         21    1    1    2  505  503 -0.14829838547E+03  0.67731873130E+02 -0.43435516025E+03  0.46394441801E+03  0.00000000000E+00 0. -1.
         -3    1    1    2    0  504  0.56977979378E+02 -0.59732389655E+01  0.53466147022E+02  0.78363247732E+02  0.00000000000E+00 0.  1.
<scales pt_clust_3="34.78203" pt_clust_4="173.81911" pt_clust_5="34.78203" pt_clust_6="57.29022"></scales>
<clustering>
<clus scale="   34.782">  3  5 -1 -1</clus>
<clus scale="   57.290">  1  6  2 -1</clus>
<clus scale="  173.819">  2  4  1 -1</clus>
<clus scale="  173.819">  2  3  1 -1</clus>
</clustering>
</event>
<event>
 6    0  0.6525019E+002  0.1300283E+03  0.7546771E-02  0.1227414E+00
          3   -1    0    0  505    0 -0.00000000000E+00  0.00000000000E+00  0.39603541564E+03  0.39603541564E+03  0.00000000000E+00 0. -1.
         21   -1    0    0  503  502  0.00000000000E+00 -0.00000000000E+00 -0.69962146166E+03  0.69962146166E+03  0.00000000000E+00 0.  1.
         21    1    1    2  503  504  0.78653979880E+01 -0.32849604768E+02 -0.13248812562E+02  0.36283495604E+02  0.00000000000E+00 0.  1.
         21    1    1    2  504  501  0.58618658271E+02  0.26499490022E+02 -0.84183082258E+02  0.10594886223E+03  0.00000000000E+00 0. -1.
         21    1    1    2  505  502  0.47416139687E+02 -0.58857233783E+02 -0.56567236237E+03  0.57069929544E+03  0.00000000000E+00 0.  1.
          3    1    1    2  501    0 -0.11390019595E+03  0.65207348529E+02  0.35951821118E+03  0.38272522403E+03  0.00000000000E+00 0. -1.
<scales pt_clust_3="33.77811" pt_clust_4="63.60548" pt_clust_5="14000.00000" pt_clust_6="130.02831"></scales>
<clustering>
<clus scale="   33.778">  2  3  1 -1</clus>
<clus scale="   63.605">  2  4  1 -1</clus>
<clus scale="  130.028">  1  6  2 -1</clus>
<clus scale="   33.778">  2  3  1 -1</clus>
</clustering>
</event>
<event>
 6    0  0.6525019E+002  0.7832359E+02  0.7546771E-02  0.1333877E+00
         21   -1    0    0  504  502  0.00000000000E+00  0.00000000000E+00  0.49296770176E+03  0.49296770176E+03  0.00000000000E+00 0.  1.
          2   -1    0    0  505    0 -0.00000000000E+00 -0.00000000000E+00 -0.25837257628E+04  0.25837257628E+04  0.00000000000E+00 0. -1.
         21    1    1    2  503  502  0.91392804987E+02 -0.50560966498E+00  0.35460360665E+03  0.36619205111E+03  0.00000000000E+00 0.  1.
         21    1    1    2  504  501 -0.46511405612E+02 -0.53360835463E+02  0.97792129070E+02  0.12072278211E+03  0.00000000000E+00 0.  1.
         21    1    1    2  505  503 -0.26497852802E+01  0.75535800712E+02 -0.38771407962E+02  0.84946457410E+02  0.00000000000E+00 0.  1.
          2    1    1    2  501    0 -0.42231614095E+02 -0.21669355583E+02 -0.25043823888E+04  0.25048321739E+04  0.00000000000E+00 0. -1.
<scales pt_clust_3="78.32359" pt_clust_4="14000.00000" pt_clust_5="68.59635" pt_clust_6="47.46652"></scales>
<clustering>
<clus scale="   47.467">  2  6  1 -1</clus>
<clus scale="   68.596">  2  5  1 -1</clus>
<clus scale="   78.324">  1  3  2 -1</clus>
<clus scale="   78.324">  1  3  2 -1</clus>
</clustering>
</event>
<event>
 6    0  0.6525019E+002  0.1239942E+03  0.7546771E-02  0.1236650E+00
         21   -1    0    0  503  502  0.00000000000E+00  0.00000000000E+00  0.49593615851E+03  0.49593615851E+03  0.00000000000E+00 0. -1.
          2   -1    0    0  504    0 -0.00000000000E+00 -0.00000000000E+00 -0.37004142725E+04  0.37004142725E+04  0.00000000000E+00 0.  1.
         21    1    1    2  503  501 -0.36205406435E+02  0.40501803141E+02  0.20409713123E+03  0.21120337708E+03  0.00000000000E+00 0. -1.
         21    1    1    2  504  505  0.76654423059E+02  0.11031143297E+03  0.55003054603E+02  0.14515456877E+03  0.00000000000E+00 0. -1.
         21    1    1    2  505  502  0.60768468712E+02 -0.79235492490E+02  0.17383158584E+03  0.20047067191E+03  0.00000000000E+00 0. -1.
          2    1    1    2  501    0 -0.10121748534E+03 -0.71577743621E+02 -0.36374098857E+04  0.36395218133E+04  0.00000000000E+00 0.  1.
<scales pt_clust_3="54.32520" pt_clust_4="14000.00000" pt_clust_5="64.74198" pt_clust_6="123.99419"></scales>
<clustering>
<clus scale="   54.325">  1  3  2 -1</clus>
<clus scale="   64.742">  1  5  2 -1</clus>
<clus scale="  123.994">  2  6  1 -1</clus>
<clus scale="   54.325">  1  3  2 -1</clus>
</clustering>
</event>
<event>
 6    0  0.6525019E+002  0.1239116E+03  0.7546771E-02  0.1236780E+00
         21   -1    0    0  505  502  0.00000000000E+00  0.00000000000E+00  0.10114100861E+04  0.10114100861E+04  0.00000000000E+00 0. -1.
          1   -1    0    0  503    0 -0.00000000000E+00 -0.00000000000E+00 -0.89618503275E+03  0.89618503275E+03  0.00000000000E+00 0.  1.
         21    1    1    2  503  504  0.77418485350E+02 -0.37176900054E+02 -0.21383770843E+03  0.23043938317E+03  0.00000000000E+00 0. -1.
         21    1    1    2  504  502 -0.15762218902E+02  0.97932503818E+02  0.54187592316E+03  0.55087996782E+03  0.00000000000E+00 0. -1.
         21    1    1    2  505  501 -0.94055407886E+02 -0.31283076319E+02  0.45062277861E+03  0.46139564282E+03  0.00000000000E+00 0. -1.
          1    1    1    2  501    0  0.32399141438E+02 -0.29472527445E+02 -0.66343593997E+03  0.66488012505E+03  0.00000000000E+00 0.  1.
<scales pt_clust_3="14000.00000" pt_clust_4="98.52980" pt_clust_5="123.91160" pt_clust_6="43.79879"></scales>
<clustering>
<clus scale="   43.799">  2  6  1 -1</clus>
<clus scale="   98.530">  1  4  2 -1</clus>
<clus scale="  123.912">  1  5  2 -1</clus>
<clus scale="   98.530">  1  3  2 -1</clus>
</clustering>
</event>
<event>
 6    0  0.6525019E+002  0.1162251E+03  0.7546771E-02  0.1249458E+00
          2   -1    0    0  505    0 -0.00000000000E+00  0.00000000000E+00  0.10071883270E+04  0.10071883270E+04  0.00000000000E+00 0. -1.
         21   -1    0    0  504  502  0.00000000000E+00 -0.00000000000E+00 -0.19676729823E+03  0.19676729823E+03  0.00000000000E+00 0. -1.
         21    1    1    2  503  502  0.21496647012E+02 -0.25125531427E+02 -0.40688153821E+02  0.52430182373E+02  0.00000000000E+00 0. -1.
         21    1    1    2  504  501 -0.16140537312E+02  0.11882109912E+03 -0.10764825568E+03  0.16114315837E+03  0.00000000000E+00 0. -1.
         21    1    1    2  505  503 -0.36420250568E+02  0.18228877438E+02  0.21689744714E+02  0.46142947997E+02  0.00000000000E+00 0. -1.
          2    1    1    2  501    0  0.31064140869E+02 -0.11192444513E+03  0.93706769360E+03  0.94423933653E+03  0.00000000000E+00 0. -1.
<scales pt_clust_3="33.06657" pt_clust_4="14000.00000" pt_clust_5="38.26166" pt_clust_6="116.22508"></scales>
<clustering>
<clus scale="   33.067">  2  3  1 -1</clus>
<clus scale="   38.262">  2  5  1 -1</clus>
<clus scale="  116.225">  1  6  2 -1</clus>
<clus scale="   33.067">  2  3  1 -1</clus>
</clustering>
</event>
<event>
 6    0  0.6525019E+002  0.9063236E+02  0.7546771E-02  0.1301328E+00
         21   -1    0    0  504  502  0.00000000000E+00  0.00000000000E+00  0.15023852194E+03  0.15023852194E+03  0.00000000000E+00 0. -1.
          1   -1    0    0  505    0 -0.00000000000E+00 -0.00000000000E+00 -0.34400200954E+04  0.34400200954E+04  0.00000000000E+00 0.  1.
         21    1    1    2  503  502 -0.58529049254E+01  0.67601506896E+02  0.96732848138E+02  0.11815863972E+03  0.00000000000E+00 0. -1.
         21    1    1    2  504  501  0.37018808735E+02  0.17994645872E+02  0.27214815643E+02  0.49344155386E+02  0.00000000000E+00 0. -1.
         21    1    1    2  505  503  0.58334556154E+02  0.44553537254E+02 -0.57976790944E+03  0.58439607026E+03  0.00000000000E+00 0. -1.
          1    1    1    2  501    0 -0.89500459965E+02 -0.13014969002E+03 -0.28339613278E+04  0.28383597519E+04  0.00000000000E+00 0.  1.
<scales pt_clust_3="90.63236" pt_clust_4="41.16065" pt_clust_5="74.23659" pt_clust_6="14000.00000"></scales>
<clustering>
<clus scale="   41.161">  1  4  2 -1</clus>
<clus scale="   74.237">  2  5  1 -1</clus>
<clus scale="   90.632">  1  3  2 -1</clus>
<clus scale="   41.161">  1  3  2 -1</clus>
</clustering>
</event>
<event>
 6    0  0.6525019E+002  0.7660418E+02  0.7546771E-02  0.1338974E+00
         21   -1    0    0  504  502  0.00000000000E+00  0.00000000000E+00  0.53922138900E+02  0.53922138900E+02  0.00000000000E+00 0.  1.
          2   -1    0    0  503    0 -0.00000000000E+00 -0.00000000000E+00 -0.25624500356E+04  0.25624500356E+04  0.00000000000E+00 0.  1.
         21    1    1    2  503  505  0.26858164190E+01 -0.71420568078E+02 -0.17552779003E+03  0.18952075408E+03  0.00000000000E+00 0.  1.
         21    1    1    2  504  501  0.41596348620E+02 -0.55802963115E+02 -0.28546318829E+02  0.75227117648E+02  0.00000000000E+00 0.  1.
         21    1    1    2  505  502 -0.76476541396E+02  0.56421089864E+02 -0.75666005774E+02  0.12147981394E+03  0.00000000000E+00 0.  1.
          2    1    1    2  501    0  0.32194376357E+02  0.70802441329E+02 -0.22287877821E+04  0.22301444889E+04  0.00000000000E+00 0.  1.
<scales pt_clust_3="14000.00000" pt_clust_4="69.60048" pt_clust_5="47.61989" pt_clust_6="76.60418"></scales>
<clustering>
<clus scale="   69.600">  1  4  2 -1</clus>
<clus scale="   47.620">  1  5  2 -1</clus>
<clus scale="   76.604">  2  6  1 -1</clus>
<clus scale="   69.600">  1  3  2 -1</clus>
</clustering>
</event>
<event>
 6    0  0.6525019E+002  0.9739609E+02  0.7546771E-02  0.1285869E+00
         21   -1    0    0  503  502  0.00000000000E+00  0.00000000000E+00  0.64538733986E+03  0.64538733986E+03  0.00000000000E+00 0. -1.
          2   -1    0    0  502    0 -0.00000000000E+00 -0.00000000000E+00 -0.75261054794E+03  0.75261054794E+03  0.00000000000E+00 0. -1.
         21    1    1    2  503  504 -0.59917415734E+02 -0.68703273401E+01  0.58318493814E+03  0.58629512209E+03  0.00000000000E+00 0. -1.
         21    1    1    2  504  505  0.48070980767E+02  0.86438298956E+02 -0.68428091894E+02  0.12026970724E+03  0.00000000000E+00 0. -1.
         21    1    1    2  505  501 -0.62024323260E+02 -0.79653668625E+02 -0.46355801154E+02  0.11108818075E+03  0.00000000000E+00 0. -1.
          2    1    1    2  501    0  0.73870758227E+02  0.85697009467E-01 -0.57562425317E+03  0.58034487773E+03  0.00000000000E+00 0. -1.
<scales pt_clust_3="60.31002" pt_clust_4="97.39609" pt_clust_5="14000.00000" pt_clust_6="71.53908"></scales>
<clustering>
<clus scale="   60.310">  1  3  2 -1</clus>
<clus scale="   71.539">  2  6  1 -1</clus>
<clus scale="   97.396">  1  4  2 -1</clus>
<clus scale="   60.310">  1  3  2 -1</clus>
</clustering>
</event>
<event>
 6    0  0.6525019E+002  0.1117337E+03  0.7546771E-02  0.1257393E+00
         21   -1    0    0  504  502  0.00000000000E+00  0.00000000000E+00  0.11985540143E+03  0.11985540143E+03  0.00000000000E+00 0. -1.
          2   -1    0    0  505    0 -0.00000000000E+00 -0.00000000000E+00 -0.21207036924E+03  0.21207036924E+03  0.00000000000E+00 0. -1.
         21    1    1    2  503  501  0.23312828860E+02  0.42789314322E+02 -0.88815477950E+02  0.10130450401E+03  0.00000000000E+00 0. -1.
         21    1    1    2  504  503 -0.87680722475E+01  0.33916787511E+02  0.37952805698E+02  0.51649230646E+02  0.00000000000E+00 0. -1.
         21    1    1    2  505  502 -0.47855655734E+01 -0.12318255539E+03 -0.13741956234E+02  0.12403904608E+03  0.00000000000E+00 0. -1.
          2    1    1    2  501    0 -0.97591910394E+01  0.46476453559E+02 -0.27610339327E+02  0.54932989932E+02  0.00000000000E+00 0. -1.
<scales pt_clust_3="50.54024" pt_clust_4="35.03181" pt_clust_5="98.90057" pt_clust_6="50.54024"></scales>
<clustering>
<clus scale="   35.032">  1  4  2 -1</clus>
<clus scale="   50.540">  3  6 -1 -1</clus>
<clus scale="   98.901">  1  5  2 -1</clus>
<clus scale="   35.032">  1  3  2 -1</clus>
</clustering>
</event>
<event>
 6    0  0.6525019E+002  0.6785622E+02  0.7546771E-02  0.1367539E+00
         21   -1    0    0  504  502  0.00000000000E+00  0.00000000000E+00  0.47911494541E+03  0.47911494541E+03  0.00000000000E+00 0. -1.
          2   -1    0    0  503    0 -0.00000000000E+00 -0.00000000000E+00 -0.99239828831E+03  0.99239828831E+03  0.00000000000E+00 0. -1.
         21    1    1    2  503  505 -0.52857941064E+02  0.61749846407E+02 -0.57139275943E+02  0.99357447230E+02  0.00000000000E+00 0.  1.
         21    1    1    2  504  501 -0.41148168771E+02  0.76387939294E+01  0.92043746971E+02  0.10111169231E+03  0.00000000000E+00 0. -1.
         21    1    1    2  505  502  0.26461813175E+02 -0.59926971881E+02  0.35716646141E+03  0.36312442864E+03  0.00000000000E+00 0. -1.
          2    1    1    2  501    0  0.67544296660E+02 -0.94616684546E+01 -0.90535427535E+03  0.90791966554E+03  0.00000000000E+00 0. -1.
<scales pt_clust_3="14000.00000" pt_clust_4="41.85120" pt_clust_5="54.14570" pt_clust_6="67.85622"></scales>
<clustering>
<clus scale="   41.851">  1  4  2 -1</clus>
<clus scale="   54.146">  1  5  2 -1</clus>
<clus scale="   67.856">  2  6  1 -1</clus>
<clus scale="   41.851">  1  3  2 -1</clus>
</clustering>
</event>
<event>
 6    0  0.6525019E+002  0.9194381E+02  0.7546771E-02  0.1298212E+00
          1   -1    0    0  504    0 -0.00000000000E+00  0.00000000000E+00  0.40160943542E+03  0.40160943542E+03  0.00000000000E+00 0. -1.
         21   -1    0    0  503  502  0.00000000000E+00 -0.00000000000E+00 -0.50686540181E+03  0.50686540181E+03  0.00000000000E+00 0. -1.
         21    1    1    2  503  505  0.70793093890E+02 -0.51513020809E+02 -0.20844400899E+03  0.22608440535E+03  0.00000000000E+00 0. -1.
         21    1    1    2  504  502  0.18209187326E+02  0.27350921719E+02 -0.12001703673E+03  0.12443366316E+03  0.00000000000E+00 0. -1.
         21    1    1    2  505  501 -0.77817058864E+02  0.61289875187E+02 -0.15163203496E+03  0.18111934595E+03  0.00000000000E+00 0. -1.
          1    1    1    2  501    0 -0.11185222352E+02 -0.37127776098E+02  0.37483711429E+03  0.37683742278E+03  0.00000000000E+00 0. -1.
<scales pt_clust_3="14000.00000" pt_clust_4="32.85799" pt_clust_5="91.94381" pt_clust_6="38.69429"></scales>
<clustering>
<clus scale="   32.858">  2  4  1 -1</clus>
<clus scale="   38.694">  1  6  2 -1</clus>
<clus scale="   91.944">  1  5  2 -1</clus>
<clus scale="   32.858">  2  3  1 -1</clus>
</clustering>
</event>
<event>
 6    0  0.6525019E+002  0.3282385E+03  0.7546771E-02  0.1071919E+00
          2   -1    0    0  503    0 -0.00000000000E+00  0.00000000000E+00  0.19056348852E+04  0.19056348852E+04  0.00000000000E+00 0.  1.
         21   -1    0    0  505  502  0.00000000000E+00 -0.00000000000E+00 -0.23720230786E+03  0.23720230786E+03  0.00000000000E+00 0.  1.
         21    1    1    2  503  502  0.14825866254E+02  0.37497559082E+03  0.22487425566E+02  0.37594172997E+03  0.00000000000E+00 0.  1.
         21    1    1    2  504  501 -0.12497644689E+03 -0.21991994022E+03  0.49712987816E+03  0.55778311927E+03  0.00000000000E+00 0.  1.
         21    1    1    2  505  504  0.11145280752E+03 -0.21099526235E+02  0.98327614924E+02  0.15011741461E+03  0.00000000000E+00 0.  1.
          2    1    1    2  501    0 -0.13022268888E+01 -0.13395612437E+03  0.10504876587E+04  0.10589949292E+04  0.00000000000E+00 0.  1.
<scales pt_clust_3="14000.00000" pt_clust_4="328.23854" pt_clust_5="113.43244" pt_clust_6="134.38416"></scales>
<clustering>
<clus scale="  113.432">  2  5  1 -1</clus>
<clus scale="  134.384">  1  6  2 -1</clus>
<clus scale="  328.239">  1  4  2 -1</clus>
<clus scale="  113.432">  2  3  1 -1</clus>
</clustering>
</event>
<event>
 6    0  0.6525019E+002  0.1377601E+03  0.7546771E-02  0.1216375E+00
         21   -1    0    0  503  502  0.00000000000E+00  0.00000000000E+00  0.25971561584E+03  0.25971561584E+03  0.00000000000E+00 0. -1.
          1   -1    0    0  504    0 -0.00000000000E+00 -0.00000000000E+00 -0.94623865646E+03  0.94623865646E+03  0.00000000000E+00 0. -1.
         21    1    1    2  503  501 -0.23546331392E+01  0.52657373064E+02  0.16333962688E+03  0.17163384557E+03  0.00000000000E+00 0. -1.
         21    1    1    2  504  505 -0.11681714356E+03 -0.80700460733E+02 -0.56455691292E+03  0.58213685446E+03  0.00000000000E+00 0. -1.
         21    1    1    2  505  502  0.14216921630E+03 -0.63959112496E+02 -0.46763972622E+01  0.15596385102E+03  0.00000000000E+00 0. -1.
          1    1    1    2  501    0 -0.22997439598E+02  0.92002200165E+02 -0.28062935733E+03  0.29621972125E+03  0.00000000000E+00 0. -1.
<scales pt_clust_3="52.70999" pt_clust_4="14000.00000" pt_clust_5="137.76006" pt_clust_6="99.20291"></scales>
<clustering>
<clus scale="   52.710">  1  3  2 -1</clus>
<clus scale="   99.203">  2  6  1 -1</clus>
<clus scale="  137.760">  1  5  2 -1</clus>
<clus scale="   52.710">  1  3  2 -1</clus>
</clustering>
</event>
<event>
 6    0  0.6525019E+002  0.5431443E+02  0.7546771E-02  0.1423369E+00
         21   -1    0    0  504  502  0.00000000000E+00  0.00000000000E+00  0.84982575841E+02  0.84982575841E+02  0.00000000000E+00 0.  1.
          2   -1    0    0  503    0 -0.00000000000E+00 -0.00000000000E+00 -0.33865029760E+04  0.33865029760E+04  0.00000000000E+00 0. -1.
         21    1    1    2  503  502  0.23466355553E+01 -0.44297128782E+02 -0.68802323131E+02  0.81862702038E+02  0.00000000000E+00 0.  1.
         21    1    1    2  504  505 -0.39412479915E+02 -0.88415085175E+01  0.31628191505E+02  0.51301640752E+02  0.00000000000E+00 0. -1.
         21    1    1    2  505  501  0.49219451647E+02  0.10569743290E+03 -0.55691827182E+02  0.12921331726E+03  0.00000000000E+00 0.  1.
          2    1    1    2  501    0 -0.12153607287E+02 -0.52558795599E+02 -0.32086544414E+04  0.32091078918E+04  0.00000000000E+00 0. -1.
<scales pt_clust_3="45.76314" pt_clust_4="40.39203" pt_clust_5="14000.00000" pt_clust_6="54.31443"></scales>
<clustering>
<clus scale="   40.392">  1  4  2 -1</clus>
<clus scale="   45.763">  1  3  2 -1</clus>
<clus scale="   54.314">  2  6  1 -1</clus>
<clus scale="   40.392">  1  3  2 -1</clus>
</clustering>
</event>
<event>
 6    0  0.6525019E+002  0.1536103E+03  0.7546771E-02  0.1196106E+00
         21   -1    0    0  501  502  0.00000000000E+00  0.00000000000E+00  0.32981221454E+03  0.32981221454E+03  0.00000000000E+00 0.  1.
          1   -1    0    0  504    0 -0.00000000000E+00 -0.00000000000E+00 -0.98387160894E+03  0.98387160894E+03  0.00000000000E+00 0.  1.
         21    1    1    2  503  505  0.17790627407E+03  0.66767641968E+02  0.71736666695E+02  0.20311255431E+03  0.00000000000E+00 0.  1.
         21    1    1    2  504  503 -0.54609499751E+02 -0.62194346476E+02 -0.10448242499E+03  0.13329257792E+03  0.00000000000E+00 0. -1.
         21    1    1    2  505  502 -0.33774492452E+02 -0.12561881969E+02  0.17359978343E+03  0.17730031592E+03  0.00000000000E+00 0.  1.
          1    1    1    2  501    0 -0.89522281869E+02  0.79885864769E+01 -0.79491341953E+03  0.79997837534E+03  0.00000000000E+00 0.  1.
<scales pt_clust_3="153.61032" pt_clust_4="85.74206" pt_clust_5="36.03494" pt_clust_6="14000.00000"></scales>
<clustering>
<clus scale="   36.035">  1  5  2 -1</clus>
<clus scale="   85.742">  2  4  1 -1</clus>
<clus scale="  153.610">  1  3  2 -1</clus>
<clus scale="   36.035">  1  3  2 -1</clus>
</clustering>
</event>
<event>
 6    0  0.6525019E+002  0.1052051E+03  0.7546771E-02  0.1269716E+00
          2   -1    0    0  502    0 -0.00000000000E+00  0.00000000000E+00  0.84897396949E+03  0.84897396949E+03  0.00000000000E+00 0.  1.
         21   -1    0    0  505  502  0.00000000000E+00 -0.00000000000E+00 -0.26140510706E+03  0.26140510706E+03  0.00000000000E+00 0. -1.
         21    1    1    2  503  501 -0.63922507910E+01 -0.89567747648E+02  0.43190217882E+03  0.44113799923E+03  0.00000000000E+00 0. -1.
         21    1    1    2  504  503  0.32372266285E+02  0.65288926365E+02 -0.15031644017E+02  0.74408049647E+02  0.00000000000E+00 0. -1.
         21    1    1    2  505  504  0.34229919553E+02  0.30920923930E+02 -0.20711749592E+03  0.21219200750E+03  0.00000000000E+00 0. -1.
          2    1    1    2  501    0 -0.60209935048E+02 -0.66421026481E+01  0.37781582354E+03  0.38264102018E+03  0.00000000000E+00 0.  1.
<scales pt_clust_3="105.20515" pt_clust_4="14000.00000" pt_clust_5="46.12798" pt_clust_6="58.84440"></scales>
<clustering>
<clus scale="   46.128">  2  5  1 -1</clus>
<clus scale="   58.844">  1  6  2 -1</clus>
<clus scale="  105.205">  1  3  2 -1</clus>
<clus scale="   46.128">  2  3  1 -1</clus>
</clustering>
</event>
<event>
 6    0  0.6525019E+002  0.6689049E+02  0.7546771E-02  0.1370998E+00
         21   -1    0    0  501  502  0.00000000000E+00  0.00000000000E+00  0.23594603145E+04  0.23594603145E+04  0.00000000000E+00 0. -1.
          1   -1    0    0  505    0 -0.00000000000E+00 -0.00000000000E+00 -0.66535394647E+03  0.66535394647E+03  0.00000000000E+00 0. -1.
         21    1    1    2  503  504 -0.31187521689E+02 -0.82623715855E+02  0.45556487863E+03  0.46404600911E+03  0.00000000000E+00 0.  1.
         21    1    1    2  504  502  0.30860340416E+02  0.25658702097E+02  0.18873979538E+04  0.18878246120E+04  0.00000000000E+00 0. -1.
         21    1    1    2  505  503 -0.60488987969E+02  0.73893096796E+02 -0.22520726895E+03  0.24461688700E+03  0.00000000000E+00 0. -1.
          1    1    1    2  501    0  0.60816169242E+02 -0.16928083038E+02 -0.42364919544E+03  0.42832675288E+03  0.00000000000E+00 0. -1.
<scales pt_clust_3="57.63072" pt_clust_4="40.13390" pt_clust_5="14000.00000" pt_clust_6="66.89049"></scales>
<clustering>
<clus scale="   40.134">  1  4  2 -1</clus>
<clus scale="   57.631">  1  3  2 -1</clus>
<clus scale="   66.890">  2  6  1 -1</clus>
<clus scale="   40.134">  1  3  2 -1</clus>
</clustering>
</event>
<event>
 6    0  0.8051174E+002  0.9318737E+02  0.7546771E-02  0.1295312E+00
          2   -1    0    0  505    0 -0.00000000000E+00  0.00000000000E+00  0.22945815717E+04  0.22945815717E+04  0.00000000000E+00 0. -1.
         21   -1    0    0  503  502  0.00000000000E+00 -0.00000000000E+00 -0.76105249035E+03  0.76105249035E+03  0.00000000000E+00 0.  1.
         21    1    1    2  503  501  0.34329828630E+01 -0.71823263579E+02  0.25014718128E+02  0.76132139635E+02  0.00000000000E+00 0. -1.
         21    1    1    2  504  502 -0.84445281731E+02  0.11780787716E+03 -0.72592026253E+03  0.74024990989E+03  0.00000000000E+00 0.  1.
         21    1    1    2  505  504  0.21482950591E+02  0.30606145343E+02  0.29023710195E+03  0.29263600025E+03  0.00000000000E+00 0. -1.
          2    1    1    2  501    0  0.59529348277E+02 -0.76590758920E+02  0.19441975238E+04  0.19466160123E+04  0.00000000000E+00 0. -1.
<scales pt_clust_3="71.16168" pt_clust_4="14000.00000" pt_clust_5="37.39323" pt_clust_6="93.18737"></scales>
<clustering>
<clus scale="   37.393">  1  5  2 -1</clus>
<clus scale="   71.162">  2  3  1 -1</clus>
<clus scale="   93.187">  1  6  2 -1</clus>
<clus scale="   71.162">  2  3  1 -1</clus>
</clustering>
</event>
<event>
 6    0  0.6525019E+002  0.1809799E+03  0.7546771E-02  0.1166858E+00
         -4   -1    0    0    0  501 -0.00000000000E+00  0.00000000000E+00  0.64601418501E+03  0.64601418501E+03  0.00000000000E+00 0. -1.
         21   -1    0    0  503  502  0.00000000000E+00 -0.00000000000E+00 -0.16139034673E+03  0.16139034673E+03  0.00000000000E+00 0.  1.
         21    1    1    2  503  501 -0.59363661059E+01  0.30873053264E+02 -0.65982880480E+02  0.73089851394E+02  0.00000000000E+00 0.  1.
         21    1    1    2  504  502  0.15854766552E+03  0.52630258179E+02  0.14105510692E+02  0.16764925216E+03  0.00000000000E+00 0.  1.
         21    1    1    2  505  504 -0.12098040159E+03 -0.52135659753E+02  0.32815520015E+03  0.35361026564E+03  0.00000000000E+00 0. -1.
         -4    1    1    2    0  505 -0.31630897826E+02 -0.31367651690E+02  0.20834600792E+03  0.21305516254E+03  0.00000000000E+00 0. -1.
<scales pt_clust_3="31.43860" pt_clust_4="172.45455" pt_clust_5="31.86604" pt_clust_6="31.86604"></scales>
<clustering>
<clus scale="   31.439">  2  3  1 -1</clus>
<clus scale="   31.866">  5  6 -1 -1</clus>
<clus scale="  172.455">  2  4  1 -1</clus>
<clus scale="   31.439">  2  3  1 -1</clus>
</clustering>
</event>
<event>
 6    0  0.6525019E+002  0.8355086E+02  0.7546771E-02  0.1319266E+00
          2   -1    0    0  503    0 -0.00000000000E+00  0.00000000000E+00  0.21032081258E+04  0.21032081258E+04  0.00000000000E+00 0. -1.
         21   -1    0    0  504  502  0.00000000000E+00 -0.00000000000E+00 -0.62301760269E+02  0.62301760269E+02  0.00000000000E+00 0. -1.
         21    1    1    2  503  505  0.36762380899E+02 -0.22915670907E+02  0.10200695380E+03  0.11082427192E+03  0.00000000000E+00 0. -1.
         21    1    1    2  504  501 -0.20964637543E+02  0.10316864551E+03  0.26528624963E+03  0.28541212253E+03  0.00000000000E+00 0. -1.
         21    1    1    2  505  502 -0.31094976443E+02 -0.23776844165E+00 -0.41705121770E+02  0.52021834605E+02  0.00000000000E+00 0. -1.
          2    1    1    2  501    0  0.15297233087E+02 -0.80015206158E+02  0.17153182839E+04  0.17172516570E+04  0.00000000000E+00 0. -1.
<scales pt_clust_3="36.13432" pt_clust_4="14000.00000" pt_clust_5="31.09589" pt_clust_6="83.55086"></scales>
<clustering>
<clus scale="   31.096">  2  5  1 -1</clus>
<clus scale="   36.134">  2  3  1 -1</clus>
<clus scale="   83.551">  1  6  2 -1</clus>
<clus scale="   31.096">  2  3  1 -1</clus>
</clustering>
</event>
<event>
 6    0  0.6525019E+002  0.9404202E+02  0.7546771E-02  0.1293348E+00
         -1   -1    0    0    0  501 -0.00000000000E+00  0.00000000000E+00  0.26227871293E+03  0.26227871293E+03  0.00000000000E+00 0. -1.
         21   -1    0    0  504  502  0.00000000000E+00 -0.00000000000E+00 -0.82220879295E+03  0.82220879295E+03  0.00000000000E+00 0. -1.
         21    1    1    2  503  501  0.11954499354E+03  0.33511104749E+02  0.12575907892E+03  0.17671826605E+03  0.00000000000E+00 0. -1.
         21    1    1    2  504  505  0.25361451778E+02 -0.17668367408E+02 -0.58512929345E+03  0.58594510365E+03  0.00000000000E+00 0. -1.
         21    1    1    2  505  503 -0.70903937267E+02  0.60175056140E+01 -0.19047793455E+03  0.20333573774E+03  0.00000000000E+00 0. -1.
         -1    1    1    2    0  502 -0.74002508054E+02 -0.21860242955E+02  0.89918069053E+02  0.11848839843E+03  0.00000000000E+00 0. -1.
<scales pt_clust_3="14000.00000" pt_clust_4="30.90913" pt_clust_5="50.55476" pt_clust_6="94.04202"></scales>
<clustering>
<clus scale="   30.909">  2  4  1 -1</clus>
<clus scale="   50.555">  2  5  1 -1</clus>
<clus scale="   94.042">  1  6  2 -1</clus>
<clus scale="   30.909">  2  3  1 -1</clus>
</clustering>
</event>
<event>
 6    0  0.6620052E+002  0.1203236E+03  0.7546771E-02  0.1242564E+00
          1   -1    0    0  505    0 -0.00000000000E+00  0.00000000000E+00  0.98217853258E+03  0.98217853258E+03  0.00000000000E+00 0.  1.
         21   -1    0    0  504  502  0.00000000000E+00 -0.00000000000E+00 -0.71591951789E+03  0.71591951789E+03  0.00000000000E+00 0. -1.
         21    1    1    2  503  502 -0.32430775460E+02  0.30375197397E+02 -0.53369133442E+03  0.53553790552E+03  0.00000000000E+00 0. -1.
         21    1    1    2  504  501  0.94237033892E+02 -0.48536028094E+02  0.68017628079E+03  0.68838661923E+03  0.00000000000E+00 0.  1.
         21    1    1    2  505  503 -0.57159208254E+02  0.52850033035E+02 -0.16753614049E+03  0.18473943664E+03  0.00000000000E+00 0. -1.
          1    1    1    2  501    0 -0.46470501775E+01 -0.34689202338E+02  0.28731020882E+03  0.28943408908E+03  0.00000000000E+00 0.  1.
<scales pt_clust_3="44.40728" pt_clust_4="14000.00000" pt_clust_5="120.32359" pt_clust_6="34.99908"></scales>
<clustering>
<clus scale="   34.999">  1  6  2 -1</clus>
<clus scale="   44.407">  2  3  1 -1</clus>
<clus scale="  120.324">  2  5  1 -1</clus>
<clus scale="   44.407">  2  3  1 -1</clus>
</clustering>
</event>
<event>
 6    0  0.6525019E+002  0.9329775E+02  0.7546771E-02  0.1295057E+00
         21   -1    0    0  504  502  0.00000000000E+00  0.00000000000E+00  0.48160656587E+02  0.48160656587E+02  0.00000000000E+00 0.  1.
          1   -1    0    0  505    0 -0.00000000000E+00 -0.00000000000E+00 -0.10980080656E+04  0.10980080656E+04  0.00000000000E+00 0.  1.
         21    1    1    2  503  502  0.51202443149E+01  0.58537173178E+02 -0.45934830453E+02  0.74584356230E+02  0.00000000000E+00 0.  1.
         21    1    1    2  504  501  0.70478301514E+02 -0.56450443615E+02 -0.12513847922E+03  0.15431617721E+03  0.00000000000E+00 0.  1.
         21    1    1    2  505  503 -0.79749157155E+02  0.64542100096E+02 -0.13039299851E+03  0.16591547491E+03  0.00000000000E+00 0.  1.
          1    1    1    2  501    0  0.41506113257E+01 -0.66628829658E+02 -0.74838110082E+03  0.75135271383E+03  0.00000000000E+00 0.  1.
<scales pt_clust_3="58.76068" pt_clust_4="14000.00000" pt_clust_5="93.29775" pt_clust_6="64.20759"></scales>
<clustering>
<clus scale="   58.761">  1  3  2 -1</clus>
<clus scale="   64.208">  2  6  1 -1</clus>
<clus scale="   93.298">  2  5  1 -1</clus>
<clus scale="   58.761">  1  3  2 -1</clus>
</clustering>
</event>
<event>
 6    0  0.6525019E+002  0.6912909E+02  0.7546771E-02  0.1363080E+00
          2   -1    0    0  504    0 -0.00000000000E+00  0.00000000000E+00  0.36973386938E+04  0.36973386938E+04  0.00000000000E+00 0. -1.
         21   -1    0    0  501  502  0.00000000000E+00 -0.00000000000E+00 -0.62012901883E+02  0.62012901883E+02  0.00000000000E+00 0.  1.
         21    1    1    2  503  502  0.26300464212E+02 -0.28317788292E+02 -0.47277285144E+02  0.61063518095E+02  0.00000000000E+00 0.  1.
         21    1    1    2  504  505 -0.11056884176E+03  0.21598836674E+02  0.12654122596E+04  0.12704173194E+04  0.00000000000E+00 0. -1.
         21    1    1    2  505  503  0.26136851708E+02  0.28759119008E+02  0.71685018931E+02  0.81541179059E+02  0.00000000000E+00 0. -1.
          2    1    1    2  501    0  0.58131525842E+02 -0.22040167390E+02  0.23455057985E+04  0.23463295792E+04  0.00000000000E+00 0. -1.
<scales pt_clust_3="38.64727" pt_clust_4="69.12909" pt_clust_5="44.05004" pt_clust_6="14000.00000"></scales>
<clustering>
<clus scale="   38.647">  2  3  1 -1</clus>
<clus scale="   44.050">  2  5  1 -1</clus>
<clus scale="   69.129">  2  4  1 -1</clus>
<clus scale="   38.647">  2  3  1 -1</clus>
</clustering>
</event>
<event>
 6    0  0.6525019E+002  0.7654069E+02  0.7546771E-02  0.1339165E+00
         21   -1    0    0  505  502  0.00000000000E+00  0.00000000000E+00  0.20103640506E+04  0.20103640506E+04  0.00000000000E+00 0.  1.
          2   -1    0    0  503    0 -0.00000000000E+00 -0.00000000000E+00 -0.34815136904E+03  0.34815136904E+03  0.00000000000E+00 0. -1.
         21    1    1    2  503  502  0.51822415200E+02 -0.56876958077E+02  0.65828497931E+02  0.10126175101E+03  0.00000000000E+00 0.  1.
         21    1    1    2  504  501 -0.75809450156E+02 -0.35339745511E+01  0.86189400957E+02  0.11483977772E+03  0.00000000000E+00 0.  1.
         21    1    1    2  505  504 -0.36733941825E+02  0.12728007948E+02  0.18213797065E+04  0.18217945603E+04  0.00000000000E+00 0.  1.
          2    1    1    2  501    0  0.60720976781E+02  0.47682924680E+02 -0.31118492385E+03  0.32061933061E+03  0.00000000000E+00 0. -1.
<scales pt_clust_3="62.37670" pt_clust_4="76.54069" pt_clust_5="38.87653" pt_clust_6="14000.00000"></scales>
<clustering>
<clus scale="   38.877">  1  5  2 -1</clus>
<clus scale="   62.377">  1  3  2 -1</clus>
<clus scale="   76.541">  1  4  2 -1</clus>
<clus scale="   38.877">  1  3  2 -1</clus>
</clustering>
</event>
<event>
 6    0  0.6525019E+002  0.2344136E+03  0.7546771E-02  0.1123571E+00
          2   -1    0    0  502    0 -0.00000000000E+00  0.00000000000E+00  0.12433634958E+04  0.12433634958E+04  0.00000000000E+00 0.  1.
         21   -1    0    0  505  502  0.00000000000E+00 -0.00000000000E+00 -0.14385755925E+03  0.14385755925E+03  0.00000000000E+00 0. -1.
         21    1    1    2  503  504 -0.23804343005E+03 -0.84834183211E+01  0.93450264540E+02  0.25587026971E+03  0.00000000000E+00 0. -1.
         21    1    1    2  504  501  0.23844750994E+03  0.58877609457E+02  0.28366073184E+03  0.37521620258E+03  0.00000000000E+00 0. -1.
         21    1    1    2  505  503  0.19308919627E+02 -0.23666033262E+02 -0.23454917458E+01  0.30633590045E+02  0.00000000000E+00 0. -1.
          2    1    1    2  501    0 -0.19712999520E+02 -0.26728157875E+02  0.72474043193E+03  0.72550099272E+03  0.00000000000E+00 0.  1.
<scales pt_clust_3="14000.00000" pt_clust_4="234.41356" pt_clust_5="30.54367" pt_clust_6="33.23416"></scales>
<clustering>
<clus scale="   30.544">  2  5  1 -1</clus>
<clus scale="   33.234">  1  6  2 -1</clus>
<clus scale="  234.414">  1  4  2 -1</clus>
<clus scale="   30.544">  2  3  1 -1</clus>
</clustering>
</event>
<event>
 6    0  0.6525019E+002  0.1229576E+03  0.7546771E-02  0.1238296E+00
          1   -1    0    0  505    0 -0.00000000000E+00  0.00000000000E+00  0.16844398162E+04  0.16844398162E+04  0.00000000000E+00 0.  1.
         21   -1    0    0  504  502  0.00000000000E+00 -0.00000000000E+00 -0.14626116615E+03  0.14626116615E+03  0.00000000000E+00 0.  1.
         21    1    1    2  503  501 -0.13777218763E+03  0.35939034603E+02  0.89544049802E+02  0.16819906880E+03  0.00000000000E+00 0.  1.
         21    1    1    2  504  503  0.61701777890E+02  0.30219260861E+02 -0.83059267338E+02  0.10779218438E+03  0.00000000000E+00 0.  1.
         21    1    1    2  505  502 -0.82914697073E+00  0.30374769447E+02  0.16653025104E+02  0.34650214268E+02  0.00000000000E+00 0.  1.
          1    1    1    2  501    0  0.76899556706E+02 -0.96533064911E+02  0.15150408425E+04  0.15200595149E+04  0.00000000000E+00 0.  1.
<scales pt_clust_3="14000.00000" pt_clust_4="79.82287" pt_clust_5="30.38608" pt_clust_6="122.95760"></scales>
<clustering>
<clus scale="   30.386">  2  5  1 -1</clus>
<clus scale="   79.823">  2  4  1 -1</clus>
<clus scale="  122.958">  1  6  2 -1</clus>
<clus scale="   30.386">  2  3  1 -1</clus>
</clustering>
</event>
<event>
 6    0  0.6525019E+002  0.1418174E+03  0.7546771E-02  0.1210904E+00
         21   -1    0    0  503  502  0.00000000000E+00  0.00000000000E+00  0.23549691248E+04  0.23549691248E+04  0.00000000000E+00 0. -1.
         -3   -1    0    0    0  501 -0.00000000000E+00 -0.00000000000E+00 -0.70600234990E+02  0.70600234990E+02  0.00000000000E+00 0. -1.
         21    1    1    2  503  501 -0.72372593121E+02  0.13911121570E+03  0.12153512141E+04  0.12254257612E+04  0.00000000000E+00 0. -1.
         21    1    1    2  504  505 -0.91371858982E+01 -0.60945715388E+02  0.46107740274E+03  0.46517764317E+03  0.00000000000E+00 0.  1.
         21    1    1    2  505  502  0.24000396450E+02 -0.64279592970E+02  0.65548540479E+03  0.65906676521E+03  0.00000000000E+00 0. -1.
         -3    1    1    2    0  504  0.57509382570E+02 -0.13885907346E+02 -0.47545131864E+02  0.75899190182E+02  0.00000000000E+00 0. -1.
<scales pt_clust_3="137.11846" pt_clust_4="34.31066" pt_clust_5="34.31066" pt_clust_6="59.16204"></scales>
<clustering>
<clus scale="   34.311">  4  5 -1 -1</clus>
<clus scale="   59.162">  2  6  1 -1</clus>
<clus scale="  137.118">  2  3  1 -1</clus>
<clus scale="  141.817">  1  3  2 -1</clus>
</clustering>
</event>
<event>
 6    0  0.6525019E+002  0.6245915E+02  0.7546771E-02  0.1387792E+00
         21   -1    0    0  505  502  0.00000000000E+00  0.00000000000E+00  0.30285953631E+03  0.30285953631E+03  0.00000000000E+00 0.  1.
         -3   -1    0    0    0  501 -0.00000000000E+00 -0.00000000000E+00 -0.58289329913E+03  0.58289329913E+03  0.00000000000E+00 0. -1.
         21    1    1    2  503  504 -0.12299546331E+03  0.10056696621E+01 -0.34355416635E+03  0.36490870171E+03  0.00000000000E+00 0. -1.
         21    1    1    2  504  501  0.27041973273E+02 -0.17576237817E+02 -0.14423587840E+02  0.35330331735E+02  0.00000000000E+00 0.  1.
         21    1    1    2  505  503  0.54352080252E+02  0.29873262788E+02  0.27590598437E+03  0.28279086384E+03  0.00000000000E+00 0.  1.
         -3    1    1    2    0  502  0.41601409783E+02 -0.13302694633E+02 -0.19796199300E+03  0.20272293815E+03  0.00000000000E+00 0. -1.
<scales pt_clust_3="14000.00000" pt_clust_4="32.25201" pt_clust_5="62.45915" pt_clust_6="54.93092"></scales>
<clustering>
<clus scale="   32.252">  2  4  1 -1</clus>
<clus scale="   54.931">  2  6  1 -1</clus>
<clus scale="   62.459">  1  5  2 -1</clus>
<clus scale="   62.459">  1  3  2 -1</clus>
</clustering>
</event>
<event>
 6    0  0.6525019E+002  0.1685672E+03  0.7546771E-02  0.1179350E+00
          2   -1    0    0  502    0 -0.00000000000E+00  0.00000000000E+00  0.13939522401E+04  0.13939522401E+04  0.00000000000E+00 0. -1.
         21   -1    0    0  503  502  0.00000000000E+00 -0.00000000000E+00 -0.28576701409E+04  0.28576701409E+04  0.00000000000E+00 0. -1.
         21    1    1    2  503  504 -0.35130408904E+02  0.46277331188E+02 -0.26248260799E+04  0.26254690413E+04  0.00000000000E+00 0. -1.
         21    1    1    2  504  505 -0.11632602930E+03  0.64334920857E+02 -0.16826895586E+03  0.21444152732E+03  0.00000000000E+00 0.  1.
         21    1    1    2  505  501  0.10391831862E+03 -0.11438976252E+03  0.10599498067E+03  0.18740056201E+03  0.00000000000E+00 0.  1.
          2    1    1    2  501    0  0.47538119576E+02  0.37775104740E+01  0.12233821542E+04  0.12243112503E+04  0.00000000000E+00 0. -1.
<scales pt_clust_3="58.05251" pt_clust_4="14000.00000" pt_clust_5="168.56716" pt_clust_6="47.68797"></scales>
<clustering>
<clus scale="   47.688">  1  6  2 -1</clus>
<clus scale="   58.053">  2  3  1 -1</clus>
<clus scale="  168.567">  1  5  2 -1</clus>
<clus scale="   58.053">  2  3  1 -1</clus>
</clustering>
</event>
<event>
 6    0  0.6525019E+002  0.2258149E+03  0.7546771E-02  0.1129621E+00
         21   -1    0    0  505  502  0.00000000000E+00  0.00000000000E+00  0.27812603536E+03  0.27812603536E+03  0.00000000000E+00 0.  1.
          2   -1    0    0  503    0 -0.00000000000E+00 -0.00000000000E+00 -0.76299571331E+03  0.76299571331E+03  0.00000000000E+00 0.  1.
         21    1    1    2  503  504  0.19746595959E+02  0.19310413873E+03 -0.28882566431E+03  0.34799339191E+03  0.00000000000E+00 0.  1.
         21    1    1    2  504  502  0.10260751951E+03  0.56858005041E+02  0.95886295850E+02  0.15151012352E+03  0.00000000000E+00 0.  1.
         21    1    1    2  505  501 -0.16267118279E+03 -0.26446527812E+03 -0.73560309252E+02  0.31908449687E+03  0.00000000000E+00 0.  1.
          2    1    1    2  501    0  0.40317067324E+02  0.14503134354E+02 -0.21837000024E+03  0.22253373638E+03  0.00000000000E+00 0.  1.
<scales pt_clust_3="225.81489" pt_clust_4="119.47648" pt_clust_5="14000.00000" pt_clust_6="42.84632"></scales>
<clustering>
<clus scale="   42.846">  2  6  1 -1</clus>
<clus scale="  119.476">  1  4  2 -1</clus>
<clus scale="  225.815">  2  3  1 -1</clus>
<clus scale="  119.476">  1  3  2 -1</clus>
</clustering>
</event>
<event>
 6    0  0.6525019E+002  0.1371784E+03  0.7546771E-02  0.1217177E+00
         21   -1    0    0  505  502  0.00000000000E+00  0.00000000000E+00  0.21023098284E+03  0.21023098284E+03  0.00000000000E+00 0.  1.
          2   -1    0    0  503    0 -0.00000000000E+00 -0.00000000000E+00 -0.22531617092E+04  0.22531617092E+04  0.00000000000E+00 0.  1.
         21    1    1    2  503  504  0.64631454403E+02 -0.29169319740E+02 -0.62192302148E+03  0.62595232946E+03  0.00000000000E+00 0.  1.
         21    1    1    2  504  502 -0.28069760034E+01  0.30594165510E+02  0.19128619463E+03  0.19373768434E+03  0.00000000000E+00 0.  1.
         21    1    1    2  505  501 -0.42437548425E+02  0.11882954383E+03 -0.29583374952E+03  0.32161936098E+03  0.00000000000E+00 0.  1.
          2    1    1    2  501    0 -0.19386929975E+02 -0.12025438960E+03 -0.13164601500E+04  0.13220833173E+04  0.00000000000E+00 0.  1.
<scales pt_clust_3="69.25379" pt_clust_4="30.72266" pt_clust_5="14000.00000" pt_clust_6="137.17843"></scales>
<clustering>
<clus scale="   30.723">  1  4  2 -1</clus>
<clus scale="   69.254">  2  3  1 -1</clus>
<clus scale="  137.178">  2  6  1 -1</clus>
<clus scale="   30.723">  1  3  2 -1</clus>
</clustering>
</event>
<event>
 6    0  0.6525019E+002  0.9124884E+02  0.7546771E-02  0.1299855E+00
         21   -1    0    0  504  502  0.00000000000E+00  0.00000000000E+00  0.22473624971E+03  0.22473624971E+03  0.00000000000E+00 0.  1.
          2   -1    0    0  505    0 -0.00000000000E+00 -0.00000000000E+00 -0.17519085376E+04  0.17519085376E+04  0.00000000000E+00 0. -1.
         21    1    1    2  503  501  0.60113273438E+02 -0.65739473225E+02 -0.67566597028E+03  0.68151286663E+03  0.00000000000E+00 0.  1.
         21    1    1    2  504  503  0.35004735801E+02  0.15481340912E+02 -0.40858149390E+01  0.38492821781E+02  0.00000000000E+00 0. -1.
         21    1    1    2  505  502 -0.70661995865E+02  0.68881768677E+02  0.19247089286E+03  0.21629345878E+03  0.00000000000E+00 0.  1.
          2    1    1    2  501    0 -0.24456013374E+02 -0.18623636364E+02 -0.10398913955E+04  0.10403456401E+04  0.00000000000E+00 0. -1.
<scales pt_clust_3="14000.00000" pt_clust_4="37.38171" pt_clust_5="91.24884" pt_clust_6="30.73982"></scales>
<clustering>
<clus scale="   30.740">  2  6  1 -1</clus>
<clus scale="   37.382">  1  4  2 -1</clus>
<clus scale="   91.249">  1  5  2 -1</clus>
<clus scale="   37.382">  1  3  2 -1</clus>
</clustering>
</event>
<event>
 6    0  0.6525019E+002  0.6146022E+02  0.7546771E-02  0.1391804E+00
          2   -1    0    0  504    0 -0.00000000000E+00  0.00000000000E+00  0.52127677964E+03  0.52127677964E+03  0.00000000000E+00 0.  1.
         21   -1    0    0  505  502  0.00000000000E+00 -0.00000000000E+00 -0.80635414811E+02  0.80635414811E+02  0.00000000000E+00 0. -1.
         21    1    1    2  503  502  0.11594952473E+02  0.33518100325E+02  0.60190720415E+01  0.35974090683E+02  0.00000000000E+00 0. -1.
         21    1    1    2  504  503  0.90872175436E+02  0.26727175996E+02  0.10459265948E+03  0.14110888924E+03  0.00000000000E+00 0. -1.
         21    1    1    2  505  501 -0.54258776285E+02 -0.46411397000E+02 -0.17650884603E+02  0.73549889890E+02  0.00000000000E+00 0. -1.
          2    1    1    2  501    0 -0.48208351624E+02 -0.13833879321E+02  0.34768051791E+03  0.35127932464E+03  0.00000000000E+00 0.  1.
<scales pt_clust_3="35.46697" pt_clust_4="61.46022" pt_clust_5="14000.00000" pt_clust_6="49.60154"></scales>
<clustering>
<clus scale="   35.467">  2  3  1 -1</clus>
<clus scale="   49.602">  1  6  2 -1</clus>
<clus scale="   61.460">  1  4  2 -1</clus>
<clus scale="   35.467">  2  3  1 -1</clus>
</clustering>
</event>
<event>
 6    0  0.6525019E+002  0.1187766E+03  0.7546771E-02  0.1245129E+00
          2   -1    0    0  504    0 -0.00000000000E+00  0.00000000000E+00  0.26578968509E+04  0.26578968509E+04  0.00000000000E+00 0.  1.
         21   -1    0    0  505  502  0.00000000000E+00 -0.00000000000E+00 -0.29035222188E+03  0.29035222188E+03  0.00000000000E+00 0.  1.
         21    1    1    2  503  502  0.95568128961E+02  0.18678045589E+02 -0.21678765419E+03  0.23765315834E+03  0.00000000000E+00 0.  1.
         21    1    1    2  504  503 -0.28920258328E+02 -0.22553877978E+02  0.76413030658E+03  0.76500992424E+03  0.00000000000E+00 0.  1.
         21    1    1    2  505  501  0.22031445055E+02 -0.38906544118E+02 -0.53259485207E+02  0.69539028688E+02  0.00000000000E+00 0. -1.
          2    1    1    2  501    0 -0.88679315688E+02  0.42782376506E+02  0.18734614618E+04  0.18760469615E+04  0.00000000000E+00 0.  1.
<scales pt_clust_3="14000.00000" pt_clust_4="36.67504" pt_clust_5="44.73472" pt_clust_6="118.77659"></scales>
<clustering>
<clus scale="   36.675">  1  4  2 -1</clus>
<clus scale="   44.735">  2  5  1 -1</clus>
<clus scale="  118.777">  1  6  2 -1</clus>
<clus scale="   44.735">  2  3  1 -1</clus>
</clustering>
</event>
<event>
 6    0  0.8903670E+002  0.4146952E+03  0.7546771E-02  0.1038807E+00
         21   -1    0    0  505  502  0.00000000000E+00  0.00000000000E+00  0.18205355750E+04  0.18205355750E+04  0.00000000000E+00 0.  1.
          3   -1    0    0  503    0 -0.00000000000E+00 -0.00000000000E+00 -0.18736468054E+04  0.18736468054E+04  0.00000000000E+00 0. -1.
         21    1    1    2  503  502 -0.25826349976E+02 -0.43786494602E+02  0.65192323343E+02  0.82669803952E+02  0.00000000000E+00 0.  1.
         21    1    1    2  504  501 -0.33540152442E+03  0.10633834338E+03  0.14396290560E+04  0.14820033215E+04  0.00000000000E+00 0.  1.
         21    1    1    2  505  504 -0.40468197744E+02 -0.14486864140E+02  0.26182192573E+03  0.26532671380E+03  0.00000000000E+00 0.  1.
          3    1    1    2  501    0  0.40169607214E+03 -0.48064984638E+02 -0.18197545356E+04  0.18641825412E+04  0.00000000000E+00 0. -1.
<scales pt_clust_3="50.83559" pt_clust_4="32.24663" pt_clust_5="32.24663" pt_clust_6="404.30192"></scales>
<clustering>
<clus scale="   32.247">  4  5 -1 -1</clus>
<clus scale="   50.836">  1  3  2 -1</clus>
<clus scale="  404.302">  2  6  1 -1</clus>
<clus scale="   50.836">  1  3  2 -1</clus>
</clustering>
</event>
<event>
 6    0  0.6525019E+002  0.1008167E+03  0.7546771E-02  0.1278588E+00
          1   -1    0    0  505    0 -0.00000000000E+00  0.00000000000E+00  0.12977859939E+04  0.12977859939E+04  0.00000000000E+00 0.  1.
         21   -1    0    0  504  502  0.00000000000E+00 -0.00000000000E+00 -0.87625553285E+02  0.87625553285E+02  0.00000000000E+00 0.  1.
         21    1    1    2  503  501  0.37977611116E+02 -0.29044712738E+02  0.14812266960E+02  0.50052947332E+02  0.00000000000E+00 0.  1.
         21    1    1    2  504  503  0.34323694881E+02 -0.24095919633E+02 -0.48604869315E+02  0.64196282559E+02  0.00000000000E+00 0.  1.
         21    1    1    2  505  502 -0.49273309363E+02 -0.58777082329E+02  0.12687767793E+03  0.14825838789E+03  0.00000000000E+00 0.  1.
          1    1    1    2  501    0 -0.23027996633E+02  0.11191771470E+03  0.11170753650E+04  0.11229039294E+04  0.00000000000E+00 0.  1.
<scales pt_clust_3="71.46312" pt_clust_4="41.93721" pt_clust_5="100.81669" pt_clust_6="14000.00000"></scales>
<clustering>
<clus scale="   41.937">  2  4  1 -1</clus>
<clus scale="   71.463">  2  3  1 -1</clus>
<clus scale="  100.817">  2  5  1 -1</clus>
<clus scale="   41.937">  2  3  1 -1</clus>
</clustering>
</event>
<event>
 6    0  0.6525019E+002  0.7732467E+02  0.7546771E-02  0.1336820E+00
         21   -1    0    0  504  502  0.00000000000E+00  0.00000000000E+00  0.24986443695E+03  0.24986443695E+03  0.00000000000E+00 0. -1.
          2   -1    0    0  505    0 -0.00000000000E+00 -0.00000000000E+00 -0.21540044318E+04  0.21540044318E+04  0.00000000000E+00 0.  1.
         21    1    1    2  503  502  0.19239515400E+02 -0.23522597945E+02  0.80657551777E+02  0.86192297948E+02  0.00000000000E+00 0. -1.
         21    1    1    2  504  501  0.38144964762E+02  0.73933426735E+02  0.14919129906E+03  0.17081930114E+03  0.00000000000E+00 0. -1.
         21    1    1    2  505  503 -0.12069172440E+03 -0.81370113231E+02 -0.98361985132E+03  0.99433173517E+03  0.00000000000E+00 0.  1.
          2    1    1    2  501    0  0.63307244234E+02  0.30959284441E+02 -0.11503689943E+04  0.11525255345E+04  0.00000000000E+00 0.  1.
<scales pt_clust_3="30.38867" pt_clust_4="77.32467" pt_clust_5="14000.00000" pt_clust_6="70.51715"></scales>
<clustering>
<clus scale="   30.389">  1  3  2 -1</clus>
<clus scale="   70.517">  2  6  1 -1</clus>
<clus scale="   77.325">  1  4  2 -1</clus>
<clus scale="   30.389">  1  3  2 -1</clus>
</clustering>
</event>
<event>
 6    0  0.6525019E+002  0.2816906E+03  0.7546771E-02  0.1094769E+00
          2   -1    0    0  505    0 -0.00000000000E+00  0.00000000000E+00  0.28364183801E+04  0.28364183801E+04  0.00000000000E+00 0.  1.
         21   -1    0    0  503  502  0.00000000000E+00 -0.00000000000E+00 -0.10606783343E+04  0.10606783343E+04  0.00000000000E+00 0. -1.
         21    1    1    2  503  501  0.27088982946E+03 -0.65465674642E+02  0.74912166410E+02  0.28858081526E+03  0.00000000000E+00 0. -1.
         21    1    1    2  504  502 -0.26431555230E+02  0.26499129878E+02 -0.63798594934E+03  0.63908286048E+03  0.00000000000E+00 0. -1.
         21    1    1    2  505  504 -0.23754118434E+03  0.11063438619E+03 -0.26028169305E+03  0.36934041399E+03  0.00000000000E+00 0. -1.
          2    1    1    2  501    0 -0.69170898850E+01 -0.71667841428E+02  0.25990955218E+04  0.26000926247E+04  0.00000000000E+00 0.  1.
<scales pt_clust_3="281.69058" pt_clust_4="37.42768" pt_clust_5="14000.00000" pt_clust_6="71.97273"></scales>
<clustering>
<clus scale="   37.428">  2  4  1 -1</clus>
<clus scale="   71.973">  1  6  2 -1</clus>
<clus scale="  281.691">  1  3  2 -1</clus>
<clus scale="   37.428">  2  3  1 -1</clus>
</clustering>
</event>
<event>
 6    0  0.6525019E+002  0.9475965E+02  0.7546771E-02  0.1291718E+00
         21   -1    0    0  503  502  0.00000000000E+00  0.00000000000E+00  0.23433575915E+04  0.23433575915E+04  0.00000000000E+00 0.  1.
          4   -1    0    0  504    0 -0.00000000000E+00 -0.00000000000E+00 -0.16193080387E+03  0.16193080387E+03  0.00000000000E+00 0.  1.
         21    1    1    2  503  505 -0.67577568498E+02  0.14770929106E+02  0.14252720451E+04  0.14269496525E+04  0.00000000000E+00 0.  1.
         21    1    1    2  504  502  0.51233315781E+02 -0.78294018734E+01  0.98155176325E+02  0.11099815683E+03  0.00000000000E+00 0.  1.
         21    1    1    2  505  501 -0.67579564205E+02 -0.52733790723E+01  0.79974103639E+03  0.80260857914E+03  0.00000000000E+00 0.  1.
          4    1    1    2  501    0  0.83923816922E+02 -0.16681481603E+01 -0.14174147015E+03  0.16473200699E+03  0.00000000000E+00 0.  1.
<scales pt_clust_3="43.02483" pt_clust_4="51.82810" pt_clust_5="43.02483" pt_clust_6="84.20421"></scales>
<clustering>
<clus scale="   43.025">  3  5 -1 -1</clus>
<clus scale="   51.828">  1  4  2 -1</clus>
<clus scale="   84.204">  2  6  1 -1</clus>
<clus scale="   51.828">  1  3  2 -1</clus>
</clustering>
</event>
<event>
 6    0  0.6525019E+002  0.1036324E+03  0.7546771E-02  0.1272838E+00
         21   -1    0    0  505  502  0.00000000000E+00  0.00000000000E+00  0.59160009135E+03  0.59160009135E+03  0.00000000000E+00 0.  1.
         -1   -1    0    0    0  501 -0.00000000000E+00 -0.00000000000E+00 -0.14399626924E+03  0.14399626924E+03  0.00000000000E+00 0. -1.
         21    1    1    2  503  504 -0.30200863990E+02 -0.28402545836E+02  0.33169236044E+02  0.53094208869E+02  0.00000000000E+00 0. -1.
         21    1    1    2  504  501 -0.38978976784E+02 -0.69752406738E+02 -0.86671590288E+01  0.80373369486E+02  0.00000000000E+00 0. -1.
         21    1    1    2  505  503  0.29040506819E+02  0.82323161545E+02  0.50343147280E+03  0.51094393212E+03  0.00000000000E+00 0.  1.
         -1    1    1    2    0  502  0.40139333956E+02  0.15831791029E+02 -0.80329727707E+02  0.91184850119E+02  0.00000000000E+00 0. -1.
<scales pt_clust_3="38.06758" pt_clust_4="38.06758" pt_clust_5="89.14417" pt_clust_6="43.14872"></scales>
<clustering>
<clus scale="   38.068">  3  4 -1 -1</clus>
<clus scale="   43.149">  2  6  1 -1</clus>
<clus scale="   89.144">  1  5  2 -1</clus>
<clus scale="   89.144">  1  3  2 -1</clus>
</clustering>
</event>
<event>
 6    0  0.6525019E+002  0.1464235E+03  0.7546771E-02  0.1204938E+00
          2   -1    0    0  503    0 -0.00000000000E+00  0.00000000000E+00  0.19976553431E+04  0.19976553431E+04  0.00000000000E+00 0.  1.
         21   -1    0    0  505  502  0.00000000000E+00 -0.00000000000E+00 -0.20271040161E+03  0.20271040161E+03  0.00000000000E+00 0.  1.
         21    1    1    2  503  502 -0.35686554108E+02  0.15820054415E+03 -0.49874278101E+02  0.16967140575E+03  0.00000000000E+00 0.  1.
         21    1    1    2  504  501 -0.40606615637E+02 -0.10541366455E+03  0.53579857076E+03  0.54757743410E+03  0.00000000000E+00 0.  1.
         21    1    1    2  505  504  0.64759994552E+02 -0.97412121559E+01 -0.74321161570E+02  0.99057474053E+02  0.00000000000E+00 0.  1.
          2    1    1    2  501    0  0.11533175194E+02 -0.43045667440E+02  0.13833418104E+04  0.13840594308E+04  0.00000000000E+00 0.  1.
<scales pt_clust_3="14000.00000" pt_clust_4="146.42348" pt_clust_5="65.85242" pt_clust_6="44.56393"></scales>
<clustering>
<clus scale="   44.564">  1  6  2 -1</clus>
<clus scale="   65.852">  2  5  1 -1</clus>
<clus scale="  146.423">  1  4  2 -1</clus>
<clus scale="   65.852">  2  3  1 -1</clus>
</clustering>
</event>
<event>
 6    0  0.6525019E+002  0.1961285E+03  0.7546771E-02  0.1153047E+00
         21   -1    0    0  505  502  0.00000000000E+00  0.00000000000E+00  0.27942777300E+02  0.27942777300E+02  0.00000000000E+00 0. -1.
          2   -1    0    0  502    0 -0.00000000000E+00 -0.00000000000E+00 -0.21490744475E+04  0.21490744475E+04  0.00000000000E+00 0.  1.
         21    1    1    2  503  501  0.51670380654E+02  0.22930620027E+02 -0.32572198284E+03  0.33059106412E+03  0.00000000000E+00 0.  1.
         21    1    1    2  504  503 -0.94318454675E+02 -0.10732736875E+03 -0.30347302640E+03  0.33542661302E+03  0.00000000000E+00 0. -1.
         21    1    1    2  505  504 -0.52655936198E+02  0.49390475962E+01 -0.96375637973E+02  0.10993318608E+03  0.00000000000E+00 0.  1.
          2    1    1    2  501    0  0.95304010219E+02  0.79457701123E+02 -0.13955610230E+04  0.14010663615E+04  0.00000000000E+00 0.  1.
<scales pt_clust_3="41.26392" pt_clust_4="48.60153" pt_clust_5="48.60153" pt_clust_6="189.26768"></scales>
<clustering>
<clus scale="   41.264">  3  6 -1 -1</clus>
<clus scale="   48.602">  4  5 -1 -1</clus>
<clus scale="  189.268">  2  3  1 -1</clus>
<clus scale="  196.129">  1  3  2 -1</clus>
</clustering>
</event>
<event>
 6    0  0.6525019E+002  0.1367328E+03  0.7546771E-02  0.1217794E+00
          3   -1    0    0  504    0 -0.00000000000E+00  0.00000000000E+00  0.22402477328E+03  0.22402477328E+03  0.00000000000E+00 0.  1.
         21   -1    0    0  503  502  0.00000000000E+00 -0.00000000000E+00 -0.21905746319E+03  0.21905746319E+03  0.00000000000E+00 0.  1.
         21    1    1    2  503  501 -0.43396467696E+02 -0.40519013013E+01 -0.19692939075E+02  0.47827640147E+02  0.00000000000E+00 0.  1.
         21    1    1    2  504  505  0.10211721884E+03  0.92466729035E+02 -0.40168092193E+02  0.14349737974E+03  0.00000000000E+00 0.  1.
         21    1    1    2  505  502  0.96035026195E+01  0.31637608978E+02 -0.58098090595E+02  0.66847241493E+02  0.00000000000E+00 0.  1.
          3    1    1    2  501    0 -0.68324253766E+02 -0.12005243671E+03  0.12292643195E+03  0.18490997508E+03  0.00000000000E+00 0.  1.
<scales pt_clust_3="41.41860" pt_clust_4="136.73279" pt_clust_5="33.06305" pt_clust_6="14000.00000"></scales>
<clustering>
<clus scale="   33.063">  2  5  1 -1</clus>
<clus scale="   41.419">  2  3  1 -1</clus>
<clus scale="  136.733">  2  4  1 -1</clus>
<clus scale="   33.063">  2  3  1 -1</clus>
</clustering>
</event>
<event>
 6    0  0.6525019E+002  0.1442364E+03  0.7546771E-02  0.1207740E+00
         21   -1    0    0  504  502  0.00000000000E+00  0.00000000000E+00  0.25265077422E+03  0.25265077422E+03  0.00000000000E+00 0.  1.
         -2   -1    0    0    0  501 -0.00000000000E+00 -0.00000000000E+00 -0.28185579662E+03  0.28185579662E+03  0.00000000000E+00 0. -1.
         21    1    1    2  503  502 -0.11534317077E+03  0.46530142922E+02  0.33290832513E+01  0.12441938772E+03  0.00000000000E+00 0. -1.
         21    1    1    2  504  505  0.29593732863E+00  0.32431221396E+02  0.12340856734E+03  0.12759916220E+03  0.00000000000E+00 0.  1.
         21    1    1    2  505  501  0.14309305521E+03 -0.99024346963E+02 -0.65913277406E+02  0.18608063811E+03  0.00000000000E+00 0.  1.
         -2    1    1    2    0  503 -0.28045821763E+02  0.20062982645E+02 -0.90029395591E+02  0.96407382817E+02  0.00000000000E+00 0. -1.
<scales pt_clust_3="144.23645" pt_clust_4="32.43257" pt_clust_5="14000.00000" pt_clust_6="34.95677"></scales>
<clustering>
<clus scale="   32.433">  1  4  2 -1</clus>
<clus scale="   34.957">  2  6  1 -1</clus>
<clus scale="  144.236">  1  3  2 -1</clus>
<clus scale="   32.433">  1  3  2 -1</clus>
</clustering>
</event>
<event>
 6    0  0.6525019E+002  0.1150378E+03  0.7546771E-02  0.1251515E+00
         -1   -1    0    0    0  501 -0.00000000000E+00  0.00000000000E+00  0.13044258039E+04  0.13044258039E+04  0.00000000000E+00 0.  1.
         21   -1    0    0  503  502  0.00000000000E+00 -0.00000000000E+00 -0.27718507690E+02  0.27718507690E+02  0.00000000000E+00 0.  1.
         21    1    1    2  503  504 -0.27384387081E+02 -0.12478573163E+02  0.13376813035E+02  0.32932636866E+02  0.00000000000E+00 0. -1.
         21    1    1    2  504  501 -0.32147922846E+02  0.13103929212E+03  0.37039319566E+03  0.39420287215E+03  0.00000000000E+00 0.  1.
         21    1    1    2  505  502  0.44925442663E+02 -0.83819584355E+02  0.42280069693E+03  0.43336410494E+03  0.00000000000E+00 0.  1.
         -1    1    1    2    0  505  0.14606867264E+02 -0.34741134598E+02  0.47013659058E+03  0.47164469763E+03  0.00000000000E+00 0.  1.
<scales pt_clust_3="30.09351" pt_clust_4="115.03778" pt_clust_5="14000.00000" pt_clust_6="37.74552"></scales>
<clustering>
<clus scale="   30.094">  2  3  1 -1</clus>
<clus scale="   37.746">  1  6  2 -1</clus>
<clus scale="  115.038">  2  4  1 -1</clus>
<clus scale="   30.094">  2  3  1 -1</clus>
</clustering>
</event>
<event>
 6    0  0.6525019E+002  0.1422605E+03  0.7546771E-02  0.1210319E+00
         21   -1    0    0  504  502  0.00000000000E+00  0.00000000000E+00  0.39580929525E+02  0.39580929525E+02  0.00000000000E+00 0.  1.
          1   -1    0    0  503    0 -0.00000000000E+00 -0.00000000000E+00 -0.14255101602E+04  0.14255101602E+04  0.00000000000E+00 0.  1.
         21    1    1    2  503  505  0.37399337442E+02 -0.17118840488E+03 -0.74463240368E+03  0.76497163151E+03  0.00000000000E+00 0.  1.
         21    1    1    2  504  501 -0.55454016626E+02  0.10807280723E+03 -0.13600673472E+03  0.18235326022E+03  0.00000000000E+00 0.  1.
         21    1    1    2  505  502  0.23425900552E+02  0.28149123205E+02 -0.54928608308E+02  0.66017406527E+02  0.00000000000E+00 0. -1.
          1    1    1    2  501    0 -0.53712213684E+01  0.34966474438E+02 -0.45036148393E+03  0.45174879143E+03  0.00000000000E+00 0.  1.
<scales pt_clust_3="14000.00000" pt_clust_4="142.26053" pt_clust_5="38.11186" pt_clust_6="35.37661"></scales>
<clustering>
<clus scale="   35.377">  2  6  1 -1</clus>
<clus scale="   38.112">  1  5  2 -1</clus>
<clus scale="  142.261">  1  4  2 -1</clus>
<clus scale="   38.112">  1  3  2 -1</clus>
</clustering>
</event>
<event>
 6    0  0.6525019E+002  0.8764994E+02  0.7546771E-02  0.1308645E+00
         21   -1    0    0  505  502  0.00000000000E+00  0.00000000000E+00  0.14303378445E+03  0.14303378445E+03  0.00000000000E+00 0.  1.
          1   -1    0    0  503    0 -0.00000000000E+00 -0.00000000000E+00 -0.16634246610E+04  0.16634246610E+04  0.00000000000E+00 0.  1.
         21    1    1    2  503  502 -0.46755244238E+02  0.31076862105E+02  0.10730400226E+03  0.12110315076E+03  0.00000000000E+00 0.  1.
         21    1    1    2  504  501  0.37000937394E+01 -0.42355758186E+02 -0.24573362778E+02  0.49107546298E+02  0.00000000000E+00 0.  1.
         21    1    1    2  505  504  0.61836087447E+02 -0.56636260416E+02 -0.95940107351E+02  0.12742006083E+03  0.00000000000E+00 0.  1.
          1    1    1    2  501    0 -0.18780936949E+02  0.67915156496E+02 -0.15071814087E+04  0.15088276876E+04  0.00000000000E+00 0.  1.
<scales pt_clust_3="56.14111" pt_clust_4="35.91599" pt_clust_5="35.91599" pt_clust_6="71.68280"></scales>
<clustering>
<clus scale="   35.916">  4  5 -1 -1</clus>
<clus scale="   56.141">  1  3  2 -1</clus>
<clus scale="   71.683">  2  6  1 -1</clus>
<clus scale="   56.141">  1  3  2 -1</clus>
</clustering>
</event>
<event>
 6    0  0.6525019E+002  0.1575673E+03  0.7546771E-02  0.1191471E+00
         21   -1    0    0  504  502  0.00000000000E+00  0.00000000000E+00  0.93169334258E+03  0.93169334258E+03  0.00000000000E+00 0. -1.
          3   -1    0    0  503    0 -0.00000000000E+00 -0.00000000000E+00 -0.10110406280E+03  0.10110406280E+03  0.00000000000E+00 0. -1.
         21    1    1    2  503  505 -0.42549170534E+02 -0.32516716521E+02  0.11088858069E+03  0.12314238139E+03  0.00000000000E+00 0.  1.
         21    1    1    2  504  501  0.15018203805E+03  0.11079113318E+02  0.39849831301E+03  0.42600269574E+03  0.00000000000E+00 0. -1.
         21    1    1    2  505  502 -0.92138437974E+02 -0.57072397429E+01  0.39387222482E+03  0.40454591065E+03  0.00000000000E+00 0. -1.
          3    1    1    2  501    0 -0.15494429540E+02  0.27144842946E+02 -0.72669838740E+02  0.79106417615E+02  0.00000000000E+00 0. -1.
<scales pt_clust_3="47.57796" pt_clust_4="144.07577" pt_clust_5="47.57796" pt_clust_6="31.25572"></scales>
<clustering>
<clus scale="   31.256">  2  6  1 -1</clus>
<clus scale="   47.578">  3  5 -1 -1</clus>
<clus scale="  144.076">  2  4  1 -1</clus>
<clus scale="  157.567">  1  3  2 -1</clus>
</clustering>
</event>
<event>
 6    0  0.6525019E+002  0.1137865E+03  0.7546771E-02  0.1253714E+00
          2   -1    0    0  505    0 -0.00000000000E+00  0.00000000000E+00  0.90527092412E+03  0.90527092412E+03  0.00000000000E+00 0. -1.
         21   -1    0    0  504  502  0.00000000000E+00 -0.00000000000E+00 -0.31035854402E+03  0.31035854402E+03  0.00000000000E+00 0. -1.
         21    1    1    2  503  502 -0.20476995667E+02 -0.45600679741E+02 -0.21571779682E+03  0.22143373097E+03  0.00000000000E+00 0. -1.
         21    1    1    2  504  501 -0.42166611384E+02 -0.57088380250E+02 -0.66874337019E+02  0.97515553769E+02  0.00000000000E+00 0. -1.
         21    1    1    2  505  503 -0.19469493919E+02  0.24802417987E+02  0.53567055606E+03  0.53659776906E+03  0.00000000000E+00 0. -1.
          2    1    1    2  501    0  0.82113100970E+02  0.77886642004E+02  0.34183395789E+03  0.36008241434E+03  0.00000000000E+00 0. -1.
<scales pt_clust_3="49.87433" pt_clust_4="113.78653" pt_clust_5="31.53127" pt_clust_6="14000.00000"></scales>
<clustering>
<clus scale="   31.531">  1  5  2 -1</clus>
<clus scale="   49.874">  2  3  1 -1</clus>
<clus scale="  113.787">  2  4  1 -1</clus>
<clus scale="   49.874">  2  3  1 -1</clus>
</clustering>
</event>
<event>
 6    0  0.6525019E+002  0.1124922E+03  0.7546771E-02  0.1256023E+00
          2   -1    0    0  503    0 -0.00000000000E+00  0.00000000000E+00  0.37483474869E+03  0.37483474869E+03  0.00000000000E+00 0. -1.
         21   -1    0    0  505  502  0.00000000000E+00 -0.00000000000E+00 -0.15612420148E+03  0.15612420148E+03  0.00000000000E+00 0.  1.
         21    1    1    2  503  504  0.48439252904E+02  0.84225051007E+02  0.10656467018E+03  0.14420904746E+03  0.00000000000E+00 0. -1.
         21    1    1    2  504  502  0.51637372322E+02 -0.39620079687E+02 -0.55720905906E+02  0.85679567516E+02  0.00000000000E+00 0. -1.
         21    1    1    2  505  501 -0.68726141565E+01  0.46130824155E+02 -0.36221903389E+02  0.59053467702E+02  0.00000000000E+00 0.  1.
          2    1    1    2  501    0 -0.93204011070E+02 -0.90735795475E+02  0.20408868633E+03  0.24201686749E+03  0.00000000000E+00 0. -1.
<scales pt_clust_3="112.49218" pt_clust_4="48.11713" pt_clust_5="46.63996" pt_clust_6="14000.00000"></scales>
<clustering>
<clus scale="   46.640">  2  5  1 -1</clus>
<clus scale="   48.117">  2  4  1 -1</clus>
<clus scale="  112.492">  1  3  2 -1</clus>
<clus scale="   46.640">  2  3  1 -1</clus>
</clustering>
</event>
<event>
 6    0  0.6525019E+002  0.1670502E+03  0.7546771E-02  0.1180959E+00
          2   -1    0    0  505    0 -0.00000000000E+00  0.00000000000E+00  0.19447576990E+04  0.19447576990E+04  0.00000000000E+00 0. -1.
         21   -1    0    0  503  502  0.00000000000E+00 -0.00000000000E+00 -0.83770847293E+02  0.83770847293E+02  0.00000000000E+00 0. -1.
         21    1    1    2  503  501  0.44182194404E+02 -0.17153520581E+01  0.19022571372E+02  0.48133844192E+02  0.00000000000E+00 0.  1.
         21    1    1    2  504  502 -0.21872196504E+02  0.30798712585E+02 -0.27564066189E+02  0.46762500165E+02  0.00000000000E+00 0. -1.
         21    1    1    2  505  504 -0.13803442290E+03 -0.14278054700E+03  0.32689707008E+03  0.38249376588E+03  0.00000000000E+00 0. -1.
          2    1    1    2  501    0  0.11572442500E+03  0.11369718647E+03  0.15426312765E+04  0.15511384361E+04  0.00000000000E+00 0. -1.
<scales pt_clust_3="38.17842" pt_clust_4="37.77504" pt_clust_5="14000.00000" pt_clust_6="167.05021"></scales>
<clustering>
<clus scale="   37.775">  2  4  1 -1</clus>
<clus scale="   38.178">  2  3  1 -1</clus>
<clus scale="  167.050">  1  6  2 -1</clus>
<clus scale="   37.775">  2  3  1 -1</clus>
</clustering>
</event>
<event>
 6    0  0.6525019E+002  0.1023048E+03  0.7546771E-02  0.1275523E+00
          2   -1    0    0  503    0 -0.00000000000E+00  0.00000000000E+00  0.26984117586E+04  0.26984117586E+04  0.00000000000E+00 0.  1.
         21   -1    0    0  505  502  0.00000000000E+00 -0.00000000000E+00 -0.47606307897E+02  0.47606307897E+02  0.00000000000E+00 0.  1.
         21    1    1    2  503  502 -0.15180894363E+03  0.26306297437E+02  0.64430583704E+03  0.66247112261E+03  0.00000000000E+00 0.  1.
         21    1    1    2  504  501  0.73329175950E+02 -0.49415721487E+02  0.11307605153E+04  0.11342126892E+04  0.00000000000E+00 0.  1.
         21    1    1    2  505  504  0.58116609193E+02 -0.32697348700E+02 -0.47417478200E+01  0.66851634599E+02  0.00000000000E+00 0.  1.
          2    1    1    2  501    0  0.20363158487E+02  0.55806772750E+02  0.88048084624E+03  0.88248262006E+03  0.00000000000E+00 0.  1.
<scales pt_clust_3="102.30477" pt_clust_4="14000.00000" pt_clust_5="66.52643" pt_clust_6="59.40584"></scales>
<clustering>
<clus scale="   59.406">  1  6  2 -1</clus>
<clus scale="   66.526">  2  5  1 -1</clus>
<clus scale="  102.305">  2  3  1 -1</clus>
<clus scale="   66.526">  2  3  1 -1</clus>
</clustering>
</event>
<event>
 6    0  0.6525019E+002  0.1222652E+03  0.7546771E-02  0.1239406E+00
         21   -1    0    0  504  502  0.00000000000E+00  0.00000000000E+00  0.13743377439E+04  0.13743377439E+04  0.00000000000E+00 0. -1.
         -2   -1    0    0    0  501 -0.00000000000E+00 -0.00000000000E+00 -0.79270805953E+02  0.79270805953E+02  0.00000000000E+00 0. -1.
         21    1    1    2  503  502  0.38501849245E+02  0.91937428975E+02  0.93891884495E+02  0.13693271784E+03  0.00000000000E+00 0. -1.
         21    1    1    2  504  505 -0.29359429883E+02 -0.13068063860E+02  0.56270814014E+03  0.56362505391E+03  0.00000000000E+00 0. -1.
         21    1    1    2  505  501 -0.16109230871E+02 -0.11322584102E+03  0.68517316737E+03  0.69465233583E+03  0.00000000000E+00 0. -1.
         -2    1    1    2    0  503  0.69668115091E+01  0.34356475900E+02 -0.46706254021E+02  0.58398442305E+02  0.00000000000E+00 0. -1.
<scales pt_clust_3="122.26524" pt_clust_4="32.13643" pt_clust_5="14000.00000" pt_clust_6="34.92188"></scales>
<clustering>
<clus scale="   32.136">  1  4  2 -1</clus>
<clus scale="   34.922">  2  6  1 -1</clus>
<clus scale="  122.265">  2  3  1 -1</clus>
<clus scale="   32.136">  1  3  2 -1</clus>
</clustering>
</event>
<event>
 6    0  0.6525019E+002  0.1022181E+03  0.7546771E-02  0.1275699E+00
          2   -1    0    0  503    0 -0.00000000000E+00  0.00000000000E+00  0.15423239873E+03  0.15423239873E+03  0.00000000000E+00 0. -1.
         21   -1    0    0  505  502  0.00000000000E+00 -0.00000000000E+00 -0.42418975853E+03  0.42418975853E+03  0.00000000000E+00 0.  1.
         21    1    1    2  503  502  0.64870425302E+02  0.74664502397E+02 -0.18537600297E+03  0.21011240438E+03  0.00000000000E+00 0.  1.
         21    1    1    2  504  501 -0.14521873410E+02  0.69892953290E+02 -0.82669988324E+02  0.10922562289E+03  0.00000000000E+00 0.  1.
         21    1    1    2  505  504 -0.57927414296E+02 -0.93006214960E+02 -0.99789090360E+02  0.14820122774E+03  0.00000000000E+00 0.  1.
          2    1    1    2  501    0  0.75788624037E+01 -0.51551240727E+02  0.97877721852E+02  0.11088290225E+03  0.00000000000E+00 0. -1.
<scales pt_clust_3="14000.00000" pt_clust_4="57.53753" pt_clust_5="102.21814" pt_clust_6="52.10537"></scales>
<clustering>
<clus scale="   52.105">  1  6  2 -1</clus>
<clus scale="   57.538">  1  4  2 -1</clus>
<clus scale="  102.218">  1  5  2 -1</clus>
<clus scale="  102.218">  2  3  1 -1</clus>
</clustering>
</event>
<event>
 6    0  0.6525019E+002  0.7606539E+02  0.7546771E-02  0.1340603E+00
         21   -1    0    0  503  502  0.00000000000E+00  0.00000000000E+00  0.75966638241E+02  0.75966638241E+02  0.00000000000E+00 0. -1.
          1   -1    0    0  505    0 -0.00000000000E+00 -0.00000000000E+00 -0.33412064696E+04  0.33412064696E+04  0.00000000000E+00 0. -1.
         21    1    1    2  503  501 -0.47867846200E+02  0.68015840507E+02 -0.22119190047E+03  0.23631195926E+03  0.00000000000E+00 0. -1.
         21    1    1    2  504  502 -0.95727696758E+01 -0.54247867880E+02  0.52017893065E+02  0.75764967417E+02  0.00000000000E+00 0. -1.
         21    1    1    2  505  504  0.84595802451E+02  0.55811524663E+02 -0.64682008003E+03  0.65471183891E+03  0.00000000000E+00 0. -1.
          1    1    1    2  501    0 -0.27155186575E+02 -0.69579497290E+02 -0.24492457439E+04  0.24503843422E+04  0.00000000000E+00 0. -1.
<scales pt_clust_3="63.72276" pt_clust_4="55.08602" pt_clust_5="14000.00000" pt_clust_6="76.06539"></scales>
<clustering>
<clus scale="   55.086">  1  4  2 -1</clus>
<clus scale="   63.723">  1  3  2 -1</clus>
<clus scale="   76.065">  2  6  1 -1</clus>
<clus scale="   55.086">  1  3  2 -1</clus>
</clustering>
</event>
<event>
 6    0  0.6525019E+002  0.6792638E+02  0.7546771E-02  0.1367290E+00
         21   -1    0    0  503  502  0.00000000000E+00  0.00000000000E+00  0.17772184847E+03  0.17772184847E+03  0.00000000000E+00 0.  1.
          1   -1    0    0  504    0 -0.00000000000E+00 -0.00000000000E+00 -0.14161824538E+04  0.14161824538E+04  0.00000000000E+00 0. -1.
         21    1    1    2  503  501  0.87013124115E+02 -0.46255019578E+01 -0.69178395228E+02  0.11125794085E+03  0.00000000000E+00 0. -1.
         21    1    1    2  504  505 -0.70899172496E+02 -0.16787562494E+02  0.53855084121E+01  0.73058323386E+02  0.00000000000E+00 0. -1.
         21    1    1    2  505  502  0.19075187180E+02  0.49977372303E+02  0.11094947301E+03  0.12317218058E+03  0.00000000000E+00 0.  1.
          1    1    1    2  501    0 -0.35189138799E+02 -0.28564307851E+02 -0.12856171915E+04  0.12864158575E+04  0.00000000000E+00 0. -1.
<scales pt_clust_3="14000.00000" pt_clust_4="67.92638" pt_clust_5="51.66283" pt_clust_6="45.32323"></scales>
<clustering>
<clus scale="   45.323">  2  6  1 -1</clus>
<clus scale="   51.663">  1  5  2 -1</clus>
<clus scale="   67.926">  1  4  2 -1</clus>
<clus scale="   51.663">  1  3  2 -1</clus>
</clustering>
</event>
<event>
 6    0  0.6525019E+002  0.1017454E+03  0.7546771E-02  0.1276668E+00
         21   -1    0    0  501  502  0.00000000000E+00  0.00000000000E+00  0.94503767742E+02  0.94503767742E+02  0.00000000000E+00 0.  1.
          2   -1    0    0  505    0 -0.00000000000E+00 -0.00000000000E+00 -0.16925055085E+04  0.16925055085E+04  0.00000000000E+00 0. -1.
         21    1    1    2  503  502 -0.12171331856E+02 -0.36998948645E+02  0.54879825491E+02  0.67296796104E+02  0.00000000000E+00 0.  1.
         21    1    1    2  504  503  0.10441045656E+03 -0.13922585573E+02 -0.79727148069E+02  0.13210526093E+03  0.00000000000E+00 0.  1.
         21    1    1    2  505  504 -0.59118702169E+02 -0.60104283337E+02 -0.40256839670E+03  0.41130142213E+03  0.00000000000E+00 0.  1.
          2    1    1    2  501    0 -0.33120422530E+02  0.11102581756E+03 -0.11705860214E+04  0.11763057970E+04  0.00000000000E+00 0. -1.
<scales pt_clust_3="38.94950" pt_clust_4="101.74541" pt_clust_5="88.89705" pt_clust_6="14000.00000"></scales>
<clustering>
<clus scale="   38.949">  1  3  2 -1</clus>
<clus scale="   88.897">  2  5  1 -1</clus>
<clus scale="  101.745">  1  4  2 -1</clus>
<clus scale="   38.949">  1  3  2 -1</clus>
</clustering>
</event>
<event>
 6    0  0.6525019E+002  0.6668503E+02  0.7546771E-02  0.1371743E+00
          2   -1    0    0  504    0 -0.00000000000E+00  0.00000000000E+00  0.12409408213E+04  0.12409408213E+04  0.00000000000E+00 0.  1.
         21   -1    0    0  503  502  0.00000000000E+00 -0.00000000000E+00 -0.29751980022E+03  0.29751980022E+03  0.00000000000E+00 0.  1.
         21    1    1    2  503  505  0.39639876362E+02 -0.15271924223E+02 -0.11214387385E+03  0.11991997294E+03  0.00000000000E+00 0.  1.
         21    1    1    2  504  502 -0.90998245097E+02  0.11171868752E+03 -0.13575375334E+03  0.19796673280E+03  0.00000000000E+00 0.  1.
         21    1    1    2  505  501  0.40703077381E+02 -0.30955586133E+02  0.34120788803E+02  0.61475336922E+02  0.00000000000E+00 0. -1.
          2    1    1    2  501    0  0.10655291354E+02 -0.65491177164E+02  0.11571978595E+04  0.11590985788E+04  0.00000000000E+00 0.  1.
<scales pt_clust_3="42.48001" pt_clust_4="14000.00000" pt_clust_5="54.21882" pt_clust_6="66.68503"></scales>
<clustering>
<clus scale="   42.480">  2  3  1 -1</clus>
<clus scale="   54.219">  2  5  1 -1</clus>
<clus scale="   66.685">  1  6  2 -1</clus>
<clus scale="   42.480">  2  3  1 -1</clus>
</clustering>
</event>
<event>
 6    0  0.6525019E+002  0.1617051E+03  0.7546771E-02  0.1186785E+00
         21   -1    0    0  501  502  0.00000000000E+00  0.00000000000E+00  0.16390756933E+04  0.16390756933E+04  0.00000000000E+00 0.  1.
          2   -1    0    0  504    0 -0.00000000000E+00 -0.00000000000E+00 -0.36138977736E+03  0.36138977736E+03  0.00000000000E+00 0. -1.
         21    1    1    2  503  502  0.29169853509E+02  0.11430442854E+02  0.31487246626E+03  0.31642725133E+03  0.00000000000E+00 0.  1.
         21    1    1    2  504  505  0.20016199468E+03  0.11960055406E+03  0.79517927245E+03  0.82866108391E+03  0.00000000000E+00 0.  1.
         21    1    1    2  505  503 -0.97811948969E+02 -0.39824221940E+02  0.48690991766E+03  0.49823128558E+03  0.00000000000E+00 0. -1.
          2    1    1    2  501    0 -0.13151989922E+03 -0.91206774975E+02 -0.31927574038E+03  0.35714584989E+03  0.00000000000E+00 0. -1.
<scales pt_clust_3="31.32947" pt_clust_4="161.70513" pt_clust_5="93.94897" pt_clust_6="14000.00000"></scales>
<clustering>
<clus scale="   31.329">  1  3  2 -1</clus>
<clus scale="   93.949">  1  5  2 -1</clus>
<clus scale="  161.705">  1  4  2 -1</clus>
<clus scale="   31.329">  1  3  2 -1</clus>
</clustering>
</event>
<event>
 6    0  0.6525019E+002  0.6934870E+02  0.7546771E-02  0.1362322E+00
         21   -1    0    0  504  502  0.00000000000E+00  0.00000000000E+00  0.14258084792E+03  0.14258084792E+03  0.00000000000E+00 0.  1.
          2   -1    0    0  503    0 -0.00000000000E+00 -0.00000000000E+00 -0.14747432783E+04  0.14747432783E+04  0.00000000000E+00 0. -1.
         21    1    1    2  503  502 -0.39776111262E+02  0.31511504094E+02  0.78166917771E+02  0.93194318235E+02  0.00000000000E+00 0.  1.
         21    1    1    2  504  505 -0.28152234787E+02 -0.14422013283E+02  0.28454998783E+02  0.42546794784E+02  0.00000000000E+00 0.  1.
         21    1    1    2  505  501  0.10135263701E+03  0.42736572889E+02 -0.12700575670E+03  0.16801557644E+03  0.00000000000E+00 0. -1.
          2    1    1    2  501    0 -0.33424290961E+02 -0.59826063700E+02 -0.13117785902E+04  0.13135674368E+04  0.00000000000E+00 0. -1.
<scales pt_clust_3="65.42508" pt_clust_4="31.63136" pt_clust_5="69.34870" pt_clust_6="14000.00000"></scales>
<clustering>
<clus scale="   31.631">  1  4  2 -1</clus>
<clus scale="   65.425">  1  3  2 -1</clus>
<clus scale="   69.349">  1  5  2 -1</clus>
<clus scale="   31.631">  1  3  2 -1</clus>
</clustering>
</event>
<event>
 6    0  0.6525019E+002  0.1368942E+03  0.7546771E-02  0.1217570E+00
          2   -1    0    0  505    0 -0.00000000000E+00  0.00000000000E+00  0.19183422627E+04  0.19183422627E+04  0.00000000000E+00 0. -1.
         21   -1    0    0  503  502  0.00000000000E+00 -0.00000000000E+00 -0.26294277548E+03  0.26294277548E+03  0.00000000000E+00 0. -1.
         21    1    1    2  503  504 -0.29720928345E+02  0.19856508823E+02 -0.20569518464E+03  0.20877768920E+03  0.00000000000E+00 0. -1.
         21    1    1    2  504  501  0.13717803025E+03 -0.11644217260E+03  0.56862934089E+03  0.59641924757E+03  0.00000000000E+00 0. -1.
         21    1    1    2  505  502 -0.10291885964E+03  0.27772603135E+02  0.28637120817E+02  0.11037977098E+03  0.00000000000E+00 0. -1.
          2    1    1    2  501    0 -0.45382422676E+01  0.68813060645E+02  0.12638282102E+04  0.12657083305E+04  0.00000000000E+00 0. -1.
<scales pt_clust_3="35.74373" pt_clust_4="14000.00000" pt_clust_5="136.89422" pt_clust_6="69.33156"></scales>
<clustering>
<clus scale="   35.744">  2  3  1 -1</clus>
<clus scale="   69.332">  1  6  2 -1</clus>
<clus scale="  136.894">  2  5  1 -1</clus>
<clus scale="   35.744">  2  3  1 -1</clus>
</clustering>
</event>
<event>
 6    0  0.6525019E+002  0.1224323E+03  0.7546771E-02  0.1239138E+00
          2   -1    0    0  503    0 -0.00000000000E+00  0.00000000000E+00  0.14147098483E+04  0.14147098483E+04  0.00000000000E+00 0.  1.
         21   -1    0    0  505  502  0.00000000000E+00 -0.00000000000E+00 -0.76619639095E+02  0.76619639095E+02  0.00000000000E+00 0.  1.
         21    1    1    2  503  504  0.34532789739E+02 -0.19912688176E+02  0.32777893113E+03  0.33019396786E+03  0.00000000000E+00 0.  1.
         21    1    1    2  504  502  0.35430650851E+02 -0.80076541548E+02  0.13160892508E+03  0.15807748950E+03  0.00000000000E+00 0.  1.
         21    1    1    2  505  501 -0.11363409704E+03  0.94721378279E+02  0.27193606850E+02  0.15041389486E+03  0.00000000000E+00 0.  1.
          2    1    1    2  501    0  0.43670656447E+02  0.52678514451E+01  0.85150874613E+03  0.85264413517E+03  0.00000000000E+00 0.  1.
<scales pt_clust_3="39.86262" pt_clust_4="14000.00000" pt_clust_5="122.43233" pt_clust_6="71.52622"></scales>
<clustering>
<clus scale="   39.863">  1  3  2 -1</clus>
<clus scale="   71.526">  1  6  2 -1</clus>
<clus scale="  122.432">  2  5  1 -1</clus>
<clus scale="  122.432">  2  3  1 -1</clus>
</clustering>
</event>
<event>
 6    0  0.6525019E+002  0.1495343E+03  0.7546771E-02  0.1201046E+00
         21   -1    0    0  505  502  0.00000000000E+00  0.00000000000E+00  0.28598936729E+03  0.28598936729E+03  0.00000000000E+00 0.  1.
          2   -1    0    0  504    0 -0.00000000000E+00 -0.00000000000E+00 -0.27363470695E+04  0.27363470695E+04  0.00000000000E+00 0. -1.
         21    1    1    2  503  502  0.36229817994E+02 -0.69583045392E+01  0.11711911928E+03  0.12279212440E+03  0.00000000000E+00 0.  1.
         21    1    1    2  504  503  0.81070846416E+01  0.17343936236E+03 -0.22031761802E+03  0.28051165760E+03  0.00000000000E+00 0.  1.
         21    1    1    2  505  501  0.41607013767E+02 -0.12598198264E+03  0.10242225009E+03  0.16760942950E+03  0.00000000000E+00 0.  1.
          2    1    1    2  501    0 -0.85943916403E+02 -0.40499075183E+02 -0.24495814535E+04  0.24514232253E+04  0.00000000000E+00 0. -1.
<scales pt_clust_3="36.89197" pt_clust_4="149.53433" pt_clust_5="14000.00000" pt_clust_6="94.84282"></scales>
<clustering>
<clus scale="   36.892">  1  3  2 -1</clus>
<clus scale="   94.843">  2  6  1 -1</clus>
<clus scale="  149.534">  2  4  1 -1</clus>
<clus scale="   36.892">  1  3  2 -1</clus>
</clustering>
</event>
<event>
 6    0  0.6525019E+002  0.1734512E+03  0.7546771E-02  0.1174296E+00
         21   -1    0    0  505  502  0.00000000000E+00  0.00000000000E+00  0.33385740234E+02  0.33385740234E+02  0.00000000000E+00 0. -1.
          3   -1    0    0  503    0 -0.00000000000E+00 -0.00000000000E+00 -0.17222177012E+04  0.17222177012E+04  0.00000000000E+00 0. -1.
         21    1    1    2  503  504  0.16168678369E+03 -0.76461801986E+02 -0.10738923443E+04  0.10886844310E+04  0.00000000000E+00 0. -1.
         21    1    1    2  504  502 -0.17171931379E+01  0.42562676927E+02 -0.41236240375E+02  0.59287079028E+02  0.00000000000E+00 0.  1.
         21    1    1    2  505  501 -0.95103683530E+01 -0.31657454223E+02 -0.62116635630E+02  0.70364180775E+02  0.00000000000E+00 0. -1.
          3    1    1    2  501    0 -0.15045922220E+03  0.65556579283E+02 -0.51158674065E+03  0.53726775061E+03  0.00000000000E+00 0. -1.
<scales pt_clust_3="14000.00000" pt_clust_4="33.12647" pt_clust_5="33.05513" pt_clust_6="173.45116"></scales>
<clustering>
<clus scale="   33.055">  1  5  2 -1</clus>
<clus scale="   33.126">  1  4  2 -1</clus>
<clus scale="  173.451">  1  6  2 -1</clus>
<clus scale="   33.055">  1  3  2 -1</clus>
</clustering>
</event>
<event>
 6    0  0.6525019E+002  0.7637105E+02  0.7546771E-02  0.1339677E+00
          2   -1    0    0  504    0 -0.00000000000E+00  0.00000000000E+00  0.50966542305E+03  0.50966542305E+03  0.00000000000E+00 0.  1.
         21   -1    0    0  505  502  0.00000000000E+00 -0.00000000000E+00 -0.14485081889E+03  0.14485081889E+03  0.00000000000E+00 0. -1.
         21    1    1    2  503  501 -0.59050972007E+02  0.46456372130E+02  0.11344684716E+02  0.75986272956E+02  0.00000000000E+00 0. -1.
         21    1    1    2  504  502  0.60694694303E+02  0.61863848743E+02 -0.70588372245E+02  0.11177522084E+03  0.00000000000E+00 0. -1.
         21    1    1    2  505  503  0.16858512420E+02 -0.34177961958E+02  0.23534010858E+01  0.38182208177E+02  0.00000000000E+00 0.  1.
          2    1    1    2  501    0 -0.18502234717E+02 -0.74142258916E+02  0.42170489061E+03  0.42857253996E+03  0.00000000000E+00 0.  1.
<scales pt_clust_3="66.51198" pt_clust_4="14000.00000" pt_clust_5="38.10961" pt_clust_6="76.37105"></scales>
<clustering>
<clus scale="   38.110">  2  5  1 -1</clus>
<clus scale="   66.512">  2  3  1 -1</clus>
<clus scale="   76.371">  1  6  2 -1</clus>
<clus scale="   38.110">  2  3  1 -1</clus>
</clustering>
</event>
<event>
 6    0  0.6525019E+002  0.8319882E+02  0.7546771E-02  0.1320211E+00
          2   -1    0    0  504    0 -0.00000000000E+00  0.00000000000E+00  0.25511309016E+04  0.25511309016E+04  0.00000000000E+00 0.  1.
         21   -1    0    0  505  502  0.00000000000E+00 -0.00000000000E+00 -0.24771497781E+02  0.24771497781E+02  0.00000000000E+00 0.  1.
         21    1    1    2  503  501  0.28363110102E+02 -0.61959752904E+02  0.11634339904E+03  0.13483049912E+03  0.00000000000E+00 0.  1.
         21    1    1    2  504  502  0.79987426963E+02  0.15236968310E+02  0.17159576834E+03  0.18993488723E+03  0.00000000000E+00 0.  1.
         21    1    1    2  505  503 -0.29111503788E+02  0.17980771620E+02  0.47208447546E+02  0.58304590905E+02  0.00000000000E+00 0.  1.
          2    1    1    2  501    0 -0.79239033277E+02  0.28742012973E+02  0.21912117889E+04  0.21928324221E+04  0.00000000000E+00 0.  1.
<scales pt_clust_3="55.21507" pt_clust_4="14000.00000" pt_clust_5="34.21678" pt_clust_6="83.19882"></scales>
<clustering>
<clus scale="   34.217">  2  5  1 -1</clus>
<clus scale="   55.215">  2  3  1 -1</clus>
<clus scale="   83.199">  1  6  2 -1</clus>
<clus scale="   34.217">  2  3  1 -1</clus>
</clustering>
</event>
<event>
 6    0  0.6525019E+002  0.6725665E+02  0.7546771E-02  0.1369678E+00
          2   -1    0    0  504    0 -0.00000000000E+00  0.00000000000E+00  0.10436048868E+04  0.10436048868E+04  0.00000000000E+00 0. -1.
         21   -1    0    0  505  502  0.00000000000E+00 -0.00000000000E+00 -0.19180571861E+03  0.19180571861E+03  0.00000000000E+00 0.  1.
         21    1    1    2  503  501 -0.50289539468E+02  0.64172699349E+02  0.12300210070E+03  0.14756927152E+03  0.00000000000E+00 0. -1.
         21    1    1    2  504  502  0.64322514178E+02 -0.45348075080E+02  0.36289267628E+02  0.86664552665E+02  0.00000000000E+00 0. -1.
         21    1    1    2  505  503 -0.67174278243E+02 -0.13874260891E+02 -0.14582251873E+03  0.16114926541E+03  0.00000000000E+00 0.  1.
          2    1    1    2  501    0  0.53141303533E+02 -0.49503633783E+01  0.83833031858E+03  0.84002751579E+03  0.00000000000E+00 0. -1.
<scales pt_clust_3="62.74600" pt_clust_4="67.25665" pt_clust_5="14000.00000" pt_clust_6="53.37138"></scales>
<clustering>
<clus scale="   53.371">  1  6  2 -1</clus>
<clus scale="   62.746">  1  3  2 -1</clus>
<clus scale="   67.257">  1  4  2 -1</clus>
<clus scale="   67.257">  2  3  1 -1</clus>
</clustering>
</event>
<event>
 6    0  0.6525019E+002  0.2190396E+03  0.7546771E-02  0.1134601E+00
          1   -1    0    0  502    0 -0.00000000000E+00  0.00000000000E+00  0.30829919412E+04  0.30829919412E+04  0.00000000000E+00 0.  1.
         21   -1    0    0  503  502  0.00000000000E+00 -0.00000000000E+00 -0.75115743787E+02  0.75115743787E+02  0.00000000000E+00 0.  1.
         21    1    1    2  503  504 -0.34133834115E+02  0.46251028732E+02  0.74052930648E+02  0.93744934944E+02  0.00000000000E+00 0.  1.
         21    1    1    2  504  505 -0.12081487100E+03  0.87347881929E+02  0.33976981792E+02  0.15290624848E+03  0.00000000000E+00 0.  1.
         21    1    1    2  505  501  0.10094623772E+03 -0.15084256946E+03  0.15795848929E+04  0.15899786343E+04  0.00000000000E+00 0.  1.
          1    1    1    2  501    0  0.54002467397E+02  0.17243658797E+02  0.13202613921E+04  0.13214778673E+04  0.00000000000E+00 0.  1.
<scales pt_clust_3="53.08486" pt_clust_4="53.08486" pt_clust_5="201.66749" pt_clust_6="56.68871"></scales>
<clustering>
<clus scale="   53.085">  3  4 -1 -1</clus>
<clus scale="   56.689">  1  6  2 -1</clus>
<clus scale="  201.667">  1  5  2 -1</clus>
<clus scale="  219.040">  2  3  1 -1</clus>
</clustering>
</event>
<event>
 6    0  0.6525019E+002  0.1097142E+03  0.7546771E-02  0.1261100E+00
         21   -1    0    0  503  502  0.00000000000E+00  0.00000000000E+00  0.29099276811E+03  0.29099276811E+03  0.00000000000E+00 0.  1.
         -1   -1    0    0    0  501 -0.00000000000E+00 -0.00000000000E+00 -0.12859636219E+04  0.12859636219E+04  0.00000000000E+00 0.  1.
         21    1    1    2  503  501 -0.64930520797E+02  0.14449376358E+03 -0.31564293346E+03  0.35316410022E+03  0.00000000000E+00 0.  1.
         21    1    1    2  504  505 -0.25223307254E+02 -0.54221779063E+02 -0.54807788320E+02  0.81117878511E+02  0.00000000000E+00 0.  1.
         21    1    1    2  505  502  0.98626968088E+02 -0.47051745681E+02  0.24697348406E+03  0.27006859764E+03  0.00000000000E+00 0.  1.
         -1    1    1    2    0  504 -0.84731400368E+01 -0.43220238834E+02 -0.87149361604E+03  0.87260581361E+03  0.00000000000E+00 0.  1.
<scales pt_clust_3="109.71418" pt_clust_4="66.84516" pt_clust_5="14000.00000" pt_clust_6="44.04297"></scales>
<clustering>
<clus scale="   44.043">  2  6  1 -1</clus>
<clus scale="   66.845">  2  4  1 -1</clus>
<clus scale="  109.714">  2  3  1 -1</clus>
<clus scale="  109.714">  1  3  2 -1</clus>
</clustering>
</event>
<event>
 6    0  0.6525019E+002  0.8826570E+02  0.7546771E-02  0.1307107E+00
         21   -1    0    0  505  502  0.00000000000E+00  0.00000000000E+00  0.13324318818E+03  0.13324318818E+03  0.00000000000E+00 0. -1.
          2   -1    0    0  504    0 -0.00000000000E+00 -0.00000000000E+00 -0.21594723379E+03  0.21594723379E+03  0.00000000000E+00 0. -1.
         21    1    1    2  503  502  0.63952780483E+02 -0.50223139509E+02  0.44734583359E+02  0.92808969512E+02  0.00000000000E+00 0. -1.
         21    1    1    2  504  503  0.47205075831E+02 -0.17149939763E+02 -0.61835429189E+02  0.79662161162E+02  0.00000000000E+00 0.  1.
         21    1    1    2  505  501 -0.81276680595E+02  0.63087431567E+02  0.17585263604E+01  0.10290294090E+03  0.00000000000E+00 0. -1.
          2    1    1    2  501    0 -0.29881175718E+02  0.42856477054E+01 -0.67361726137E+02  0.73816350402E+02  0.00000000000E+00 0. -1.
<scales pt_clust_3="88.26570" pt_clust_4="35.96784" pt_clust_5="14000.00000" pt_clust_6="30.18694"></scales>
<clustering>
<clus scale="   30.187">  2  6  1 -1</clus>
<clus scale="   35.968">  2  4  1 -1</clus>
<clus scale="   88.266">  1  3  2 -1</clus>
<clus scale="   88.266">  1  3  2 -1</clus>
</clustering>
</event>
<event>
 6    0  0.6525019E+002  0.1254802E+03  0.7546771E-02  0.1234321E+00
          1   -1    0    0  505    0 -0.00000000000E+00  0.00000000000E+00  0.36347576027E+03  0.36347576027E+03  0.00000000000E+00 0. -1.
         21   -1    0    0  504  502  0.00000000000E+00 -0.00000000000E+00 -0.29466201915E+03  0.29466201915E+03  0.00000000000E+00 0.  1.
         21    1    1    2  503  502 -0.97422627282E+02  0.70710362817E+02 -0.22027159699E+03  0.25101932228E+03  0.00000000000E+00 0.  1.
         21    1    1    2  504  501  0.19565133504E+02  0.44294009790E+02  0.87947539320E+00  0.48430643494E+02  0.00000000000E+00 0.  1.
         21    1    1    2  505  503 -0.18232712318E+02 -0.10018398460E+03  0.82112222802E+02  0.13081161914E+03  0.00000000000E+00 0. -1.
          1    1    1    2  501    0  0.96090206096E+02 -0.14820388007E+02  0.20609363992E+03  0.22787619451E+03  0.00000000000E+00 0. -1.
<scales pt_clust_3="125.48017" pt_clust_4="48.42266" pt_clust_5="97.60278" pt_clust_6="14000.00000"></scales>
<clustering>
<clus scale="   48.423">  2  4  1 -1</clus>
<clus scale="   97.603">  1  5  2 -1</clus>
<clus scale="  125.480">  2  3  1 -1</clus>
<clus scale="   48.423">  2  3  1 -1</clus>
</clustering>
</event>
<event>
 6    0  0.6525019E+002  0.1415662E+03  0.7546771E-02  0.1211237E+00
         21   -1    0    0  504  502  0.00000000000E+00  0.00000000000E+00  0.41379883694E+03  0.41379883694E+03  0.00000000000E+00 0.  1.
         -4   -1    0    0    0  501 -0.00000000000E+00 -0.00000000000E+00 -0.69332410406E+03  0.69332410406E+03  0.00000000000E+00 0.  1.
         21    1    1    2  503  505  0.62457796367E+02  0.97304072109E+00 -0.14219571845E+03  0.15531112478E+03  0.00000000000E+00 0.  1.
         21    1    1    2  504  501 -0.66297561109E+02 -0.11645928775E+03 -0.77949633705E+02  0.15502992520E+03  0.00000000000E+00 0.  1.
         21    1    1    2  505  502 -0.64303073245E+02  0.91325944586E+02  0.35705520799E+03  0.37411727431E+03  0.00000000000E+00 0.  1.
         -4    1    1    2    0  503  0.68142837987E+02  0.24160302443E+02 -0.41643512296E+03  0.42266461670E+03  0.00000000000E+00 0.  1.
<scales pt_clust_3="60.94716" pt_clust_4="125.46581" pt_clust_5="111.69294" pt_clust_6="60.94716"></scales>
<clustering>
<clus scale="   60.947">  3  6 -1 -1</clus>
<clus scale="  111.693">  1  5  2 -1</clus>
<clus scale="  125.466">  1  4  2 -1</clus>
<clus scale="  111.693">  1  3  2 -1</clus>
</clustering>
</event>
<event>
 6    0  0.6525019E+002  0.1141278E+03  0.7546771E-02  0.1253111E+00
         21   -1    0    0  505  502  0.00000000000E+00  0.00000000000E+00  0.68136437166E+02  0.68136437166E+02  0.00000000000E+00 0.  1.
          2   -1    0    0  503    0 -0.00000000000E+00 -0.00000000000E+00 -0.25089215102E+04  0.25089215102E+04  0.00000000000E+00 0. -1.
         21    1    1    2  503  504  0.82007090792E+00  0.81535699401E+02 -0.78717762323E+03  0.79138950796E+03  0.00000000000E+00 0. -1.
         21    1    1    2  504  502  0.12307156038E+03 -0.11022828589E+03 -0.74276224955E+02  0.18114591240E+03  0.00000000000E+00 0.  1.
         21    1    1    2  505  501 -0.39338139450E+02  0.30820448296E+02 -0.43180343883E+02  0.66044919157E+02  0.00000000000E+00 0. -1.
          2    1    1    2  501    0 -0.84553491837E+02 -0.21278618093E+01 -0.15361508810E+04  0.15384776078E+04  0.00000000000E+00 0. -1.
<scales pt_clust_3="82.68283" pt_clust_4="14000.00000" pt_clust_5="49.97389" pt_clust_6="114.12785"></scales>
<clustering>
<clus scale="   49.974">  1  5  2 -1</clus>
<clus scale="   82.683">  2  3  1 -1</clus>
<clus scale="  114.128">  2  6  1 -1</clus>
<clus scale="   49.974">  1  3  2 -1</clus>
</clustering>
</event>
<event>
 6    0  0.6525019E+002  0.2308820E+03  0.7546771E-02  0.1126020E+00
          1   -1    0    0  503    0 -0.00000000000E+00  0.00000000000E+00  0.33719829886E+03  0.33719829886E+03  0.00000000000E+00 0.  1.
         21   -1    0    0  504  502  0.00000000000E+00 -0.00000000000E+00 -0.44244580593E+03  0.44244580593E+03  0.00000000000E+00 0.  1.
         21    1    1    2  503  502 -0.26518043605E+03 -0.56582172881E+02 -0.85633171596E+01  0.27128497259E+03  0.00000000000E+00 0.  1.
         21    1    1    2  504  505  0.41791128185E+02 -0.30494783592E+02 -0.14765480850E+03  0.15645565727E+03  0.00000000000E+00 0.  1.
         21    1    1    2  505  501  0.16941548003E+03  0.11708016008E+03 -0.68822011576E+02  0.21713092372E+03  0.00000000000E+00 0.  1.
          1    1    1    2  501    0  0.53973827837E+02 -0.30003203609E+02  0.11979263016E+03  0.13477255121E+03  0.00000000000E+00 0.  1.
<scales pt_clust_3="230.88204" pt_clust_4="51.73423" pt_clust_5="14000.00000" pt_clust_6="63.07695"></scales>
<clustering>
<clus scale="   51.734">  2  4  1 -1</clus>
<clus scale="   63.077">  1  6  2 -1</clus>
<clus scale="  230.882">  1  3  2 -1</clus>
<clus scale="   51.734">  2  3  1 -1</clus>
</clustering>
</event>
<event>
 6    0  0.6525019E+002  0.2154611E+03  0.7546771E-02  0.1137313E+00
          2   -1    0    0  504    0 -0.00000000000E+00  0.00000000000E+00  0.33387621498E+04  0.33387621498E+04  0.00000000000E+00 0.  1.
         21   -1    0    0  505  502  0.00000000000E+00 -0.00000000000E+00 -0.31576885056E+03  0.31576885056E+03  0.00000000000E+00 0. -1.
         21    1    1    2  503  501  0.23419521252E+03  0.15589412171E+03  0.53020749521E+03  0.60022525999E+03  0.00000000000E+00 0.  1.
         21    1    1    2  504  502 -0.37152529609E+02  0.48628490714E+02 -0.16228553065E+03  0.17344057779E+03  0.00000000000E+00 0. -1.
         21    1    1    2  505  503 -0.14373647341E+03 -0.14618595059E+03 -0.18756670004E+02  0.20586966413E+03  0.00000000000E+00 0. -1.
          2    1    1    2  501    0 -0.53306209509E+02 -0.58336661833E+02  0.26738280047E+04  0.26749954984E+04  0.00000000000E+00 0.  1.
<scales pt_clust_3="215.46111" pt_clust_4="61.19674" pt_clust_5="14000.00000" pt_clust_6="78.98112"></scales>
<clustering>
<clus scale="   61.197">  2  4  1 -1</clus>
<clus scale="   78.981">  1  6  2 -1</clus>
<clus scale="  215.461">  1  3  2 -1</clus>
<clus scale="   61.197">  2  3  1 -1</clus>
</clustering>
</event>
<event>
 6    0  0.6525019E+002  0.1415745E+03  0.7546771E-02  0.1211226E+00
          2   -1    0    0  502    0 -0.00000000000E+00  0.00000000000E+00  0.59764430808E+03  0.59764430808E+03  0.00000000000E+00 0.  1.
         21   -1    0    0  503  502  0.00000000000E+00 -0.00000000000E+00 -0.14049171518E+03  0.14049171518E+03  0.00000000000E+00 0.  1.
         21    1    1    2  503  505 -0.47975358997E+02  0.15458162666E+03 -0.14985822775E+02  0.16254749846E+03  0.00000000000E+00 0.  1.
         21    1    1    2  504  501  0.60546446433E+02 -0.57898323604E+02  0.44945897729E+02  0.95069562818E+02  0.00000000000E+00 0.  1.
         21    1    1    2  505  504 -0.58304381861E+02 -0.11116436841E+03  0.13471391595E+03  0.18413244391E+03  0.00000000000E+00 0.  1.
          2    1    1    2  501    0  0.45733294425E+02  0.14481065355E+02  0.29247860199E+03  0.29638651808E+03  0.00000000000E+00 0.  1.
<scales pt_clust_3="141.57453" pt_clust_4="89.62281" pt_clust_5="14000.00000" pt_clust_6="47.97119"></scales>
<clustering>
<clus scale="   47.971">  1  6  2 -1</clus>
<clus scale="   89.623">  1  4  2 -1</clus>
<clus scale="  141.575">  2  3  1 -1</clus>
<clus scale="  141.575">  2  3  1 -1</clus>
</clustering>
</event>
<event>
 6    0  0.6525019E+002  0.9188560E+02  0.7546771E-02  0.1298349E+00
          2   -1    0    0  503    0 -0.00000000000E+00  0.00000000000E+00  0.20600223153E+04  0.20600223153E+04  0.00000000000E+00 0. -1.
         21   -1    0    0  505  502  0.00000000000E+00 -0.00000000000E+00 -0.82788327405E+02  0.82788327405E+02  0.00000000000E+00 0.  1.
         21    1    1    2  503  502 -0.16183952401E+02 -0.40450325866E+02  0.85268804711E+03  0.85380036007E+03  0.00000000000E+00 0. -1.
         21    1    1    2  504  501 -0.10580050617E+03  0.36792176964E+01  0.10392518511E+03  0.14835001803E+03  0.00000000000E+00 0.  1.
         21    1    1    2  505  504  0.30736193442E+02  0.51278443510E+02 -0.42614603495E+02  0.73417959568E+02  0.00000000000E+00 0.  1.
          2    1    1    2  501    0  0.91248265128E+02 -0.14507335340E+02  0.10632353592E+04  0.10672423051E+04  0.00000000000E+00 0. -1.
<scales pt_clust_3="43.56775" pt_clust_4="14000.00000" pt_clust_5="59.23562" pt_clust_6="91.88560"></scales>
<clustering>
<clus scale="   43.568">  1  3  2 -1</clus>
<clus scale="   59.236">  2  5  1 -1</clus>
<clus scale="   91.886">  1  6  2 -1</clus>
<clus scale="   59.236">  2  3  1 -1</clus>
</clustering>
</event>
<event>
 6    0  0.6525019E+002  0.1366106E+03  0.7546771E-02  0.1217964E+00
         21   -1    0    0  501  502  0.00000000000E+00  0.00000000000E+00  0.21408009436E+03  0.21408009436E+03  0.00000000000E+00 0.  1.
          1   -1    0    0  505    0 -0.00000000000E+00 -0.00000000000E+00 -0.19550607649E+04  0.19550607649E+04  0.00000000000E+00 0. -1.
         21    1    1    2  503  504  0.13857570034E+03 -0.10413048533E+02 -0.53214017850E+02  0.14880654556E+03  0.00000000000E+00 0.  1.
         21    1    1    2  504  502 -0.13158317714E+03 -0.42389504386E+02  0.13442519049E+03  0.19282410230E+03  0.00000000000E+00 0.  1.
         21    1    1    2  505  503  0.22520140331E+02  0.26187410312E+02 -0.12044480665E+03  0.12529919644E+03  0.00000000000E+00 0.  1.
          1    1    1    2  501    0 -0.29512663533E+02  0.26615142607E+02 -0.17017470365E+04  0.17022110150E+04  0.00000000000E+00 0. -1.
<scales pt_clust_3="14000.00000" pt_clust_4="136.61065" pt_clust_5="34.53892" pt_clust_6="51.66113"></scales>
<clustering>
<clus scale="   34.539">  2  5  1 -1</clus>
<clus scale="   51.661">  2  6  1 -1</clus>
<clus scale="  136.611">  1  4  2 -1</clus>
<clus scale="  136.611">  1  3  2 -1</clus>
</clustering>
</event>
<event>
 6    0  0.6525019E+002  0.1153938E+03  0.7546771E-02  0.1250895E+00
         21   -1    0    0  505  502  0.00000000000E+00  0.00000000000E+00  0.29047287572E+03  0.29047287572E+03  0.00000000000E+00 0.  1.
          1   -1    0    0  503    0 -0.00000000000E+00 -0.00000000000E+00 -0.31568185707E+04  0.31568185707E+04  0.00000000000E+00 0.  1.
         21    1    1    2  503  502 -0.12171319853E+02 -0.29436198695E+02 -0.88462373046E+02  0.94022456177E+02  0.00000000000E+00 0.  1.
         21    1    1    2  504  501  0.74113625132E+02  0.34880598009E+02  0.61998710135E+02  0.10272938044E+03  0.00000000000E+00 0.  1.
         21    1    1    2  505  504  0.42889242447E+02 -0.25651325607E+02  0.20133735725E+03  0.20744688247E+03  0.00000000000E+00 0.  1.
          1    1    1    2  501    0 -0.10483154773E+03  0.20206926294E+02 -0.30412193893E+04  0.30430927273E+04  0.00000000000E+00 0.  1.
<scales pt_clust_3="31.85327" pt_clust_4="115.39379" pt_clust_5="49.97943" pt_clust_6="14000.00000"></scales>
<clustering>
<clus scale="   31.853">  2  3  1 -1</clus>
<clus scale="   49.979">  1  5  2 -1</clus>
<clus scale="  115.394">  1  4  2 -1</clus>
<clus scale="   49.979">  1  3  2 -1</clus>
</clustering>
</event>
<event>
 6    0  0.6525019E+002  0.9031473E+02  0.7546771E-02  0.1302091E+00
         21   -1    0    0  503  502  0.00000000000E+00  0.00000000000E+00  0.26534284865E+03  0.26534284865E+03  0.00000000000E+00 0. -1.
          1   -1    0    0  504    0 -0.00000000000E+00 -0.00000000000E+00 -0.12957069818E+04  0.12957069818E+04  0.00000000000E+00 0.  1.
         21    1    1    2  503  501 -0.39788504337E+02 -0.49036418467E+02 -0.14445975394E+02  0.64779484550E+02  0.00000000000E+00 0.  1.
         21    1    1    2  504  505 -0.61116799252E+02  0.58645234269E+01 -0.13359927019E+03  0.14703203998E+03  0.00000000000E+00 0.  1.
         21    1    1    2  505  502  0.81225903813E+00  0.40205534912E+02  0.22946088061E+03  0.23295802311E+03  0.00000000000E+00 0. -1.
          1    1    1    2  501    0  0.10009304455E+03  0.29663601282E+01 -0.11117797682E+04  0.11162802828E+04  0.00000000000E+00 0.  1.
<scales pt_clust_3="43.72529" pt_clust_4="14000.00000" pt_clust_5="40.21374" pt_clust_6="90.31473"></scales>
<clustering>
<clus scale="   40.214">  1  5  2 -1</clus>
<clus scale="   43.725">  1  3  2 -1</clus>
<clus scale="   90.315">  2  6  1 -1</clus>
<clus scale="   40.214">  1  3  2 -1</clus>
</clustering>
</event>
<event>
 6    0  0.6525019E+002  0.1364287E+03  0.7546771E-02  0.1218217E+00
         21   -1    0    0  503  502  0.00000000000E+00  0.00000000000E+00  0.12507242771E+04  0.12507242771E+04  0.00000000000E+00 0. -1.
          2   -1    0    0  505    0 -0.00000000000E+00 -0.00000000000E+00 -0.65064168191E+03  0.65064168191E+03  0.00000000000E+00 0.  1.
         21    1    1    2  503  504  0.26433828240E+02 -0.44714636427E+02  0.10115500955E+03  0.11371227701E+03  0.00000000000E+00 0. -1.
         21    1    1    2  504  501 -0.25100829310E+02 -0.19296543252E+03  0.47863719045E+02  0.20039123080E+03  0.00000000000E+00 0. -1.
         21    1    1    2  505  502 -0.14593528648E+02  0.10556382390E+03  0.10085587979E+04  0.10141733288E+04  0.00000000000E+00 0. -1.
          2    1    1    2  501    0  0.13260529719E+02  0.13211624505E+03 -0.55749493128E+03  0.57308912244E+03  0.00000000000E+00 0.  1.
<scales pt_clust_3="51.94368" pt_clust_4="14000.00000" pt_clust_5="66.59152" pt_clust_6="136.42873"></scales>
<clustering>
<clus scale="   51.944">  1  3  2 -1</clus>
<clus scale="   66.592">  1  5  2 -1</clus>
<clus scale="  136.429">  2  6  1 -1</clus>
<clus scale="   51.944">  1  3  2 -1</clus>
</clustering>
</event>
<event>
 6    0  0.6525019E+002  0.2644122E+03  0.7546771E-02  0.1104521E+00
          2   -1    0    0  505    0 -0.00000000000E+00  0.00000000000E+00  0.26120836766E+04  0.26120836766E+04  0.00000000000E+00 0.  1.
         21   -1    0    0  504  502  0.00000000000E+00 -0.00000000000E+00 -0.16149809907E+03  0.16149809907E+03  0.00000000000E+00 0.  1.
         21    1    1    2  503  502 -0.11063908619E+02  0.37260828324E+02 -0.27658765951E+00  0.38869729894E+02  0.00000000000E+00 0.  1.
         21    1    1    2  504  501  0.51726163774E+01 -0.93221056637E+02  0.47930754089E+02  0.10494893305E+03  0.00000000000E+00 0. -1.
         21    1    1    2  505  503 -0.25612757490E+03  0.14036150915E+02  0.49282149423E+02  0.26120313629E+03  0.00000000000E+00 0.  1.
          2    1    1    2  501    0  0.26201886714E+03  0.41924077398E+02  0.23536492617E+04  0.23685599764E+04  0.00000000000E+00 0.  1.
<scales pt_clust_3="38.86875" pt_clust_4="85.78705" pt_clust_5="14000.00000" pt_clust_6="264.41221"></scales>
<clustering>
<clus scale="   38.869">  2  3  1 -1</clus>
<clus scale="   85.787">  2  4  1 -1</clus>
<clus scale="  264.412">  1  6  2 -1</clus>
<clus scale="   38.869">  2  3  1 -1</clus>
</clustering>
</event>
<event>
 6    0  0.6525019E+002  0.1103106E+03  0.7546771E-02  0.1259996E+00
         -1   -1    0    0    0  501 -0.00000000000E+00  0.00000000000E+00  0.49228059326E+03  0.49228059326E+03  0.00000000000E+00 0.  1.
         21   -1    0    0  505  502  0.00000000000E+00 -0.00000000000E+00 -0.20881962920E+03  0.20881962920E+03  0.00000000000E+00 0.  1.
         21    1    1    2  503  502  0.95386792027E+02  0.80189675893E+02 -0.41234743711E+02  0.13126053597E+03  0.00000000000E+00 0.  1.
         21    1    1    2  504  501 -0.42315017401E+02 -0.20301597556E+02 -0.38044359472E+02  0.60415965180E+02  0.00000000000E+00 0.  1.
         21    1    1    2  505  504  0.26589877449E+02  0.14775041504E+02 -0.62971811571E+02  0.69934058131E+02  0.00000000000E+00 0. -1.
         -1    1    1    2    0  503 -0.79661652075E+02 -0.74663119841E+02  0.42571187882E+03  0.43948966318E+03  0.00000000000E+00 0.  1.
<scales pt_clust_3="14000.00000" pt_clust_4="36.43848" pt_clust_5="30.41913" pt_clust_6="110.31062"></scales>
<clustering>
<clus scale="   30.419">  2  5  1 -1</clus>
<clus scale="   36.438">  2  4  1 -1</clus>
<clus scale="  110.311">  1  6  2 -1</clus>
<clus scale="   30.419">  2  3  1 -1</clus>
</clustering>
</event>
<event>
 6    0  0.6525019E+002  0.7577605E+02  0.7546771E-02  0.1341485E+00
         21   -1    0    0  505  502  0.00000000000E+00  0.00000000000E+00  0.30672226084E+03  0.30672226084E+03  0.00000000000E+00 0.  1.
          1   -1    0    0  503    0 -0.00000000000E+00 -0.00000000000E+00 -0.46603309152E+03  0.46603309152E+03  0.00000000000E+00 0.  1.
         21    1    1    2  503  504 -0.51668213912E+02 -0.21434742506E+01  0.99360713005E+02  0.11201227656E+03  0.00000000000E+00 0.  1.
         21    1    1    2  504  502 -0.97412275608E+01  0.45753093222E+02  0.11686543088E+03  0.12587996659E+03  0.00000000000E+00 0.  1.
         21    1    1    2  505  501  0.11593405392E+03 -0.68196013300E+02  0.18981013419E+02  0.13583696095E+03  0.00000000000E+00 0. -1.
          1    1    1    2  501    0 -0.54524612451E+02  0.24586394329E+02 -0.39451798798E+03  0.39902614826E+03  0.00000000000E+00 0.  1.
<scales pt_clust_3="75.77605" pt_clust_4="46.77860" pt_clust_5="14000.00000" pt_clust_6="60.15004"></scales>
<clustering>
<clus scale="   46.779">  1  4  2 -1</clus>
<clus scale="   60.150">  2  6  1 -1</clus>
<clus scale="   75.776">  1  3  2 -1</clus>
<clus scale="   46.779">  1  3  2 -1</clus>
</clustering>
</event>
<event>
 6    0  0.6525019E+002  0.9002383E+02  0.7546771E-02  0.1302794E+00
         -1   -1    0    0    0  501 -0.00000000000E+00  0.00000000000E+00  0.60469641097E+03  0.60469641097E+03  0.00000000000E+00 0.  1.
         21   -1    0    0  503  502  0.00000000000E+00 -0.00000000000E+00 -0.41552340779E+03  0.41552340779E+03  0.00000000000E+00 0.  1.
         21    1    1    2  503  501  0.75246385970E+02 -0.82265855246E+02 -0.31079722666E+03  0.33018874245E+03  0.00000000000E+00 0.  1.
         21    1    1    2  504  505  0.26060253153E+02  0.30698078303E+02  0.54847188914E+01  0.40639770512E+02  0.00000000000E+00 0.  1.
         21    1    1    2  505  502 -0.14361849755E+02  0.28400563209E+02 -0.70465896355E+02  0.77319449482E+02  0.00000000000E+00 0.  1.
         -1    1    1    2    0  504 -0.86944789368E+02  0.23167213733E+02  0.56495140730E+03  0.57207185632E+03  0.00000000000E+00 0.  1.
<scales pt_clust_3="90.02383" pt_clust_4="40.93155" pt_clust_5="31.82538" pt_clust_6="14000.00000"></scales>
<clustering>
<clus scale="   31.825">  2  5  1 -1</clus>
<clus scale="   40.932">  2  4  1 -1</clus>
<clus scale="   90.024">  2  3  1 -1</clus>
<clus scale="   31.825">  2  3  1 -1</clus>
</clustering>
</event>
<event>
 6    0  0.6525019E+002  0.1185465E+03  0.7546771E-02  0.1245514E+00
          2   -1    0    0  504    0 -0.00000000000E+00  0.00000000000E+00  0.28449035992E+04  0.28449035992E+04  0.00000000000E+00 0.  1.
         21   -1    0    0  505  502  0.00000000000E+00 -0.00000000000E+00 -0.77703437833E+02  0.77703437833E+02  0.00000000000E+00 0. -1.
         21    1    1    2  503  501  0.86784388777E+02 -0.26415428235E+02  0.29622111675E+02  0.95429421482E+02  0.00000000000E+00 0. -1.
         21    1    1    2  504  502 -0.89824965884E-01  0.66943814865E+02  0.10527001270E+03  0.12475278751E+03  0.00000000000E+00 0. -1.
         21    1    1    2  505  503  0.68720627758E+01  0.36809247954E+02 -0.23261494776E+02  0.44082231352E+02  0.00000000000E+00 0. -1.
          2    1    1    2  501    0 -0.93566626587E+02 -0.77337634585E+02  0.26555695318E+04  0.26583425967E+04  0.00000000000E+00 0.  1.
<scales pt_clust_3="118.54650" pt_clust_4="75.10099" pt_clust_5="37.44524" pt_clust_6="14000.00000"></scales>
<clustering>
<clus scale="   37.445">  2  5  1 -1</clus>
<clus scale="   75.101">  2  4  1 -1</clus>
<clus scale="  118.547">  2  3  1 -1</clus>
<clus scale="   37.445">  2  3  1 -1</clus>
</clustering>
</event>
<event>
 6    0  0.6525019E+002  0.1339269E+03  0.7546771E-02  0.1221743E+00
         21   -1    0    0  503  502  0.00000000000E+00  0.00000000000E+00  0.81120574194E+02  0.81120574194E+02  0.00000000000E+00 0.  1.
          1   -1    0    0  502    0 -0.00000000000E+00 -0.00000000000E+00 -0.18486429311E+04  0.18486429311E+04  0.00000000000E+00 0. -1.
         21    1    1    2  503  505 -0.26898327728E+02 -0.49107915140E+02  0.55060170188E+02  0.78528527970E+02  0.00000000000E+00 0.  1.
         21    1    1    2  504  501 -0.54602680778E+02  0.37347075402E+02 -0.24361169230E+03  0.25243397833E+03  0.00000000000E+00 0.  1.
         21    1    1    2  505  504 -0.49481718155E+02  0.32680846008E+02 -0.12039873523E+03  0.13421003529E+03  0.00000000000E+00 0.  1.
          1    1    1    2  501    0  0.13098272666E+03 -0.20920006270E+02 -0.14585720996E+04  0.14645909637E+04  0.00000000000E+00 0. -1.
<scales pt_clust_3="55.99203" pt_clust_4="33.50776" pt_clust_5="33.50776" pt_clust_6="129.16607"></scales>
<clustering>
<clus scale="   33.508">  4  5 -1 -1</clus>
<clus scale="   55.992">  1  3  2 -1</clus>
<clus scale="  129.166">  2  6  1 -1</clus>
<clus scale="   55.992">  1  3  2 -1</clus>
</clustering>
</event>
<event>
 6    0  0.6525019E+002  0.1246513E+03  0.7546771E-02  0.1235615E+00
          2   -1    0    0  504    0 -0.00000000000E+00  0.00000000000E+00  0.14842862762E+04  0.14842862762E+04  0.00000000000E+00 0. -1.
         21   -1    0    0  503  502  0.00000000000E+00 -0.00000000000E+00 -0.10025959287E+03  0.10025959287E+03  0.00000000000E+00 0.  1.
         21    1    1    2  503  505 -0.31868578635E+02  0.20842625804E+01 -0.30629012578E+02  0.44250275324E+02  0.00000000000E+00 0.  1.
         21    1    1    2  504  502  0.64765313687E+01  0.86160865699E+02  0.25863494271E+03  0.27268603526E+03  0.00000000000E+00 0. -1.
         21    1    1    2  505  501  0.31976039075E+02  0.62302799930E+02 -0.26982189243E+02  0.75047614821E+02  0.00000000000E+00 0.  1.
          2    1    1    2  501    0 -0.65839918093E+01 -0.15054792821E+03  0.11830029425E+04  0.11925619437E+04  0.00000000000E+00 0. -1.
<scales pt_clust_3="31.93666" pt_clust_4="14000.00000" pt_clust_5="64.28509" pt_clust_6="124.65129"></scales>
<clustering>
<clus scale="   31.937">  2  3  1 -1</clus>
<clus scale="   64.285">  2  5  1 -1</clus>
<clus scale="  124.651">  1  6  2 -1</clus>
<clus scale="   31.937">  2  3  1 -1</clus>
</clustering>
</event>
<event>
 6    0  0.6525019E+002  0.1685858E+03  0.7546771E-02  0.1179331E+00
         -2   -1    0    0    0  501 -0.00000000000E+00  0.00000000000E+00  0.19218582093E+04  0.19218582093E+04  0.00000000000E+00 0. -1.
         21   -1    0    0  503  502  0.00000000000E+00 -0.00000000000E+00 -0.67226107841E+03  0.67226107841E+03  0.00000000000E+00 0.  1.
         21    1    1    2  503  501 -0.88689071106E+02 -0.75935283847E+02 -0.46567625610E+03  0.48008988134E+03  0.00000000000E+00 0.  1.
         21    1    1    2  504  505 -0.27042669764E+02 -0.94402974372E+02  0.31362002371E+02  0.10308638490E+03  0.00000000000E+00 0. -1.
         21    1    1    2  505  502 -0.21989663923E+02  0.72363600036E+02 -0.15067310769E+03  0.16858950534E+03  0.00000000000E+00 0.  1.
         -2    1    1    2    0  504  0.13772140479E+03  0.97974658183E+02  0.18345844924E+04  0.18423535162E+04  0.00000000000E+00 0. -1.
<scales pt_clust_3="14000.00000" pt_clust_4="93.80095" pt_clust_5="75.63092" pt_clust_6="168.58584"></scales>
<clustering>
<clus scale="   75.631">  2  5  1 -1</clus>
<clus scale="   93.801">  2  4  1 -1</clus>
<clus scale="  168.586">  1  6  2 -1</clus>
<clus scale="   75.631">  2  3  1 -1</clus>
</clustering>
</event>
<event>
 6    0  0.6525019E+002  0.1252677E+03  0.7546771E-02  0.1234652E+00
          2   -1    0    0  503    0 -0.00000000000E+00  0.00000000000E+00  0.21725823221E+04  0.21725823221E+04  0.00000000000E+00 0.  1.
         21   -1    0    0  505  502  0.00000000000E+00 -0.00000000000E+00 -0.16016084855E+02  0.16016084855E+02  0.00000000000E+00 0.  1.
         21    1    1    2  503  504 -0.55687238088E+02  0.28629994638E+02  0.14884429754E+03  0.16147869825E+03  0.00000000000E+00 0.  1.
         21    1    1    2  504  502 -0.64786118383E+02  0.32965918511E+02  0.43156545007E+03  0.43764452540E+03  0.00000000000E+00 0. -1.
         21    1    1    2  505  501  0.54666756393E+02 -0.79901050328E+02  0.40821254610E+03  0.41953559431E+03  0.00000000000E+00 0.  1.
          2    1    1    2  501    0  0.65806600078E+02  0.18305137180E+02  0.11679439435E+04  0.11699395890E+04  0.00000000000E+00 0.  1.
<scales pt_clust_3="56.95082" pt_clust_4="56.95082" pt_clust_5="109.20951" pt_clust_6="68.30510"></scales>
<clustering>
<clus scale="   56.951">  3  4 -1 -1</clus>
<clus scale="   68.305">  1  6  2 -1</clus>
<clus scale="  109.210">  2  5  1 -1</clus>
<clus scale="  109.210">  2  3  1 -1</clus>
</clustering>
</event>
<event>
 6    0  0.6525019E+002  0.1115209E+03  0.7546771E-02  0.1257779E+00
         21   -1    0    0  503  502  0.00000000000E+00  0.00000000000E+00  0.29398101795E+03  0.29398101795E+03  0.00000000000E+00 0. -1.
          1   -1    0    0  504    0 -0.00000000000E+00 -0.00000000000E+00 -0.10921556431E+03  0.10921556431E+03  0.00000000000E+00 0.  1.
         21    1    1    2  503  505 -0.14470797634E+02 -0.34758027322E+02  0.43542535965E+02  0.57562808182E+02  0.00000000000E+00 0.  1.
         21    1    1    2  504  502 -0.10243449453E+02  0.12105739742E+03  0.15395518525E+03  0.19611736484E+03  0.00000000000E+00 0. -1.
         21    1    1    2  505  501  0.28407342988E+02 -0.50247124612E+02  0.50461096132E+02  0.76668591289E+02  0.00000000000E+00 0. -1.
          1    1    1    2  501    0 -0.36930959010E+01 -0.36052245492E+02 -0.63193363710E+02  0.72847817944E+02  0.00000000000E+00 0.  1.
<scales pt_clust_3="33.89448" pt_clust_4="103.32294" pt_clust_5="33.89448" pt_clust_6="36.24091"></scales>
<clustering>
<clus scale="   33.894">  3  5 -1 -1</clus>
<clus scale="   36.241">  2  6  1 -1</clus>
<clus scale="  103.323">  2  4  1 -1</clus>
<clus scale="  111.521">  1  3  2 -1</clus>
</clustering>
</event>
<event>
 6    0  0.6525019E+002  0.1982235E+03  0.7546771E-02  0.1151247E+00
          2   -1    0    0  504    0 -0.00000000000E+00  0.00000000000E+00  0.14512477982E+04  0.14512477982E+04  0.00000000000E+00 0.  1.
         21   -1    0    0  505  502  0.00000000000E+00 -0.00000000000E+00 -0.26657940231E+03  0.26657940231E+03  0.00000000000E+00 0. -1.
         21    1    1    2  503  501  0.37340519695E+02 -0.25866351738E+03  0.78027297521E+02  0.27274418196E+03  0.00000000000E+00 0. -1.
         21    1    1    2  504  502 -0.80175798683E+02  0.20283273942E+03  0.58380958551E+03  0.62321979350E+03  0.00000000000E+00 0. -1.
         21    1    1    2  505  503  0.11144434774E+03  0.14106815417E+03 -0.88805776251E+02  0.20051566687E+03  0.00000000000E+00 0. -1.
          2    1    1    2  501    0 -0.68609068756E+02 -0.85237376220E+02  0.61163728916E+03  0.62134755822E+03  0.00000000000E+00 0.  1.
<scales pt_clust_3="198.22352" pt_clust_4="14000.00000" pt_clust_5="172.45670" pt_clust_6="109.41944"></scales>
<clustering>
<clus scale="  109.419">  1  6  2 -1</clus>
<clus scale="  172.457">  2  5  1 -1</clus>
<clus scale="  198.224">  2  3  1 -1</clus>
<clus scale="  172.457">  2  3  1 -1</clus>
</clustering>
</event>
<event>
 6    0  0.6525019E+002  0.7020979E+02  0.7546771E-02  0.1359381E+00
          2   -1    0    0  504    0 -0.00000000000E+00  0.00000000000E+00  0.24393320012E+04  0.24393320012E+04  0.00000000000E+00 0.  1.
         21   -1    0    0  503  502  0.00000000000E+00 -0.00000000000E+00 -0.11634707897E+03  0.11634707897E+03  0.00000000000E+00 0.  1.
         21    1    1    2  503  505 -0.96862496872E+00 -0.11246081405E+03  0.54689670987E+03  0.55834074202E+03  0.00000000000E+00 0. -1.
         21    1    1    2  504  502  0.69129927433E+01  0.67722608124E+02 -0.96249557448E+02  0.11789028132E+03  0.00000000000E+00 0.  1.
         21    1    1    2  505  501  0.62189332004E+02  0.43034975600E+02  0.52856470015E+03  0.53394771691E+03  0.00000000000E+00 0. -1.
          2    1    1    2  501    0 -0.68133699779E+02  0.17032303289E+01  0.13437730696E+04  0.13455003399E+04  0.00000000000E+00 0.  1.
<scales pt_clust_3="14000.00000" pt_clust_4="68.07453" pt_clust_5="70.20979" pt_clust_6="67.96355"></scales>
<clustering>
<clus scale="   68.075">  2  4  1 -1</clus>
<clus scale="   67.964">  1  6  2 -1</clus>
<clus scale="   70.210">  1  5  2 -1</clus>
<clus scale="   68.075">  2  3  1 -1</clus>
</clustering>
</event>
<event>
 6    0  0.6525019E+002  0.8435563E+02  0.7546771E-02  0.1317126E+00
         21   -1    0    0  504  502  0.00000000000E+00  0.00000000000E+00  0.31251375638E+03  0.31251375638E+03  0.00000000000E+00 0. -1.
         -4   -1    0    0    0  501 -0.00000000000E+00 -0.00000000000E+00 -0.82741509655E+02  0.82741509655E+02  0.00000000000E+00 0. -1.
         21    1    1    2  503  502  0.17217462268E+02  0.30887527259E+02  0.13645316031E+03  0.14096079351E+03  0.00000000000E+00 0.  1.
         21    1    1    2  504  501 -0.96858224368E+02  0.26246718985E+02  0.47226450017E+02  0.11090871682E+03  0.00000000000E+00 0. -1.
         21    1    1    2  505  503  0.31107354907E+01 -0.51661284118E+02  0.41823694335E+02  0.66541613745E+02  0.00000000000E+00 0. -1.
         -4    1    1    2    0  505  0.76530026609E+02 -0.54729621266E+01  0.42689420575E+01  0.76844141959E+02  0.00000000000E+00 0. -1.
<scales pt_clust_3="35.36213" pt_clust_4="14000.00000" pt_clust_5="42.87890" pt_clust_6="84.35563"></scales>
<clustering>
<clus scale="   35.362">  1  3  2 -1</clus>
<clus scale="   42.879">  1  5  2 -1</clus>
<clus scale="   84.356">  2  6  1 -1</clus>
<clus scale="   35.362">  1  3  2 -1</clus>
</clustering>
</event>
<event>
 6    0  0.6525019E+002  0.1164854E+03  0.7546771E-02  0.1249010E+00
         21   -1    0    0  503  502  0.00000000000E+00  0.00000000000E+00  0.13438017121E+03  0.13438017121E+03  0.00000000000E+00 0. -1.
         -1   -1    0    0    0  501 -0.00000000000E+00 -0.00000000000E+00 -0.54492461488E+03  0.54492461488E+03  0.00000000000E+00 0. -1.
         21    1    1    2  503  501 -0.36187647144E+02 -0.11488619741E+02 -0.48685064901E+02  0.61739531370E+02  0.00000000000E+00 0. -1.
         21    1    1    2  504  502  0.24756483886E+02  0.22430003330E+02  0.15885512337E+02  0.36991053594E+02  0.00000000000E+00 0. -1.
         21    1    1    2  505  504 -0.21593766622E+02  0.97829708397E+02  0.67660449043E+02  0.12089201366E+03  0.00000000000E+00 0. -1.
         -1    1    1    2    0  505  0.33024929880E+02 -0.10877109199E+03 -0.44540534015E+03  0.45968218747E+03  0.00000000000E+00 0. -1.
<scales pt_clust_3="36.14004" pt_clust_4="33.40641" pt_clust_5="14000.00000" pt_clust_6="116.48543"></scales>
<clustering>
<clus scale="   33.406">  1  4  2 -1</clus>
<clus scale="   36.140">  2  3  1 -1</clus>
<clus scale="  116.485">  2  6  1 -1</clus>
<clus scale="   33.406">  1  3  2 -1</clus>
</clustering>
</event>
<event>
 6    0  0.6525019E+002  0.7988801E+02  0.7546771E-02  0.1329370E+00
          1   -1    0    0  502    0 -0.00000000000E+00  0.00000000000E+00  0.35650956295E+04  0.35650956295E+04  0.00000000000E+00 0.  1.
         21   -1    0    0  504  502  0.00000000000E+00 -0.00000000000E+00 -0.99442236729E+03  0.99442236729E+03  0.00000000000E+00 0. -1.
         21    1    1    2  503  501 -0.60413704899E+02 -0.50777013797E+02  0.51811156023E+03  0.52408750196E+03  0.00000000000E+00 0.  1.
         21    1    1    2  504  505  0.30503489013E+02 -0.39204097952E+02 -0.98429114766E+03  0.98554375220E+03  0.00000000000E+00 0. -1.
         21    1    1    2  505  503  0.67068149599E+02  0.38527635351E+02  0.23674409969E+03  0.24905879650E+03  0.00000000000E+00 0.  1.
          1    1    1    2  501    0 -0.37157933713E+02  0.51453476398E+02  0.28001087500E+04  0.28008279462E+04  0.00000000000E+00 0.  1.
<scales pt_clust_3="14000.00000" pt_clust_4="49.67317" pt_clust_5="79.88801" pt_clust_6="61.58985"></scales>
<clustering>
<clus scale="   49.673">  2  4  1 -1</clus>
<clus scale="   61.590">  1  6  2 -1</clus>
<clus scale="   79.888">  2  5  1 -1</clus>
<clus scale="   49.673">  2  3  1 -1</clus>
</clustering>
</event>
<event>
 6    0  0.6525019E+002  0.1022698E+03  0.7546771E-02  0.1275594E+00
         21   -1    0    0  504  502  0.00000000000E+00  0.00000000000E+00  0.29157935916E+03  0.29157935916E+03  0.00000000000E+00 0. -1.
         -1   -1    0    0    0  501 -0.00000000000E+00 -0.00000000000E+00 -0.95722478727E+03  0.95722478727E+03  0.00000000000E+00 0.  1.
         21    1    1    2  503  502 -0.30707276757E+02  0.97535478291E+01  0.24942765081E+03  0.25149994340E+03  0.00000000000E+00 0. -1.
         21    1    1    2  504  501 -0.39102100414E+02 -0.93091182268E+02 -0.64933695892E+03  0.65714034170E+03  0.00000000000E+00 0.  1.
         21    1    1    2  505  503 -0.45416961343E+02  0.22531733191E+02 -0.79417177930E+01  0.51317153660E+02  0.00000000000E+00 0.  1.
         -1    1    1    2    0  505  0.11522633851E+03  0.60805901248E+02 -0.25779440222E+03  0.28884670766E+03  0.00000000000E+00 0.  1.
<scales pt_clust_3="32.21907" pt_clust_4="14000.00000" pt_clust_5="67.54508" pt_clust_6="102.26982"></scales>
<clustering>
<clus scale="   32.219">  1  3  2 -1</clus>
<clus scale="   67.545">  1  5  2 -1</clus>
<clus scale="  102.270">  1  6  2 -1</clus>
<clus scale="   32.219">  1  3  2 -1</clus>
</clustering>
</event>
<event>
 6    0  0.6525019E+002  0.1538055E+03  0.7546771E-02  0.1195873E+00
          2   -1    0    0  505    0 -0.00000000000E+00  0.00000000000E+00  0.20141888428E+04  0.20141888428E+04  0.00000000000E+00 0. -1.
         21   -1    0    0  504  502  0.00000000000E+00 -0.00000000000E+00 -0.20682101552E+03  0.20682101552E+03  0.00000000000E+00 0. -1.
         21    1    1    2  503  502  0.36682528695E+02  0.21593444874E+02 -0.16436223779E+03  0.16978465768E+03  0.00000000000E+00 0. -1.
         21    1    1    2  504  501  0.76919191652E+02  0.21157442824E+02  0.20772073839E+03  0.22251315599E+03  0.00000000000E+00 0.  1.
         21    1    1    2  505  503 -0.91010718991E+02  0.11612216682E+03  0.16368996107E+03  0.22036722068E+03  0.00000000000E+00 0.  1.
          2    1    1    2  501    0 -0.22591001356E+02 -0.15887305451E+03  0.16003193656E+04  0.16083448240E+04  0.00000000000E+00 0. -1.
<scales pt_clust_3="42.56624" pt_clust_4="87.44737" pt_clust_5="153.80548" pt_clust_6="14000.00000"></scales>
<clustering>
<clus scale="   42.566">  2  3  1 -1</clus>
<clus scale="   87.447">  2  4  1 -1</clus>
<clus scale="  153.805">  2  5  1 -1</clus>
<clus scale="   42.566">  2  3  1 -1</clus>
</clustering>
</event>
<event>
 6    0  0.6525019E+002  0.1706011E+03  0.7546771E-02  0.1177222E+00
         -2   -1    0    0    0  501 -0.00000000000E+00  0.00000000000E+00  0.80579172694E+02  0.80579172694E+02  0.00000000000E+00 0. -1.
         21   -1    0    0  504  502  0.00000000000E+00 -0.00000000000E+00 -0.16538810691E+04  0.16538810691E+04  0.00000000000E+00 0.  1.
         21    1    1    2  503  502  0.63120853227E+02 -0.13530858004E+03 -0.27581699556E+03  0.31363620483E+03  0.00000000000E+00 0. -1.
         21    1    1    2  504  505  0.16375764511E+02  0.76538809098E+02 -0.69977630019E+03  0.70414006083E+03  0.00000000000E+00 0. -1.
         21    1    1    2  505  501 -0.34942758003E+02  0.89142516165E+02 -0.64064225161E+03  0.64775757739E+03  0.00000000000E+00 0.  1.
         -2    1    1    2    0  503 -0.44553859734E+02 -0.30372745226E+02  0.42933650900E+02  0.68926398785E+02  0.00000000000E+00 0. -1.
<scales pt_clust_3="161.22788" pt_clust_4="50.42431" pt_clust_5="50.42431" pt_clust_6="53.92170"></scales>
<clustering>
<clus scale="   50.424">  4  5 -1 -1</clus>
<clus scale="   53.922">  1  6  2 -1</clus>
<clus scale="  161.228">  1  3  2 -1</clus>
<clus scale="  170.601">  2  3  1 -1</clus>
</clustering>
</event>
<event>
 6    0  0.6525019E+002  0.8801539E+02  0.7546771E-02  0.1307730E+00
         21   -1    0    0  504  502  0.00000000000E+00  0.00000000000E+00  0.33218775430E+03  0.33218775430E+03  0.00000000000E+00 0.  1.
          2   -1    0    0  505    0 -0.00000000000E+00 -0.00000000000E+00 -0.46675622915E+03  0.46675622915E+03  0.00000000000E+00 0. -1.
         21    1    1    2  503  502 -0.87218747355E+01 -0.96487349148E+02  0.14177066141E+03  0.17171138600E+03  0.00000000000E+00 0.  1.
         21    1    1    2  504  501 -0.72999471559E+02  0.42977132596E+02  0.94149633227E+02  0.12664955669E+03  0.00000000000E+00 0. -1.
         21    1    1    2  505  503  0.81887257969E+02  0.18612632491E+02  0.36883412129E+02  0.91718805030E+02  0.00000000000E+00 0.  1.
          2    1    1    2  501    0 -0.16591167440E+00  0.34897584061E+02 -0.40737218162E+03  0.40886423573E+03  0.00000000000E+00 0. -1.
<scales pt_clust_3="88.01539" pt_clust_4="14000.00000" pt_clust_5="78.59505" pt_clust_6="34.89798"></scales>
<clustering>
<clus scale="   34.898">  2  6  1 -1</clus>
<clus scale="   88.015">  1  3  2 -1</clus>
<clus scale="   78.595">  2  5  1 -1</clus>
<clus scale="   88.015">  1  3  2 -1</clus>
</clustering>
</event>
<event>
 6    0  0.6525019E+002  0.9052089E+02  0.7546771E-02  0.1301595E+00
          2   -1    0    0  504    0 -0.00000000000E+00  0.00000000000E+00  0.21764375712E+04  0.21764375712E+04  0.00000000000E+00 0. -1.
         21   -1    0    0  505  502  0.00000000000E+00 -0.00000000000E+00 -0.32475368891E+02  0.32475368891E+02  0.00000000000E+00 0. -1.
         21    1    1    2  503  501 -0.46695050650E+02 -0.23297299114E+02  0.35552006566E+02  0.63143780946E+02  0.00000000000E+00 0. -1.
         21    1    1    2  504  502  0.10236344994E+03  0.11081939879E+02  0.16441008392E+03  0.19398907436E+03  0.00000000000E+00 0. -1.
         21    1    1    2  505  503  0.22292036850E+02 -0.34865357939E+02  0.15395928857E+03  0.15942393367E+03  0.00000000000E+00 0. -1.
          2    1    1    2  501    0 -0.77960436138E+02  0.47080717174E+02  0.17900408233E+04  0.17923561511E+04  0.00000000000E+00 0. -1.
<scales pt_clust_3="53.66107" pt_clust_4="14000.00000" pt_clust_5="41.38270" pt_clust_6="90.52089"></scales>
<clustering>
<clus scale="   41.383">  2  5  1 -1</clus>
<clus scale="   53.661">  2  3  1 -1</clus>
<clus scale="   90.521">  1  6  2 -1</clus>
<clus scale="   41.383">  2  3  1 -1</clus>
</clustering>
</event>
<event>
 6    0  0.6525019E+002  0.1676456E+03  0.7546771E-02  0.1180326E+00
          2   -1    0    0  503    0 -0.00000000000E+00  0.00000000000E+00  0.21545974632E+04  0.21545974632E+04  0.00000000000E+00 0. -1.
         21   -1    0    0  505  502  0.00000000000E+00 -0.00000000000E+00 -0.14276577871E+04  0.14276577871E+04  0.00000000000E+00 0. -1.
         21    1    1    2  503  502 -0.16458247239E+03  0.34186604009E+02 -0.12734768125E+04  0.12845229878E+04  0.00000000000E+00 0. -1.
         21    1    1    2  504  501  0.38410838781E+02  0.12946523216E+02 -0.62060127090E+02  0.74124654290E+02  0.00000000000E+00 0.  1.
         21    1    1    2  505  504  0.14645472430E+03 -0.81940423032E+02  0.72388611798E+01  0.16797505859E+03  0.00000000000E+00 0.  1.
          2    1    1    2  501    0 -0.20283090692E+02  0.34807295806E+02  0.20552377545E+04  0.20556325496E+04  0.00000000000E+00 0. -1.
<scales pt_clust_3="167.64561" pt_clust_4="40.11296" pt_clust_5="14000.00000" pt_clust_6="40.28587"></scales>
<clustering>
<clus scale="   40.286">  1  6  2 -1</clus>
<clus scale="   40.113">  1  4  2 -1</clus>
<clus scale="  167.646">  2  3  1 -1</clus>
<clus scale="  167.646">  2  3  1 -1</clus>
</clustering>
</event>
<event>
 6    0  0.6525019E+002  0.1116827E+03  0.7546771E-02  0.1257485E+00
         21   -1    0    0  505  502  0.00000000000E+00  0.00000000000E+00  0.19546508440E+03  0.19546508440E+03  0.00000000000E+00 0.  1.
          2   -1    0    0  502    0 -0.00000000000E+00 -0.00000000000E+00 -0.91315421324E+03  0.91315421324E+03  0.00000000000E+00 0. -1.
         21    1    1    2  503  504 -0.46147251771E+02 -0.72748215586E+02 -0.20764499868E+02  0.88617358185E+02  0.00000000000E+00 0. -1.
         21    1    1    2  504  501  0.60084394915E+02  0.12544039832E+03 -0.12608281978E+03  0.18772934104E+03  0.00000000000E+00 0. -1.
         21    1    1    2  505  503 -0.51658578563E+02 -0.11343734030E+02  0.12419403546E+03  0.13498684190E+03  0.00000000000E+00 0.  1.
          2    1    1    2  501    0  0.37721435419E+02 -0.41348448709E+02 -0.69503584465E+03  0.69728575652E+03  0.00000000000E+00 0. -1.
<scales pt_clust_3="14000.00000" pt_clust_4="111.68268" pt_clust_5="52.88940" pt_clust_6="55.52371"></scales>
<clustering>
<clus scale="   52.889">  1  5  2 -1</clus>
<clus scale="   55.524">  2  6  1 -1</clus>
<clus scale="  111.683">  2  4  1 -1</clus>
<clus scale="   52.889">  1  3  2 -1</clus>
</clustering>
</event>
<event>
 6    0  0.6525019E+002  0.6719971E+02  0.7546771E-02  0.1369883E+00
          2   -1    0    0  503    0 -0.00000000000E+00  0.00000000000E+00  0.13973218334E+04  0.13973218334E+04  0.00000000000E+00 0. -1.
         21   -1    0    0  504  502  0.00000000000E+00 -0.00000000000E+00 -0.16714638554E+03  0.16714638554E+03  0.00000000000E+00 0.  1.
         21    1    1    2  503  505 -0.56580710039E+02  0.18102289630E+02  0.14072527253E+02  0.61050025894E+02  0.00000000000E+00 0.  1.
         21    1    1    2  504  501  0.88919514517E+02 -0.51115367231E+02  0.70557377855E+01  0.10280682985E+03  0.00000000000E+00 0.  1.
         21    1    1    2  505  502 -0.62965543313E+02 -0.10592154449E+02 -0.84531322601E+02  0.10593581963E+03  0.00000000000E+00 0.  1.
          2    1    1    2  501    0  0.30626738835E+02  0.43605232050E+02  0.12935785055E+04  0.12946755436E+04  0.00000000000E+00 0. -1.
<scales pt_clust_3="56.73085" pt_clust_4="67.19971" pt_clust_5="14000.00000" pt_clust_6="53.28615"></scales>
<clustering>
<clus scale="   53.286">  1  6  2 -1</clus>
<clus scale="   56.731">  1  3  2 -1</clus>
<clus scale="   67.200">  1  4  2 -1</clus>
<clus scale="   67.200">  2  3  1 -1</clus>
</clustering>
</event>
<event>
 6    0  0.6525019E+002  0.1140821E+03  0.7546771E-02  0.1253192E+00
          1   -1    0    0  505    0 -0.00000000000E+00  0.00000000000E+00  0.63487300555E+03  0.63487300555E+03  0.00000000000E+00 0. -1.
         21   -1    0    0  503  502  0.00000000000E+00 -0.00000000000E+00 -0.32118377683E+03  0.32118377683E+03  0.00000000000E+00 0. -1.
         21    1    1    2  503  504  0.14081771744E+03 -0.41286393017E+02 -0.19611282334E+03  0.24493761507E+03  0.00000000000E+00 0. -1.
         21    1    1    2  504  501 -0.16394540610E+02  0.12483548381E+03  0.70442114953E+01  0.12610432147E+03  0.00000000000E+00 0. -1.
         21    1    1    2  505  502 -0.58480471049E+02 -0.42959979734E+02 -0.37130139991E+01  0.72658873001E+02  0.00000000000E+00 0. -1.
          1    1    1    2  501    0 -0.65942705783E+02 -0.40589111055E+02  0.50647085457E+03  0.51235597284E+03  0.00000000000E+00 0. -1.
<scales pt_clust_3="14000.00000" pt_clust_4="114.08215" pt_clust_5="72.56394" pt_clust_6="78.18531"></scales>
<clustering>
<clus scale="   72.564">  2  5  1 -1</clus>
<clus scale="   78.185">  1  6  2 -1</clus>
<clus scale="  114.082">  1  4  2 -1</clus>
<clus scale="   72.564">  2  3  1 -1</clus>
</clustering>
</event>
<event>
 6    0  0.6525019E+002  0.9755541E+02  0.7546771E-02  0.1285522E+00
          2   -1    0    0  505    0 -0.00000000000E+00  0.00000000000E+00  0.95044336472E+03  0.95044336472E+03  0.00000000000E+00 0.  1.
         21   -1    0    0  503  502  0.00000000000E+00 -0.00000000000E+00 -0.14371830281E+04  0.14371830281E+04  0.00000000000E+00 0. -1.
         21    1    1    2  503  504  0.35066779359E+02 -0.19317787953E+02 -0.12403897072E+04  0.12410356489E+04  0.00000000000E+00 0. -1.
         21    1    1    2  504  501  0.33492693677E+02  0.95343513052E+02  0.10512398788E+03  0.14581906199E+03  0.00000000000E+00 0.  1.
         21    1    1    2  505  502  0.21411382472E+02 -0.30581891799E+02 -0.17102159954E+03  0.17504881295E+03  0.00000000000E+00 0.  1.
          2    1    1    2  501    0 -0.89970855508E+02 -0.45443833299E+02  0.81954765550E+03  0.82572286904E+03  0.00000000000E+00 0.  1.
<scales pt_clust_3="74.69153" pt_clust_4="97.55541" pt_clust_5="37.33228" pt_clust_6="14000.00000"></scales>
<clustering>
<clus scale="   37.332">  2  5  1 -1</clus>
<clus scale="   74.692">  2  3  1 -1</clus>
<clus scale="   97.555">  2  4  1 -1</clus>
<clus scale="   37.332">  2  3  1 -1</clus>
</clustering>
</event>
<event>
 6    0  0.6525019E+002  0.1128110E+03  0.7546771E-02  0.1255451E+00
         21   -1    0    0  501  502  0.00000000000E+00  0.00000000000E+00  0.18740582556E+04  0.18740582556E+04  0.00000000000E+00 0.  1.
          1   -1    0    0  505    0 -0.00000000000E+00 -0.00000000000E+00 -0.58790358754E+03  0.58790358754E+03  0.00000000000E+00 0. -1.
         21    1    1    2  503  504  0.37577287607E+02 -0.77072366989E+01  0.32584537652E+03  0.32809550963E+03  0.00000000000E+00 0.  1.
         21    1    1    2  504  502  0.17830858633E+02  0.27435272252E+02  0.15042339958E+04  0.15045898271E+04  0.00000000000E+00 0.  1.
         21    1    1    2  505  503  0.48760902577E+02 -0.76658316478E+02 -0.21268535729E+02  0.93308486845E+02  0.00000000000E+00 0.  1.
          1    1    1    2  501    0 -0.10416904882E+03  0.56930280925E+02 -0.52265616847E+03  0.53596801962E+03  0.00000000000E+00 0. -1.
<scales pt_clust_3="55.86081" pt_clust_4="32.72054" pt_clust_5="112.81105" pt_clust_6="14000.00000"></scales>
<clustering>
<clus scale="   32.721">  1  4  2 -1</clus>
<clus scale="   55.861">  1  3  2 -1</clus>
<clus scale="  112.811">  1  5  2 -1</clus>
<clus scale="   32.721">  1  3  2 -1</clus>
</clustering>
</event>
<event>
 6    0  0.6525019E+002  0.1083500E+03  0.7546771E-02  0.1263656E+00
         21   -1    0    0  503  502  0.00000000000E+00  0.00000000000E+00  0.43452173812E+03  0.43452173812E+03  0.00000000000E+00 0.  1.
          2   -1    0    0  504    0 -0.00000000000E+00 -0.00000000000E+00 -0.18692873092E+04  0.18692873092E+04  0.00000000000E+00 0.  1.
         21    1    1    2  503  501 -0.35173759014E+02  0.22209051666E+02  0.43359223594E+02  0.60087083219E+02  0.00000000000E+00 0. -1.
         21    1    1    2  504  505 -0.35051258320E+02 -0.13440915850E+03  0.46931226696E+02  0.14661839119E+03  0.00000000000E+00 0.  1.
         21    1    1    2  505  502 -0.47115287929E+01  0.83909195979E+02  0.27894246054E+03  0.29132773291E+03  0.00000000000E+00 0.  1.
          2    1    1    2  501    0  0.74936546127E+02  0.28290910851E+02 -0.18039984819E+04  0.18057758400E+04  0.00000000000E+00 0.  1.
<scales pt_clust_3="41.59850" pt_clust_4="108.35003" pt_clust_5="14000.00000" pt_clust_6="80.04093"></scales>
<clustering>
<clus scale="   41.599">  1  3  2 -1</clus>
<clus scale="   80.041">  2  6  1 -1</clus>
<clus scale="  108.350">  2  4  1 -1</clus>
<clus scale="   41.599">  1  3  2 -1</clus>
</clustering>
</event>
<event>
 6    0  0.6525019E+002  0.1573414E+03  0.7546771E-02  0.1191731E+00
         21   -1    0    0  504  502  0.00000000000E+00  0.00000000000E+00  0.50094392729E+03  0.50094392729E+03  0.00000000000E+00 0. -1.
          2   -1    0    0  505    0 -0.00000000000E+00 -0.00000000000E+00 -0.90657388786E+03  0.90657388786E+03  0.00000000000E+00 0. -1.
         21    1    1    2  503  502  0.94891640742E+02 -0.12570211226E+03  0.45616140265E+03  0.48258540154E+03  0.00000000000E+00 0. -1.
         21    1    1    2  504  501 -0.15195690561E+03  0.76584448833E+02 -0.31632011373E+03  0.35918587572E+03  0.00000000000E+00 0. -1.
         21    1    1    2  505  503  0.88420452638E+02  0.60026830434E+02 -0.30906828143E+03  0.32702385143E+03  0.00000000000E+00 0. -1.
          2    1    1    2  501    0 -0.31355187767E+02 -0.10909167012E+02 -0.23640296806E+03  0.23872268646E+03  0.00000000000E+00 0. -1.
<scales pt_clust_3="157.34141" pt_clust_4="14000.00000" pt_clust_5="91.71611" pt_clust_6="33.19876"></scales>
<clustering>
<clus scale="   33.199">  2  6  1 -1</clus>
<clus scale="   91.716">  2  5  1 -1</clus>
<clus scale="  157.341">  1  3  2 -1</clus>
<clus scale="  157.341">  1  3  2 -1</clus>
</clustering>
</event>
<event>
 6    0  0.6525019E+002  0.8597343E+02  0.7546771E-02  0.1312906E+00
         21   -1    0    0  505  502  0.00000000000E+00  0.00000000000E+00  0.10924955649E+04  0.10924955649E+04  0.00000000000E+00 0.  1.
         -1   -1    0    0    0  501 -0.00000000000E+00 -0.00000000000E+00 -0.44251926618E+03  0.44251926618E+03  0.00000000000E+00 0. -1.
         21    1    1    2  503  502  0.90672413330E+02 -0.44360099513E+02  0.47054877382E+03  0.48125404259E+03  0.00000000000E+00 0.  1.
         21    1    1    2  504  503 -0.10737616876E+03 -0.97846430925E+01  0.53961476558E+03  0.55028126998E+03  0.00000000000E+00 0.  1.
         21    1    1    2  505  501 -0.46758366745E+02 -0.38541585770E+01  0.59105799352E+02  0.75463202397E+02  0.00000000000E+00 0.  1.
         -1    1    1    2    0  504  0.63462122174E+02  0.57998901182E+02 -0.41929304000E+03  0.42801631614E+03  0.00000000000E+00 0. -1.
<scales pt_clust_3="82.98331" pt_clust_4="14000.00000" pt_clust_5="46.91694" pt_clust_6="85.97343"></scales>
<clustering>
<clus scale="   46.917">  1  5  2 -1</clus>
<clus scale="   82.983">  1  3  2 -1</clus>
<clus scale="   85.973">  2  6  1 -1</clus>
<clus scale="   46.917">  1  3  2 -1</clus>
</clustering>
</event>
<event>
 6    0  0.6525019E+002  0.1223937E+03  0.7546771E-02  0.1239200E+00
          1   -1    0    0  503    0 -0.00000000000E+00  0.00000000000E+00  0.33824703777E+04  0.33824703777E+04  0.00000000000E+00 0.  1.
         21   -1    0    0  505  502  0.00000000000E+00 -0.00000000000E+00 -0.17051859733E+02  0.17051859733E+02  0.00000000000E+00 0.  1.
         21    1    1    2  503  504 -0.53985017605E+02  0.22173741783E+02  0.14105070326E+04  0.14117139037E+04  0.00000000000E+00 0.  1.
         21    1    1    2  504  502 -0.24524664624E+02  0.50618007225E+02  0.29806831851E+03  0.30332880564E+03  0.00000000000E+00 0.  1.
         21    1    1    2  505  501  0.16096214324E+03 -0.32060536155E+02  0.55376810164E+03  0.57757752721E+03  0.00000000000E+00 0.  1.
          1    1    1    2  501    0 -0.82452461011E+02 -0.40731212853E+02  0.11030750652E+04  0.11069020009E+04  0.00000000000E+00 0.  1.
<scales pt_clust_3="60.13584" pt_clust_4="56.24626" pt_clust_5="14000.00000" pt_clust_6="122.39375"></scales>
<clustering>
<clus scale="   56.246">  2  4  1 -1</clus>
<clus scale="   60.136">  1  3  2 -1</clus>
<clus scale="  122.394">  1  6  2 -1</clus>
<clus scale="   56.246">  2  3  1 -1</clus>
</clustering>
</event>
<event>
 6    0  0.6525019E+002  0.8369306E+02  0.7546771E-02  0.1318886E+00
          2   -1    0    0  505    0 -0.00000000000E+00  0.00000000000E+00  0.14856730769E+03  0.14856730769E+03  0.00000000000E+00 0.  1.
         21   -1    0    0  504  502  0.00000000000E+00 -0.00000000000E+00 -0.68498169486E+03  0.68498169486E+03  0.00000000000E+00 0. -1.
         21    1    1    2  503  502 -0.63291053411E+02 -0.27719294617E+02 -0.51866307999E+02  0.86395779072E+02  0.00000000000E+00 0.  1.
         21    1    1    2  504  501  0.28351978815E+02 -0.80753411323E+02 -0.53944503121E+03  0.54619217299E+03  0.00000000000E+00 0. -1.
         21    1    1    2  505  503 -0.28066079213E+02  0.62854440562E+02 -0.38931236102E+02  0.79082404144E+02  0.00000000000E+00 0.  1.
          2    1    1    2  501    0  0.63005153809E+02  0.45618265378E+02  0.93828188140E+02  0.12187864633E+03  0.00000000000E+00 0.  1.
<scales pt_clust_3="69.77688" pt_clust_4="83.69306" pt_clust_5="68.83593" pt_clust_6="14000.00000"></scales>
<clustering>
<clus scale="   68.836">  1  5  2 -1</clus>
<clus scale="   69.777">  1  3  2 -1</clus>
<clus scale="   83.693">  2  4  1 -1</clus>
<clus scale="   83.693">  2  3  1 -1</clus>
</clustering>
</event>
<event>
 6    0  0.6525019E+002  0.1420606E+03  0.7546771E-02  0.1210583E+00
          3   -1    0    0  504    0 -0.00000000000E+00  0.00000000000E+00  0.86773128209E+03  0.86773128209E+03  0.00000000000E+00 0. -1.
         21   -1    0    0  505  502  0.00000000000E+00 -0.00000000000E+00 -0.33133534861E+03  0.33133534861E+03  0.00000000000E+00 0. -1.
         21    1    1    2  503  501  0.26295608632E+02  0.82174511101E+02 -0.24905505271E+03  0.26357641888E+03  0.00000000000E+00 0. -1.
         21    1    1    2  504  502  0.47301243182E+02 -0.40249263084E+02  0.10686061555E+03  0.12359855153E+03  0.00000000000E+00 0. -1.
         21    1    1    2  505  503 -0.89534571316E+01  0.45817953509E+02 -0.53917858854E+02  0.71320296983E+02  0.00000000000E+00 0. -1.
          3    1    1    2  501    0 -0.64643394682E+02 -0.87743201526E+02  0.73250822949E+03  0.74057136331E+03  0.00000000000E+00 0. -1.
<scales pt_clust_3="44.62531" pt_clust_4="62.10806" pt_clust_5="44.62531" pt_clust_6="128.45547"></scales>
<clustering>
<clus scale="   44.625">  3  5 -1 -1</clus>
<clus scale="   62.108">  1  4  2 -1</clus>
<clus scale="  128.455">  1  6  2 -1</clus>
<clus scale="  142.061">  2  3  1 -1</clus>
</clustering>
</event>
<event>
 6    0  0.6525019E+002  0.1095981E+03  0.7546771E-02  0.1261316E+00
         21   -1    0    0  505  502  0.00000000000E+00  0.00000000000E+00  0.95159352934E+03  0.95159352934E+03  0.00000000000E+00 0.  1.
          2   -1    0    0  503    0 -0.00000000000E+00 -0.00000000000E+00 -0.17469845003E+04  0.17469845003E+04  0.00000000000E+00 0.  1.
         21    1    1    2  503  502 -0.41310833024E+01 -0.34485932491E+02 -0.29795705525E+02  0.45761659244E+02  0.00000000000E+00 0.  1.
         21    1    1    2  504  501 -0.62324357798E+02  0.15368119321E+03 -0.17147328410E+03  0.23854836382E+03  0.00000000000E+00 0.  1.
         21    1    1    2  505  504  0.83343134276E+02 -0.70249469031E+02  0.90636110582E+03  0.91289184467E+03  0.00000000000E+00 0.  1.
          2    1    1    2  501    0 -0.16887693176E+02 -0.48945791683E+02 -0.15004830871E+04  0.15013761619E+04  0.00000000000E+00 0.  1.
<scales pt_clust_3="34.73248" pt_clust_4="109.59807" pt_clust_5="14000.00000" pt_clust_6="81.84242"></scales>
<clustering>
<clus scale="   34.732">  2  3  1 -1</clus>
<clus scale="   81.842">  2  6  1 -1</clus>
<clus scale="  109.598">  2  4  1 -1</clus>
<clus scale="  109.598">  1  3  2 -1</clus>
</clustering>
</event>
<event>
 6    0  0.6525019E+002  0.8414942E+02  0.7546771E-02  0.1317672E+00
         21   -1    0    0  504  502  0.00000000000E+00  0.00000000000E+00  0.92310324901E+02  0.92310324901E+02  0.00000000000E+00 0.  1.
          2   -1    0    0  505    0 -0.00000000000E+00 -0.00000000000E+00 -0.59950016812E+03  0.59950016812E+03  0.00000000000E+00 0.  1.
         21    1    1    2  503  502  0.10628880851E+03  0.74902233223E+02  0.15756260960E+02  0.13098059060E+03  0.00000000000E+00 0.  1.
         21    1    1    2  504  501 -0.26630479424E+02 -0.38383237355E+02 -0.40755698331E+02  0.61995824784E+02  0.00000000000E+00 0.  1.
         21    1    1    2  505  503 -0.63917302645E+02  0.19678100972E+02 -0.30624455045E+03  0.31346191780E+03  0.00000000000E+00 0.  1.
          2    1    1    2  501    0 -0.15741026437E+02 -0.56197096841E+02 -0.17594585540E+03  0.18537215983E+03  0.00000000000E+00 0.  1.
<scales pt_clust_3="14000.00000" pt_clust_4="46.71676" pt_clust_5="84.14942" pt_clust_6="60.91330"></scales>
<clustering>
<clus scale="   46.717">  1  4  2 -1</clus>
<clus scale="   60.913">  2  6  1 -1</clus>
<clus scale="   84.149">  2  5  1 -1</clus>
<clus scale="   46.717">  1  3  2 -1</clus>
</clustering>
</event>
<event>
 6    0  0.6525019E+002  0.1130695E+03  0.7546771E-02  0.1254989E+00
         21   -1    0    0  503  502  0.00000000000E+00  0.00000000000E+00  0.68077110086E+03  0.68077110086E+03  0.00000000000E+00 0.  1.
          2   -1    0    0  504    0 -0.00000000000E+00 -0.00000000000E+00 -0.18423421647E+03  0.18423421647E+03  0.00000000000E+00 0.  1.
         21    1    1    2  503  501  0.86877086679E+02 -0.38021791246E+02 -0.63631619677E+02  0.11420274875E+03  0.00000000000E+00 0.  1.
         21    1    1    2  504  505 -0.11367819149E+03 -0.37770526311E+02  0.43031848557E+03  0.44668035876E+03  0.00000000000E+00 0.  1.
         21    1    1    2  505  502 -0.23285585285E+01  0.49437774771E+02  0.20952431056E+03  0.21529039104E+03  0.00000000000E+00 0.  1.
          2    1    1    2  501    0  0.29129663337E+02  0.26354542787E+02 -0.79674292059E+02  0.88831818774E+02  0.00000000000E+00 0.  1.
<scales pt_clust_3="113.06950" pt_clust_4="14000.00000" pt_clust_5="50.21980" pt_clust_6="39.28230"></scales>
<clustering>
<clus scale="   39.282">  2  6  1 -1</clus>
<clus scale="   50.220">  1  5  2 -1</clus>
<clus scale="  113.069">  2  3  1 -1</clus>
<clus scale="   50.220">  1  3  2 -1</clus>
</clustering>
</event>
<event>
 6    0  0.6525019E+002  0.1533558E+03  0.7546771E-02  0.1196409E+00
          1   -1    0    0  505    0 -0.00000000000E+00  0.00000000000E+00  0.14770092507E+04  0.14770092507E+04  0.00000000000E+00 0.  1.
         21   -1    0    0  503  502  0.00000000000E+00 -0.00000000000E+00 -0.87261851872E+03  0.87261851872E+03  0.00000000000E+00 0. -1.
         21    1    1    2  503  501  0.48363326168E+02 -0.32739527634E+02 -0.53914557918E+03  0.54229958836E+03  0.00000000000E+00 0. -1.
         21    1    1    2  504  502 -0.19408021233E+03  0.73077604150E+02 -0.28892036257E+03  0.35564369944E+03  0.00000000000E+00 0. -1.
         21    1    1    2  505  504 -0.37341838962E+02 -0.49343091388E+01  0.11283244887E+03  0.11895344409E+03  0.00000000000E+00 0. -1.
          1    1    1    2  501    0  0.18305872512E+03 -0.35403767377E+02  0.13196242248E+04  0.13327310375E+04  0.00000000000E+00 0.  1.
<scales pt_clust_3="58.37019" pt_clust_4="14000.00000" pt_clust_5="37.66644" pt_clust_6="153.35581"></scales>
<clustering>
<clus scale="   37.666">  1  5  2 -1</clus>
<clus scale="   58.370">  2  3  1 -1</clus>
<clus scale="  153.356">  1  6  2 -1</clus>
<clus scale="   58.370">  2  3  1 -1</clus>
</clustering>
</event>
<event>
 6    0  0.6525019E+002  0.7763030E+02  0.7546771E-02  0.1335914E+00
          1   -1    0    0  504    0 -0.00000000000E+00  0.00000000000E+00  0.85684491932E+03  0.85684491932E+03  0.00000000000E+00 0.  1.
         21   -1    0    0  501  502  0.00000000000E+00 -0.00000000000E+00 -0.22874480431E+03  0.22874480431E+03  0.00000000000E+00 0. -1.
         21    1    1    2  503  505  0.42460151711E+02  0.29731352773E+02 -0.98340308098E+02  0.11116489562E+03  0.00000000000E+00 0. -1.
         21    1    1    2  504  503 -0.10460295317E+03 -0.38091417058E+02  0.34768485243E+03  0.36507189768E+03  0.00000000000E+00 0.  1.
         21    1    1    2  505  502  0.36332746735E+02 -0.26976536132E+02 -0.10984268860E+03  0.11879906660E+03  0.00000000000E+00 0. -1.
          1    1    1    2  501    0  0.25810054725E+02  0.35336600417E+02  0.48859825928E+03  0.49055386373E+03  0.00000000000E+00 0.  1.
<scales pt_clust_3="14000.00000" pt_clust_4="77.63030" pt_clust_5="45.25161" pt_clust_6="43.75882"></scales>
<clustering>
<clus scale="   43.759">  1  6  2 -1</clus>
<clus scale="   45.252">  2  5  1 -1</clus>
<clus scale="   77.630">  1  4  2 -1</clus>
<clus scale="   45.252">  2  3  1 -1</clus>
</clustering>
</event>
<event>
 6    0  0.6525019E+002  0.1281235E+03  0.7546771E-02  0.1230267E+00
          2   -1    0    0  503    0 -0.00000000000E+00  0.00000000000E+00  0.28640403730E+04  0.28640403730E+04  0.00000000000E+00 0. -1.
         21   -1    0    0  504  502  0.00000000000E+00 -0.00000000000E+00 -0.27721659035E+02  0.27721659035E+02  0.00000000000E+00 0.  1.
         21    1    1    2  503  505 -0.12942987977E+03 -0.39932543633E+02  0.33744299416E+03  0.36361308575E+03  0.00000000000E+00 0.  1.
         21    1    1    2  504  501  0.87818887059E+02  0.66797754143E+02  0.58023139581E+03  0.59062896099E+03  0.00000000000E+00 0. -1.
         21    1    1    2  505  502 -0.63525657916E+01 -0.55838359124E+02  0.78608459710E+02  0.96631089095E+02  0.00000000000E+00 0.  1.
          2    1    1    2  501    0  0.47963558507E+02  0.28973148615E+02  0.18400358642E+04  0.18408888962E+04  0.00000000000E+00 0. -1.
<scales pt_clust_3="128.12352" pt_clust_4="14000.00000" pt_clust_5="53.40550" pt_clust_6="56.03522"></scales>
<clustering>
<clus scale="   56.035">  1  6  2 -1</clus>
<clus scale="   53.405">  2  5  1 -1</clus>
<clus scale="  128.124">  2  3  1 -1</clus>
<clus scale="   53.405">  2  3  1 -1</clus>
</clustering>
</event>
<event>
 6    0  0.6525019E+002  0.1209372E+03  0.7546771E-02  0.1241559E+00
         21   -1    0    0  505  502  0.00000000000E+00  0.00000000000E+00  0.63611622624E+03  0.63611622624E+03  0.00000000000E+00 0.  1.
          2   -1    0    0  504    0 -0.00000000000E+00 -0.00000000000E+00 -0.11817403361E+04  0.11817403361E+04  0.00000000000E+00 0.  1.
         21    1    1    2  503  502  0.15397681670E+02  0.66068717244E+02  0.47099414794E+03  0.47585465364E+03  0.00000000000E+00 0.  1.
         21    1    1    2  504  503 -0.62844497367E+02 -0.13102453032E+03 -0.82593769845E+03  0.83862383708E+03  0.00000000000E+00 0.  1.
         21    1    1    2  505  501 -0.18405691512E+02  0.55796278680E+02  0.14747528815E+03  0.15874808601E+03  0.00000000000E+00 0. -1.
          2    1    1    2  501    0  0.65852507209E+02  0.91595343964E+01 -0.33815584755E+03  0.34462998565E+03  0.00000000000E+00 0.  1.
<scales pt_clust_3="14000.00000" pt_clust_4="120.93718" pt_clust_5="58.75367" pt_clust_6="66.41693"></scales>
<clustering>
<clus scale="   58.754">  1  5  2 -1</clus>
<clus scale="   66.417">  2  6  1 -1</clus>
<clus scale="  120.937">  2  4  1 -1</clus>
<clus scale="   58.754">  1  3  2 -1</clus>
</clustering>
</event>
<event>
 6    0  0.6525019E+002  0.1573072E+03  0.7546771E-02  0.1191771E+00
          2   -1    0    0  504    0 -0.00000000000E+00  0.00000000000E+00  0.97659196512E+03  0.97659196512E+03  0.00000000000E+00 0.  1.
         21   -1    0    0  505  502  0.00000000000E+00 -0.00000000000E+00 -0.54460877890E+03  0.54460877890E+03  0.00000000000E+00 0.  1.
         21    1    1    2  503  501  0.10274202524E+03  0.90573564069E+02  0.10874005718E+03  0.17488251569E+03  0.00000000000E+00 0.  1.
         21    1    1    2  504  502  0.10376504191E+03 -0.87422534811E+02 -0.45304159058E+03  0.47292342542E+03  0.00000000000E+00 0.  1.
         21    1    1    2  505  503 -0.38053030604E+02  0.88898991139E+01 -0.30218714035E+02  0.49398725919E+02  0.00000000000E+00 0.  1.
          2    1    1    2  501    0 -0.16845403655E+03 -0.12040928372E+02  0.80650343366E+03  0.82399607699E+03  0.00000000000E+00 0.  1.
<scales pt_clust_3="157.30717" pt_clust_4="105.00419" pt_clust_5="39.07766" pt_clust_6="14000.00000"></scales>
<clustering>
<clus scale="   39.078">  2  5  1 -1</clus>
<clus scale="  105.004">  2  4  1 -1</clus>
<clus scale="  157.307">  2  3  1 -1</clus>
<clus scale="   39.078">  2  3  1 -1</clus>
</clustering>
</event>
<event>
 6    0  0.6525019E+002  0.9813333E+02  0.7546771E-02  0.1284271E+00
          1   -1    0    0  505    0 -0.00000000000E+00  0.00000000000E+00  0.59165157208E+03  0.59165157208E+03  0.00000000000E+00 0.  1.
         21   -1    0    0  503  502  0.00000000000E+00 -0.00000000000E+00 -0.76283219814E+02  0.76283219814E+02  0.00000000000E+00 0.  1.
         21    1    1    2  503  504  0.30016047770E+02 -0.56297768396E+01 -0.17114308498E+02  0.35007957186E+02  0.00000000000E+00 0.  1.
         21    1    1    2  504  501  0.77673895893E+02  0.89830098497E+02  0.85261031160E+02  0.14619207959E+03  0.00000000000E+00 0.  1.
         21    1    1    2  505  502 -0.64676352615E+02 -0.54331544254E+02  0.81816563272E+02  0.11759633206E+03  0.00000000000E+00 0. -1.
          1    1    1    2  501    0 -0.43013591048E+02 -0.29868777404E+02  0.36540506633E+03  0.36913842306E+03  0.00000000000E+00 0.  1.
<scales pt_clust_3="30.53944" pt_clust_4="98.13333" pt_clust_5="14000.00000" pt_clust_6="51.57640"></scales>
<clustering>
<clus scale="   30.539">  2  3  1 -1</clus>
<clus scale="   51.576">  1  6  2 -1</clus>
<clus scale="   98.133">  1  4  2 -1</clus>
<clus scale="   30.539">  2  3  1 -1</clus>
</clustering>
</event>
<event>
 6    0  0.6525019E+002  0.1159476E+03  0.7546771E-02  0.1249936E+00
         21   -1    0    0  503  502  0.00000000000E+00  0.00000000000E+00  0.44655162198E+03  0.44655162198E+03  0.00000000000E+00 0.  1.
          2   -1    0    0  504    0 -0.00000000000E+00 -0.00000000000E+00 -0.12583484466E+04  0.12583484466E+04  0.00000000000E+00 0. -1.
         21    1    1    2  503  505 -0.55388809101E+02 -0.29115033446E+02  0.13603724134E+03  0.14973889400E+03  0.00000000000E+00 0.  1.
         21    1    1    2  504  502  0.15896655785E+02 -0.41967779641E+02  0.30106731727E+02  0.54040850182E+02  0.00000000000E+00 0. -1.
         21    1    1    2  505  501  0.71210562882E+02 -0.41071366545E+02  0.25230826515E+03  0.26536251069E+03  0.00000000000E+00 0.  1.
          2    1    1    2  501    0 -0.31718409566E+02  0.11215417963E+03 -0.12302490628E+04  0.12357578137E+04  0.00000000000E+00 0. -1.
<scales pt_clust_3="66.39392" pt_clust_4="44.87759" pt_clust_5="115.94759" pt_clust_6="14000.00000"></scales>
<clustering>
<clus scale="   44.878">  1  4  2 -1</clus>
<clus scale="   66.394">  1  3  2 -1</clus>
<clus scale="  115.948">  1  5  2 -1</clus>
<clus scale="   44.878">  1  3  2 -1</clus>
</clustering>
</event>
<event>
 6    0  0.6525019E+002  0.2336475E+03  0.7546771E-02  0.1124099E+00
         21   -1    0    0  504  502  0.00000000000E+00  0.00000000000E+00  0.73020953870E+03  0.73020953870E+03  0.00000000000E+00 0.  1.
          2   -1    0    0  503    0 -0.00000000000E+00 -0.00000000000E+00 -0.18119221016E+04  0.18119221016E+04  0.00000000000E+00 0. -1.
         21    1    1    2  503  502  0.90098727429E+02 -0.15599137809E+02 -0.89492058285E+02  0.12794507525E+03  0.00000000000E+00 0.  1.
         21    1    1    2  504  505  0.36649796840E+02  0.95534295414E+01  0.48993397307E+03  0.49139574030E+03  0.00000000000E+00 0.  1.
         21    1    1    2  505  501 -0.10923630353E+03 -0.22748944629E+03  0.13675537248E+03  0.28702970244E+03  0.00000000000E+00 0. -1.
          2    1    1    2  501    0 -0.17512220743E+02  0.23353515456E+03 -0.16189098502E+04  0.16357611224E+04  0.00000000000E+00 0. -1.
<scales pt_clust_3="94.21520" pt_clust_4="37.87447" pt_clust_5="233.64746" pt_clust_6="14000.00000"></scales>
<clustering>
<clus scale="   37.874">  1  4  2 -1</clus>
<clus scale="   94.215">  1  3  2 -1</clus>
<clus scale="  233.647">  1  5  2 -1</clus>
<clus scale="   37.874">  1  3  2 -1</clus>
</clustering>
</event>
<event>
 6    0  0.6525019E+002  0.1003736E+03  0.7546771E-02  0.1279512E+00
         21   -1    0    0  505  502  0.00000000000E+00  0.00000000000E+00  0.17881980724E+03  0.17881980724E+03  0.00000000000E+00 0. -1.
          2   -1    0    0  503    0 -0.00000000000E+00 -0.00000000000E+00 -0.58364065749E+03  0.58364065749E+03  0.00000000000E+00 0. -1.
         21    1    1    2  503  504 -0.98466607305E+02 -0.52224484644E+02  0.39060283014E+01  0.11152724603E+03  0.00000000000E+00 0. -1.
         21    1    1    2  504  502  0.28296067382E+02 -0.59175430444E+02  0.61244227608E+02  0.89739926525E+02  0.00000000000E+00 0.  1.
         21    1    1    2  505  501  0.75220515224E+02  0.51407398743E+02 -0.38395455632E+01  0.91189849578E+02  0.00000000000E+00 0. -1.
          2    1    1    2  501    0 -0.50499753008E+01  0.59992516345E+02 -0.46613156060E+03  0.47000344260E+03  0.00000000000E+00 0. -1.
<scales pt_clust_3="14000.00000" pt_clust_4="58.71069" pt_clust_5="100.37359" pt_clust_6="60.20469"></scales>
<clustering>
<clus scale="   60.205">  2  6  1 -1</clus>
<clus scale="   58.711">  1  4  2 -1</clus>
<clus scale="  100.374">  1  5  2 -1</clus>
<clus scale="   58.711">  1  3  2 -1</clus>
</clustering>
</event>
<event>
 6    0  0.6525019E+002  0.1102213E+03  0.7546771E-02  0.1260161E+00
         21   -1    0    0  503  502  0.00000000000E+00  0.00000000000E+00  0.27960230752E+03  0.27960230752E+03  0.00000000000E+00 0.  1.
          4   -1    0    0  505    0 -0.00000000000E+00 -0.00000000000E+00 -0.16443364741E+04  0.16443364741E+04  0.00000000000E+00 0.  1.
         21    1    1    2  503  501 -0.15003629818E+03  0.26069938506E+02 -0.69285691384E+03  0.70939497850E+03  0.00000000000E+00 0. -1.
         21    1    1    2  504  502  0.24499350096E+02 -0.48720175915E+02  0.14138270803E+03  0.15153528904E+03  0.00000000000E+00 0.  1.
         21    1    1    2  505  504  0.72462000690E+02 -0.69282138351E+01  0.11318573731E+03  0.13457248166E+03  0.00000000000E+00 0.  1.
          4    1    1    2  501    0  0.53074947390E+02  0.29578451244E+02 -0.92644569806E+03  0.92843603240E+03  0.00000000000E+00 0.  1.
<scales pt_clust_3="110.22135" pt_clust_4="54.53323" pt_clust_5="14000.00000" pt_clust_6="60.74452"></scales>
<clustering>
<clus scale="   54.533">  1  4  2 -1</clus>
<clus scale="   60.745">  2  6  1 -1</clus>
<clus scale="  110.221">  2  3  1 -1</clus>
<clus scale="   54.533">  1  3  2 -1</clus>
</clustering>
</event>
<event>
 6    0  0.6525019E+002  0.1702781E+03  0.7546771E-02  0.1177558E+00
         21   -1    0    0  503  502  0.00000000000E+00  0.00000000000E+00  0.11098297600E+03  0.11098297600E+03  0.00000000000E+00 0. -1.
          2   -1    0    0  505    0 -0.00000000000E+00 -0.00000000000E+00 -0.23396354590E+04  0.23396354590E+04  0.00000000000E+00 0.  1.
         21    1    1    2  503  504 -0.52732003389E+02 -0.13238879055E+02 -0.10370467358E+03  0.11709223468E+03  0.00000000000E+00 0. -1.
         21    1    1    2  504  501 -0.11795025097E+03 -0.44840043559E+02  0.54179565881E+02  0.13732558600E+03  0.00000000000E+00 0. -1.
         21    1    1    2  505  502  0.64257910029E+02  0.25596752644E+02 -0.16381886300E+03  0.17782264373E+03  0.00000000000E+00 0.  1.
          2    1    1    2  501    0  0.10642434433E+03  0.32482169970E+02 -0.20153085123E+04  0.20183779706E+04  0.00000000000E+00 0.  1.
<scales pt_clust_3="54.36848" pt_clust_4="14000.00000" pt_clust_5="65.55226" pt_clust_6="170.27806"></scales>
<clustering>
<clus scale="   54.368">  1  3  2 -1</clus>
<clus scale="   65.552">  2  5  1 -1</clus>
<clus scale="  170.278">  2  6  1 -1</clus>
<clus scale="   54.368">  1  3  2 -1</clus>
</clustering>
</event>
<event>
 6    0  0.6525019E+002  0.9484851E+02  0.7546771E-02  0.1291518E+00
         21   -1    0    0  504  502  0.00000000000E+00  0.00000000000E+00  0.28462895333E+03  0.28462895333E+03  0.00000000000E+00 0.  1.
          2   -1    0    0  503    0 -0.00000000000E+00 -0.00000000000E+00 -0.19196226636E+04  0.19196226636E+04  0.00000000000E+00 0.  1.
         21    1    1    2  503  502  0.13807939294E+02  0.53258604931E+02  0.16582818544E+03  0.17471727239E+03  0.00000000000E+00 0.  1.
         21    1    1    2  504  505  0.31619735065E+02 -0.14179777597E+03  0.38286828269E+02  0.15024080050E+03  0.00000000000E+00 0.  1.
         21    1    1    2  505  501 -0.37467642473E+02  0.54547092676E+02 -0.35026699725E+02  0.74873755385E+02  0.00000000000E+00 0.  1.
          2    1    1    2  501    0 -0.79600318858E+01  0.33992078363E+02 -0.18040820242E+04  0.18044197886E+04  0.00000000000E+00 0.  1.
<scales pt_clust_3="56.21355" pt_clust_4="14000.00000" pt_clust_5="94.84851" pt_clust_6="34.91165"></scales>
<clustering>
<clus scale="   34.912">  2  6  1 -1</clus>
<clus scale="   56.214">  1  3  2 -1</clus>
<clus scale="   94.849">  2  5  1 -1</clus>
<clus scale="   56.214">  1  3  2 -1</clus>
</clustering>
</event>
<event>
 6    0  0.6525019E+002  0.1023173E+03  0.7546771E-02  0.1275497E+00
         21   -1    0    0  503  502  0.00000000000E+00  0.00000000000E+00  0.36938088811E+03  0.36938088811E+03  0.00000000000E+00 0. -1.
          2   -1    0    0  502    0 -0.00000000000E+00 -0.00000000000E+00 -0.22177854163E+04  0.22177854163E+04  0.00000000000E+00 0.  1.
         21    1    1    2  503  504  0.53349145012E+02  0.12022762077E+02  0.32208198287E+03  0.32669172283E+03  0.00000000000E+00 0. -1.
         21    1    1    2  504  505  0.51888209276E+02 -0.45782200657E+02  0.61437094105E+01  0.69470434893E+02  0.00000000000E+00 0. -1.
         21    1    1    2  505  501 -0.11667847905E+03 -0.18968644000E+02 -0.51077872043E+03  0.52427910332E+03  0.00000000000E+00 0.  1.
          2    1    1    2  501    0  0.11441124758E+02  0.52728082581E+02 -0.16658515000E+04  0.16667250433E+04  0.00000000000E+00 0.  1.
<scales pt_clust_3="54.78257" pt_clust_4="102.31725" pt_clust_5="14000.00000" pt_clust_6="53.95507"></scales>
<clustering>
<clus scale="   53.955">  2  6  1 -1</clus>
<clus scale="   54.783">  1  3  2 -1</clus>
<clus scale="  102.317">  1  4  2 -1</clus>
<clus scale="   54.783">  1  3  2 -1</clus>
</clustering>
</event>
<event>
 6    0  0.6525019E+002  0.1113655E+03  0.7546771E-02  0.1258062E+00
         21   -1    0    0  505  502  0.00000000000E+00  0.00000000000E+00  0.58646376787E+03  0.58646376787E+03  0.00000000000E+00 0. -1.
         -2   -1    0    0    0  501 -0.00000000000E+00 -0.00000000000E+00 -0.16806486432E+03  0.16806486432E+03  0.00000000000E+00 0.  1.
         21    1    1    2  503  504  0.40644356099E+02 -0.11371260260E+03  0.30044077493E+02  0.12443940801E+03  0.00000000000E+00 0. -1.
         21    1    1    2  504  502 -0.49051112763E+02  0.32091789886E+02  0.36040801598E+03  0.36514357809E+03  0.00000000000E+00 0. -1.
         21    1    1    2  505  501 -0.21912707125E+02  0.83438409206E+02  0.13136526357E+03  0.15715905109E+03  0.00000000000E+00 0. -1.
         -2    1    1    2    0  503  0.30319463789E+02 -0.18175964929E+01 -0.10341845349E+03  0.10778659501E+03  0.00000000000E+00 0.  1.
<scales pt_clust_3="111.36552" pt_clust_4="57.61984" pt_clust_5="14000.00000" pt_clust_6="30.37390"></scales>
<clustering>
<clus scale="   30.374">  2  6  1 -1</clus>
<clus scale="   57.620">  1  4  2 -1</clus>
<clus scale="  111.366">  2  3  1 -1</clus>
<clus scale="   57.620">  1  3  2 -1</clus>
</clustering>
</event>
<event>
 6    0  0.6525019E+002  0.1008574E+03  0.7546771E-02  0.1278503E+00
          1   -1    0    0  505    0 -0.00000000000E+00  0.00000000000E+00  0.16455021496E+04  0.16455021496E+04  0.00000000000E+00 0.  1.
         21   -1    0    0  503  502  0.00000000000E+00 -0.00000000000E+00 -0.11178287474E+03  0.11178287474E+03  0.00000000000E+00 0. -1.
         21    1    1    2  503  501  0.28758362382E+02 -0.40502399604E+02 -0.42520805984E+01  0.49855470813E+02  0.00000000000E+00 0. -1.
         21    1    1    2  504  502 -0.89364235645E+02  0.12096858811E+03 -0.13315547406E+02  0.15098566066E+03  0.00000000000E+00 0. -1.
         21    1    1    2  505  504 -0.28169135440E+01 -0.40282756585E+02  0.27483171102E+03  0.27778247760E+03  0.00000000000E+00 0.  1.
          1    1    1    2  501    0  0.63422786807E+02 -0.40183431920E+02  0.12764551919E+04  0.12786614153E+04  0.00000000000E+00 0.  1.
<scales pt_clust_3="50.19545" pt_clust_4="14000.00000" pt_clust_5="40.38113" pt_clust_6="100.85742"></scales>
<clustering>
<clus scale="   40.381">  1  5  2 -1</clus>
<clus scale="   50.195">  2  3  1 -1</clus>
<clus scale="  100.857">  1  6  2 -1</clus>
<clus scale="   50.195">  2  3  1 -1</clus>
</clustering>
</event>
<event>
 6    0  0.6525019E+002  0.6975226E+02  0.7546771E-02  0.1360938E+00
          2   -1    0    0  502    0 -0.00000000000E+00  0.00000000000E+00  0.15085644017E+04  0.15085644017E+04  0.00000000000E+00 0. -1.
         21   -1    0    0  504  502  0.00000000000E+00 -0.00000000000E+00 -0.38325036391E+03  0.38325036391E+03  0.00000000000E+00 0. -1.
         21    1    1    2  503  501  0.56685627752E+02  0.98184359839E+01  0.19750349658E+02  0.60825474848E+02  0.00000000000E+00 0. -1.
         21    1    1    2  504  505 -0.53744107087E+02  0.41024891601E+02 -0.24964857564E+03  0.25864238264E+03  0.00000000000E+00 0. -1.
         21    1    1    2  505  503 -0.10046162397E+02 -0.10312765200E+03 -0.83250435919E+02  0.13291679001E+03  0.00000000000E+00 0. -1.
          2    1    1    2  501    0  0.71046417321E+01  0.52284324418E+02  0.14384626997E+04  0.14394301181E+04  0.00000000000E+00 0. -1.
<scales pt_clust_3="14000.00000" pt_clust_4="69.36038" pt_clust_5="69.75226" pt_clust_6="52.76482"></scales>
<clustering>
<clus scale="   52.765">  1  6  2 -1</clus>
<clus scale="   69.360">  2  4  1 -1</clus>
<clus scale="   69.752">  2  5  1 -1</clus>
<clus scale="   69.360">  2  3  1 -1</clus>
</clustering>
</event>
<event>
 6    0  0.6525019E+002  0.1019580E+03  0.7546771E-02  0.1276232E+00
         21   -1    0    0  504  502  0.00000000000E+00  0.00000000000E+00  0.13366859164E+04  0.13366859164E+04  0.00000000000E+00 0.  1.
         -2   -1    0    0    0  501 -0.00000000000E+00 -0.00000000000E+00 -0.17632447364E+03  0.17632447364E+03  0.00000000000E+00 0. -1.
         21    1    1    2  503  502 -0.16572145202E+01  0.34416227257E+02  0.16645781287E+03  0.16998654807E+03  0.00000000000E+00 0. -1.
         21    1    1    2  504  505  0.80991276526E+02  0.34741615186E+02  0.11117972606E+04  0.11152845894E+04  0.00000000000E+00 0.  1.
         21    1    1    2  505  501 -0.92228267413E+02 -0.11701120966E+02  0.32690148754E+01  0.93025028891E+02  0.00000000000E+00 0. -1.
         -2    1    1    2    0  503  0.12894205407E+02 -0.57456721478E+02 -0.12116264558E+03  0.13471422368E+03  0.00000000000E+00 0. -1.
<scales pt_clust_3="34.45610" pt_clust_4="14000.00000" pt_clust_5="101.95799" pt_clust_6="58.68896"></scales>
<clustering>
<clus scale="   34.456">  1  3  2 -1</clus>
<clus scale="   58.689">  2  6  1 -1</clus>
<clus scale="  101.958">  2  5  1 -1</clus>
<clus scale="   34.456">  1  3  2 -1</clus>
</clustering>
</event>
<event>
 6    0  0.6525019E+002  0.1141201E+03  0.7546771E-02  0.1253125E+00
         21   -1    0    0  504  502  0.00000000000E+00  0.00000000000E+00  0.16852702418E+03  0.16852702418E+03  0.00000000000E+00 0. -1.
          1   -1    0    0  503    0 -0.00000000000E+00 -0.00000000000E+00 -0.17036610998E+04  0.17036610998E+04  0.00000000000E+00 0. -1.
         21    1    1    2  503  505  0.24726230496E+02 -0.37383301698E+02 -0.14080757338E+04  0.14087889018E+04  0.00000000000E+00 0. -1.
         21    1    1    2  504  501 -0.51617188983E+02  0.10913965936E+03 -0.17299274942E+00  0.12073039953E+03  0.00000000000E+00 0. -1.
         21    1    1    2  505  502  0.50021015166E+02  0.17206907773E+02  0.91520327410E+02  0.10570785194E+03  0.00000000000E+00 0. -1.
          1    1    1    2  501    0 -0.23130056680E+02 -0.88963265436E+02 -0.21840567645E+03  0.23696097068E+03  0.00000000000E+00 0. -1.
<scales pt_clust_3="44.82073" pt_clust_4="114.12015" pt_clust_5="53.17767" pt_clust_6="14000.00000"></scales>
<clustering>
<clus scale="   44.821">  2  3  1 -1</clus>
<clus scale="   53.178">  1  5  2 -1</clus>
<clus scale="  114.120">  1  4  2 -1</clus>
<clus scale="   53.178">  1  3  2 -1</clus>
</clustering>
</event>
<event>
 6    0  0.6525019E+002  0.1338221E+03  0.7546771E-02  0.1221892E+00
          2   -1    0    0  503    0 -0.00000000000E+00  0.00000000000E+00  0.20849794228E+04  0.20849794228E+04  0.00000000000E+00 0. -1.
         21   -1    0    0  505  502  0.00000000000E+00 -0.00000000000E+00 -0.78233276470E+03  0.78233276470E+03  0.00000000000E+00 0.  1.
         21    1    1    2  503  504 -0.40806715434E+02  0.11327369112E+03 -0.24531495504E+02  0.12287355857E+03  0.00000000000E+00 0.  1.
         21    1    1    2  504  502  0.17595688708E+02 -0.28642548055E+02 -0.39182312866E+03  0.39326246703E+03  0.00000000000E+00 0.  1.
         21    1    1    2  505  501  0.60990550317E+02 -0.97393021213E+02 -0.30544029727E+03  0.32634188056E+03  0.00000000000E+00 0. -1.
          2    1    1    2  501    0 -0.37779523591E+02  0.12761878148E+02  0.20244415796E+04  0.20248342814E+04  0.00000000000E+00 0. -1.
<scales pt_clust_3="14000.00000" pt_clust_4="33.61553" pt_clust_5="133.82209" pt_clust_6="39.86377"></scales>
<clustering>
<clus scale="   33.616">  2  4  1 -1</clus>
<clus scale="   39.864">  1  6  2 -1</clus>
<clus scale="  133.822">  2  5  1 -1</clus>
<clus scale="   33.616">  2  3  1 -1</clus>
</clustering>
</event>
<event>
 6    0  0.6525019E+002  0.1519412E+03  0.7546771E-02  0.1198108E+00
          3   -1    0    0  504    0 -0.00000000000E+00  0.00000000000E+00  0.89782916210E+03  0.89782916210E+03  0.00000000000E+00 0.  1.
         21   -1    0    0  501  502  0.00000000000E+00 -0.00000000000E+00 -0.11577005593E+03  0.11577005593E+03  0.00000000000E+00 0. -1.
         21    1    1    2  503  502  0.55136524398E+01 -0.14115140512E+03  0.28987414669E+01  0.14128879019E+03  0.00000000000E+00 0. -1.
         21    1    1    2  504  505  0.21313432066E+02 -0.70865429161E+02  0.19985482399E+03  0.21311527892E+03  0.00000000000E+00 0. -1.
         21    1    1    2  505  503 -0.12665283720E+02  0.18340684389E+03  0.17560801775E+03  0.25423740027E+03  0.00000000000E+00 0.  1.
          3    1    1    2  501    0 -0.14161800785E+02  0.28609990395E+02  0.40369752296E+03  0.40495774866E+03  0.00000000000E+00 0.  1.
<scales pt_clust_3="151.94122" pt_clust_4="60.87188" pt_clust_5="14000.00000" pt_clust_6="31.92316"></scales>
<clustering>
<clus scale="   31.923">  1  6  2 -1</clus>
<clus scale="   60.872">  1  4  2 -1</clus>
<clus scale="  151.941">  2  3  1 -1</clus>
<clus scale="  151.941">  2  3  1 -1</clus>
</clustering>
</event>
<event>
 6    0  0.6525019E+002  0.9140660E+02  0.7546771E-02  0.1299481E+00
         21   -1    0    0  505  502  0.00000000000E+00  0.00000000000E+00  0.69822161981E+02  0.69822161981E+02  0.00000000000E+00 0. -1.
          2   -1    0    0  504    0 -0.00000000000E+00 -0.00000000000E+00 -0.14360838976E+04  0.14360838976E+04  0.00000000000E+00 0.  1.
         21    1    1    2  503  501 -0.11424675711E+03  0.61276679113E+02 -0.83775549262E+02  0.15435509570E+03  0.00000000000E+00 0. -1.
         21    1    1    2  504  502  0.67315309150E+02 -0.10659254090E+02 -0.20578800997E+02  0.71193100749E+02  0.00000000000E+00 0. -1.
         21    1    1    2  505  503 -0.38880672976E+01 -0.41245920245E+02 -0.40762053644E+02  0.58119601009E+02  0.00000000000E+00 0. -1.
          2    1    1    2  501    0  0.50819515259E+02 -0.93715047778E+01 -0.12211453317E+04  0.12222382621E+04  0.00000000000E+00 0.  1.
<scales pt_clust_3="14000.00000" pt_clust_4="91.40660" pt_clust_5="41.42877" pt_clust_6="51.71037"></scales>
<clustering>
<clus scale="   41.429">  1  5  2 -1</clus>
<clus scale="   51.710">  2  6  1 -1</clus>
<clus scale="   91.407">  1  4  2 -1</clus>
<clus scale="   41.429">  1  3  2 -1</clus>
</clustering>
</event>
<event>
 6    0  0.6525019E+002  0.1556884E+03  0.7546771E-02  0.1193652E+00
         21   -1    0    0  501  502  0.00000000000E+00  0.00000000000E+00  0.15124738351E+03  0.15124738351E+03  0.00000000000E+00 0. -1.
          1   -1    0    0  504    0 -0.00000000000E+00 -0.00000000000E+00 -0.15139524287E+04  0.15139524287E+04  0.00000000000E+00 0.  1.
         21    1    1    2  503  502  0.11940782319E+03 -0.94860461327E+02  0.96478794723E+02  0.18045745536E+03  0.00000000000E+00 0. -1.
         21    1    1    2  504  505 -0.42068943355E+02  0.36156358185E+02 -0.14972700044E+03  0.15967232977E+03  0.00000000000E+00 0.  1.
         21    1    1    2  505  503 -0.84726994493E+02  0.92352302916E+01 -0.24431155602E+03  0.25875101831E+03  0.00000000000E+00 0.  1.
          1    1    1    2  501    0  0.73881146575E+01  0.49468872850E+02 -0.10651452835E+04  0.10663190088E+04  0.00000000000E+00 0.  1.
<scales pt_clust_3="150.21573" pt_clust_4="33.00906" pt_clust_5="33.00906" pt_clust_6="50.01753"></scales>
<clustering>
<clus scale="   33.009">  4  5 -1 -1</clus>
<clus scale="   50.018">  2  6  1 -1</clus>
<clus scale="  150.216">  1  3  2 -1</clus>
<clus scale="  150.216">  1  3  2 -1</clus>
</clustering>
</event>
<event>
 6    0  0.6525019E+002  0.7701029E+02  0.7546771E-02  0.1337756E+00
          1   -1    0    0  503    0 -0.00000000000E+00  0.00000000000E+00  0.13208766550E+04  0.13208766550E+04  0.00000000000E+00 0.  1.
         21   -1    0    0  505  502  0.00000000000E+00 -0.00000000000E+00 -0.34245798877E+03  0.34245798877E+03  0.00000000000E+00 0.  1.
         21    1    1    2  503  502  0.10915607541E+03 -0.40614705523E+02 -0.13675456791E+02  0.11726730671E+03  0.00000000000E+00 0.  1.
         21    1    1    2  504  501 -0.41351725767E+02  0.31200567268E+02 -0.13416701326E+02  0.53511199727E+02  0.00000000000E+00 0.  1.
         21    1    1    2  505  504 -0.26168267117E+02  0.37400634651E+02 -0.24087459201E+03  0.24516148709E+03  0.00000000000E+00 0.  1.
          1    1    1    2  501    0 -0.41636082531E+02 -0.27986496396E+02  0.12463854164E+04  0.12473946502E+04  0.00000000000E+00 0.  1.
<scales pt_clust_3="77.01029" pt_clust_4="14000.00000" pt_clust_5="45.64631" pt_clust_6="50.17266"></scales>
<clustering>
<clus scale="   45.646">  2  5  1 -1</clus>
<clus scale="   50.173">  1  6  2 -1</clus>
<clus scale="   77.010">  2  3  1 -1</clus>
<clus scale="   45.646">  2  3  1 -1</clus>
</clustering>
</event>
<event>
 6    0  0.6525019E+002  0.1299125E+03  0.7546771E-02  0.1227586E+00
          2   -1    0    0  505    0 -0.00000000000E+00  0.00000000000E+00  0.82878919695E+03  0.82878919695E+03  0.00000000000E+00 0.  1.
         21   -1    0    0  504  502  0.00000000000E+00 -0.00000000000E+00 -0.47023107548E+03  0.47023107548E+03  0.00000000000E+00 0. -1.
         21    1    1    2  503  502 -0.26268504726E+02 -0.20832635592E+02 -0.18134208658E+02  0.38116696734E+02  0.00000000000E+00 0.  1.
         21    1    1    2  504  501  0.13682709978E+03 -0.49032514318E+02 -0.40453336576E+03  0.42985240108E+03  0.00000000000E+00 0. -1.
         21    1    1    2  505  503 -0.66840950567E+02  0.69442006681E+00  0.26505271525E+02  0.71907748613E+02  0.00000000000E+00 0.  1.
          2    1    1    2  501    0 -0.43717644491E+02  0.69170729843E+02  0.75472042436E+03  0.75914342601E+03  0.00000000000E+00 0.  1.
<scales pt_clust_3="33.52660" pt_clust_4="14000.00000" pt_clust_5="68.19082" pt_clust_6="129.91250"></scales>
<clustering>
<clus scale="   33.527">  2  3  1 -1</clus>
<clus scale="   68.191">  1  5  2 -1</clus>
<clus scale="  129.913">  1  6  2 -1</clus>
<clus scale="   33.527">  2  3  1 -1</clus>
</clustering>
</event>
<event>
 6    0  0.6525019E+002  0.1462074E+03  0.7546771E-02  0.1205212E+00
         21   -1    0    0  505  502  0.00000000000E+00  0.00000000000E+00  0.74096722366E+02  0.74096722366E+02  0.00000000000E+00 0. -1.
          2   -1    0    0  504    0 -0.00000000000E+00 -0.00000000000E+00 -0.19819882782E+04  0.19819882782E+04  0.00000000000E+00 0.  1.
         21    1    1    2  503  502  0.75533705254E+02 -0.82607533037E+02 -0.14785395480E+02  0.11290683355E+03  0.00000000000E+00 0. -1.
         21    1    1    2  504  503  0.36590367761E+02  0.19333785086E+01  0.62785134657E+01  0.37175431358E+02  0.00000000000E+00 0. -1.
         21    1    1    2  505  501 -0.60729955851E+02  0.73022325045E+02 -0.84150060038E+03  0.84684334320E+03  0.00000000000E+00 0.  1.
          2    1    1    2  501    0 -0.51394117164E+02  0.76518294831E+01 -0.10578840734E+04  0.10591593924E+04  0.00000000000E+00 0.  1.
<scales pt_clust_3="33.22463" pt_clust_4="33.22463" pt_clust_5="134.18052" pt_clust_6="51.96062"></scales>
<clustering>
<clus scale="   33.225">  3  4 -1 -1</clus>
<clus scale="   51.961">  2  6  1 -1</clus>
<clus scale="  134.181">  2  5  1 -1</clus>
<clus scale="  146.207">  1  3  2 -1</clus>
</clustering>
</event>
<event>
 6    0  0.6525019E+002  0.1264467E+03  0.7546771E-02  0.1232825E+00
         21   -1    0    0  504  502  0.00000000000E+00  0.00000000000E+00  0.88808444195E+03  0.88808444195E+03  0.00000000000E+00 0.  1.
          1   -1    0    0  505    0 -0.00000000000E+00 -0.00000000000E+00 -0.47343574599E+03  0.47343574599E+03  0.00000000000E+00 0.  1.
         21    1    1    2  503  501  0.84079547148E+02 -0.16731547959E+03  0.22308014503E+03  0.29125348250E+03  0.00000000000E+00 0.  1.
         21    1    1    2  504  503  0.20450738995E+02  0.86176491215E+02  0.57386550199E+03  0.58066017148E+03  0.00000000000E+00 0.  1.
         21    1    1    2  505  502 -0.11055194421E+03  0.61262139131E+01 -0.11576480941E+02  0.11132509949E+03  0.00000000000E+00 0.  1.
          1    1    1    2  501    0  0.60216580643E+01  0.75012774458E+02 -0.37072047012E+03  0.37828143447E+03  0.00000000000E+00 0.  1.
<scales pt_clust_3="14000.00000" pt_clust_4="91.12472" pt_clust_5="126.44671" pt_clust_6="75.25408"></scales>
<clustering>
<clus scale="   75.254">  2  6  1 -1</clus>
<clus scale="   91.125">  1  4  2 -1</clus>
<clus scale="  126.447">  2  5  1 -1</clus>
<clus scale="   91.125">  1  3  2 -1</clus>
</clustering>
</event>
<event>
 6    0  0.6525019E+002  0.1067091E+03  0.7546771E-02  0.1266788E+00
          2   -1    0    0  503    0 -0.00000000000E+00  0.00000000000E+00  0.17295495710E+04  0.17295495710E+04  0.00000000000E+00 0. -1.
         21   -1    0    0  505  502  0.00000000000E+00 -0.00000000000E+00 -0.30533795573E+03  0.30533795573E+03  0.00000000000E+00 0.  1.
         21    1    1    2  503  502  0.29748019890E+02 -0.15377167673E+02 -0.11869348108E+03  0.12332698174E+03  0.00000000000E+00 0.  1.
         21    1    1    2  504  501 -0.15100594848E+03 -0.92472750022E+02  0.74256329817E+02  0.19201043849E+03  0.00000000000E+00 0.  1.
         21    1    1    2  505  504  0.48044228354E+02  0.32873646385E+02 -0.11687308278E+03  0.13056891661E+03  0.00000000000E+00 0. -1.
          2    1    1    2  501    0  0.73213700235E+02  0.74976271310E+02  0.15855218493E+04  0.15889811899E+04  0.00000000000E+00 0. -1.
<scales pt_clust_3="33.48734" pt_clust_4="106.70909" pt_clust_5="71.65283" pt_clust_6="14000.00000"></scales>
<clustering>
<clus scale="   33.487">  2  3  1 -1</clus>
<clus scale="   71.653">  2  5  1 -1</clus>
<clus scale="  106.709">  2  4  1 -1</clus>
<clus scale="   33.487">  2  3  1 -1</clus>
</clustering>
</event>
<event>
 6    0  0.6525019E+002  0.7854357E+02  0.7546771E-02  0.1333236E+00
         21   -1    0    0  505  502  0.00000000000E+00  0.00000000000E+00  0.11523711452E+03  0.11523711452E+03  0.00000000000E+00 0. -1.
         -3   -1    0    0    0  501 -0.00000000000E+00 -0.00000000000E+00 -0.87957596470E+03  0.87957596470E+03  0.00000000000E+00 0. -1.
         21    1    1    2  503  502 -0.74240962478E+02 -0.20704608260E+02  0.82049631221E+02  0.11257239136E+03  0.00000000000E+00 0. -1.
         21    1    1    2  504  503 -0.57314827388E+02 -0.95405359037E+01 -0.23799981280E+03  0.24498963683E+03  0.00000000000E+00 0. -1.
         21    1    1    2  505  501  0.89845962876E+02  0.29722431823E+02 -0.15262952249E+03  0.17958700157E+03  0.00000000000E+00 0. -1.
         -3    1    1    2    0  504  0.41709826990E+02  0.52271234031E+00 -0.45575914612E+03  0.45766404946E+03  0.00000000000E+00 0. -1.
<scales pt_clust_3="14000.00000" pt_clust_4="34.74632" pt_clust_5="78.54357" pt_clust_6="41.71310"></scales>
<clustering>
<clus scale="   41.713">  2  6  1 -1</clus>
<clus scale="   34.746">  2  4  1 -1</clus>
<clus scale="   78.544">  2  5  1 -1</clus>
<clus scale="   78.544">  1  3  2 -1</clus>
</clustering>
</event>
<event>
 6    0  0.6525019E+002  0.1006167E+03  0.7546771E-02  0.1279004E+00
         21   -1    0    0  505  502  0.00000000000E+00  0.00000000000E+00  0.16761835881E+03  0.16761835881E+03  0.00000000000E+00 0. -1.
         -2   -1    0    0    0  501 -0.00000000000E+00 -0.00000000000E+00 -0.78846167941E+03  0.78846167941E+03  0.00000000000E+00 0.  1.
         21    1    1    2  503  501  0.10170483125E+03  0.17059397147E+02 -0.43428757834E+02  0.11189706313E+03  0.00000000000E+00 0.  1.
         21    1    1    2  504  502 -0.91159284799E+02  0.38973630152E+01 -0.11718326069E+03  0.14851640054E+03  0.00000000000E+00 0.  1.
         21    1    1    2  505  503  0.51872329001E+02 -0.16734813040E+02  0.10960343992E+03  0.12240795124E+03  0.00000000000E+00 0. -1.
         -2    1    1    2    0  504 -0.62417875452E+02 -0.42219471231E+01 -0.56983474200E+03  0.57325862331E+03  0.00000000000E+00 0.  1.
<scales pt_clust_3="14000.00000" pt_clust_4="100.61672" pt_clust_5="54.50498" pt_clust_6="60.88501"></scales>
<clustering>
<clus scale="   54.505">  1  5  2 -1</clus>
<clus scale="   60.885">  2  6  1 -1</clus>
<clus scale="  100.617">  1  4  2 -1</clus>
<clus scale="   54.505">  1  3  2 -1</clus>
</clustering>
</event>
<event>
 6    0  0.6525019E+002  0.1191516E+03  0.7546771E-02  0.1244503E+00
         -3   -1    0    0    0  501 -0.00000000000E+00  0.00000000000E+00  0.81107500991E+03  0.81107500991E+03  0.00000000000E+00 0. -1.
         21   -1    0    0  501  502  0.00000000000E+00 -0.00000000000E+00 -0.30017938473E+03  0.30017938473E+03  0.00000000000E+00 0.  1.
         21    1    1    2  503  504  0.99860130044E+02  0.45707182574E+02  0.61660179910E+02  0.12594907661E+03  0.00000000000E+00 0.  1.
         21    1    1    2  504  505 -0.77256246799E+02 -0.12439592248E+03  0.16699201530E+03  0.22210179282E+03  0.00000000000E+00 0.  1.
         21    1    1    2  505  502 -0.54118716994E+02  0.10946969288E+03 -0.22395870933E+03  0.25508812727E+03  0.00000000000E+00 0.  1.
         -3    1    1    2    0  503  0.31514833749E+02 -0.30780952969E+02  0.50620213929E+03  0.50811539795E+03  0.00000000000E+00 0. -1.
<scales pt_clust_3="115.41354" pt_clust_4="14000.00000" pt_clust_5="119.15157" pt_clust_6="44.05283"></scales>
<clustering>
<clus scale="   44.053">  1  6  2 -1</clus>
<clus scale="  115.414">  1  3  2 -1</clus>
<clus scale="  119.152">  2  5  1 -1</clus>
<clus scale="  119.152">  2  3  1 -1</clus>
</clustering>
</event>
<event>
 6    0  0.6525019E+002  0.1552112E+03  0.7546771E-02  0.1194212E+00
          1   -1    0    0  504    0 -0.00000000000E+00  0.00000000000E+00  0.20199070606E+03  0.20199070606E+03  0.00000000000E+00 0.  1.
         21   -1    0    0  501  502  0.00000000000E+00 -0.00000000000E+00 -0.91111576163E+03  0.91111576163E+03  0.00000000000E+00 0. -1.
         21    1    1    2  503  505  0.13682943644E+03 -0.32436618173E+02 -0.53802767875E+03  0.55610090089E+03  0.00000000000E+00 0. -1.
         21    1    1    2  504  503 -0.12508309090E+03  0.23951093182E+02 -0.26825820695E+02  0.13015014079E+03  0.00000000000E+00 0.  1.
         21    1    1    2  505  502  0.30235464786E+02  0.18699645838E+02 -0.28111450464E+03  0.28335353325E+03  0.00000000000E+00 0. -1.
          1    1    1    2  501    0 -0.41981810334E+02 -0.10214120846E+02  0.13684294851E+03  0.14350189275E+03  0.00000000000E+00 0.  1.
<scales pt_clust_3="155.21122" pt_clust_4="14000.00000" pt_clust_5="35.55081" pt_clust_6="43.02759"></scales>
<clustering>
<clus scale="   35.551">  2  5  1 -1</clus>
<clus scale="   43.028">  1  6  2 -1</clus>
<clus scale="  155.211">  2  3  1 -1</clus>
<clus scale="   35.551">  2  3  1 -1</clus>
</clustering>
</event>
<event>
 6    0  0.6525019E+002  0.9216818E+02  0.7546771E-02  0.1297684E+00
          2   -1    0    0  505    0 -0.00000000000E+00  0.00000000000E+00  0.51064788109E+03  0.51064788109E+03  0.00000000000E+00 0.  1.
         21   -1    0    0  504  502  0.00000000000E+00 -0.00000000000E+00 -0.19647515727E+03  0.19647515727E+03  0.00000000000E+00 0.  1.
         21    1    1    2  503  502 -0.12137734209E+03  0.96795188462E+02 -0.53322628696E+02  0.16414953675E+03  0.00000000000E+00 0.  1.
         21    1    1    2  504  501  0.22226075847E+02 -0.59146097436E+02 -0.53152814767E+02  0.82568038654E+02  0.00000000000E+00 0.  1.
         21    1    1    2  505  503  0.58120489864E+02 -0.91625746407E+01  0.29021738835E+02  0.65606443594E+02  0.00000000000E+00 0.  1.
          2    1    1    2  501    0  0.41030776381E+02 -0.28486516385E+02  0.39162642845E+03  0.39479901936E+03  0.00000000000E+00 0.  1.
<scales pt_clust_3="92.16818" pt_clust_4="68.42402" pt_clust_5="14000.00000" pt_clust_6="49.95004"></scales>
<clustering>
<clus scale="   49.950">  1  6  2 -1</clus>
<clus scale="   68.424">  2  4  1 -1</clus>
<clus scale="   92.168">  2  3  1 -1</clus>
<clus scale="   68.424">  2  3  1 -1</clus>
</clustering>
</event>
<event>
 6    0  0.6525019E+002  0.6513105E+02  0.7546771E-02  0.1377479E+00
          2   -1    0    0  503    0 -0.00000000000E+00  0.00000000000E+00  0.45685017989E+03  0.45685017989E+03  0.00000000000E+00 0. -1.
         21   -1    0    0  505  502  0.00000000000E+00 -0.00000000000E+00 -0.55242448094E+03  0.55242448094E+03  0.00000000000E+00 0. -1.
         21    1    1    2  503  502 -0.35922477218E+02  0.52428068149E+02 -0.22277894779E+03  0.23166697278E+03  0.00000000000E+00 0. -1.
         21    1    1    2  504  501  0.96646360529E+02 -0.36851453387E+02 -0.20657551723E+03  0.23102379302E+03  0.00000000000E+00 0. -1.
         21    1    1    2  505  504 -0.33135032734E+00 -0.38820738478E+02 -0.10038097810E+03  0.10762667092E+03  0.00000000000E+00 0. -1.
          2    1    1    2  501    0 -0.60392532984E+02  0.23244123716E+02  0.43416114207E+03  0.43895722412E+03  0.00000000000E+00 0. -1.
<scales pt_clust_3="48.73940" pt_clust_4="65.13105" pt_clust_5="38.82215" pt_clust_6="14000.00000"></scales>
<clustering>
<clus scale="   38.822">  2  5  1 -1</clus>
<clus scale="   48.739">  2  3  1 -1</clus>
<clus scale="   65.131">  2  4  1 -1</clus>
<clus scale="   38.822">  2  3  1 -1</clus>
</clustering>
</event>
<event>
 6    0  0.6525019E+002  0.1119016E+03  0.7546771E-02  0.1257088E+00
          2   -1    0    0  505    0 -0.00000000000E+00  0.00000000000E+00  0.45384478065E+04  0.45384478065E+04  0.00000000000E+00 0. -1.
         21   -1    0    0  503  502  0.00000000000E+00 -0.00000000000E+00 -0.21351576661E+02  0.21351576661E+02  0.00000000000E+00 0.  1.
         21    1    1    2  503  504  0.37291175787E+02  0.55509485728E+00  0.28228789065E+02  0.46773971971E+02  0.00000000000E+00 0.  1.
         21    1    1    2  504  501  0.65509784215E+02 -0.61346595222E+02  0.20685779312E+03  0.22548854327E+03  0.00000000000E+00 0.  1.
         21    1    1    2  505  502 -0.47648228809E+02 -0.56254711043E+02  0.88549259802E+03  0.88855618133E+03  0.00000000000E+00 0. -1.
          2    1    1    2  501    0 -0.55152731193E+02  0.11704621141E+03  0.33965170496E+04  0.33989806866E+04  0.00000000000E+00 0. -1.
<scales pt_clust_3="37.29531" pt_clust_4="111.90158" pt_clust_5="70.70171" pt_clust_6="14000.00000"></scales>
<clustering>
<clus scale="   37.295">  2  3  1 -1</clus>
<clus scale="   70.702">  1  5  2 -1</clus>
<clus scale="  111.902">  2  4  1 -1</clus>
<clus scale="   37.295">  2  3  1 -1</clus>
</clustering>
</event>
<event>
 6    0  0.6525019E+002  0.1191836E+03  0.7546771E-02  0.1244450E+00
          2   -1    0    0  505    0 -0.00000000000E+00  0.00000000000E+00  0.43305948889E+03  0.43305948889E+03  0.00000000000E+00 0.  1.
         21   -1    0    0  504  502  0.00000000000E+00 -0.00000000000E+00 -0.71884181332E+03  0.71884181332E+03  0.00000000000E+00 0.  1.
         21    1    1    2  503  502  0.88997583021E+01  0.35358371124E+02 -0.51253109858E+03  0.51382637838E+03  0.00000000000E+00 0.  1.
         21    1    1    2  504  501 -0.96091988192E+02 -0.97831872682E+02 -0.12982905587E+03  0.18883942717E+03  0.00000000000E+00 0.  1.
         21    1    1    2  505  503  0.14817549125E+03  0.11886002853E+03  0.25654910759E+03  0.31921955955E+03  0.00000000000E+00 0.  1.
          2    1    1    2  501    0 -0.60983261361E+02 -0.56386526976E+02  0.10002872242E+03  0.13001593710E+03  0.00000000000E+00 0.  1.
<scales pt_clust_3="36.46121" pt_clust_4="14000.00000" pt_clust_5="119.18357" pt_clust_6="80.84323"></scales>
<clustering>
<clus scale="   36.461">  2  3  1 -1</clus>
<clus scale="   80.843">  1  6  2 -1</clus>
<clus scale="  119.184">  1  5  2 -1</clus>
<clus scale="   36.461">  2  3  1 -1</clus>
</clustering>
</event>
<event>
 6    0  0.6525019E+002  0.1287096E+03  0.7546771E-02  0.1229383E+00
          1   -1    0    0  502    0 -0.00000000000E+00  0.00000000000E+00  0.54469959259E+03  0.54469959259E+03  0.00000000000E+00 0. -1.
         21   -1    0    0  504  502  0.00000000000E+00 -0.00000000000E+00 -0.66493103006E+02  0.66493103006E+02  0.00000000000E+00 0. -1.
         21    1    1    2  503  505  0.16363873999E+01 -0.37437981713E+02 -0.41599959606E+01  0.37703922937E+02  0.00000000000E+00 0. -1.
         21    1    1    2  504  503  0.61028380411E+02 -0.75131606016E+02  0.51688029439E+02  0.10973091554E+03  0.00000000000E+00 0. -1.
         21    1    1    2  505  501 -0.87446011957E+02  0.50755496153E+02  0.20695927070E+03  0.23033685142E+03  0.00000000000E+00 0. -1.
          1    1    1    2  501    0  0.24781244146E+02  0.61814091576E+02  0.22371918541E+03  0.23342100570E+03  0.00000000000E+00 0. -1.
<scales pt_clust_3="33.38747" pt_clust_4="33.38747" pt_clust_5="116.99077" pt_clust_6="66.59649"></scales>
<clustering>
<clus scale="   33.387">  3  4 -1 -1</clus>
<clus scale="   66.596">  1  6  2 -1</clus>
<clus scale="  116.991">  1  5  2 -1</clus>
<clus scale="  128.710">  2  3  1 -1</clus>
</clustering>
</event>
<event>
 6    0  0.6525019E+002  0.9824176E+02  0.7546771E-02  0.1284037E+00
         21   -1    0    0  503  502  0.00000000000E+00  0.00000000000E+00  0.31934880808E+02  0.31934880808E+02  0.00000000000E+00 0.  1.
          2   -1    0    0  504    0 -0.00000000000E+00 -0.00000000000E+00 -0.16655477688E+04  0.16655477688E+04  0.00000000000E+00 0.  1.
         21    1    1    2  503  501  0.22549680412E+02 -0.86656104754E+02 -0.97097264925E+02  0.13208197240E+03  0.00000000000E+00 0.  1.
         21    1    1    2  504  505 -0.10790103200E+03  0.97741964995E+02 -0.51150677682E+03  0.53182262753E+03  0.00000000000E+00 0.  1.
         21    1    1    2  505  502  0.28613244943E+02  0.22570462198E+02 -0.10382989381E+03  0.11003994910E+03  0.00000000000E+00 0. -1.
          2    1    1    2  501    0  0.56738106642E+02 -0.33656322439E+02 -0.92117895246E+03  0.92353810059E+03  0.00000000000E+00 0.  1.
<scales pt_clust_3="98.24176" pt_clust_4="14000.00000" pt_clust_5="36.44370" pt_clust_6="66.51970"></scales>
<clustering>
<clus scale="   36.444">  1  5  2 -1</clus>
<clus scale="   66.520">  2  6  1 -1</clus>
<clus scale="   98.242">  1  3  2 -1</clus>
<clus scale="   36.444">  1  3  2 -1</clus>
</clustering>
</event>
<event>
 6    0  0.6525019E+002  0.9134474E+02  0.7546771E-02  0.1299627E+00
         21   -1    0    0  501  502  0.00000000000E+00  0.00000000000E+00  0.14426752204E+03  0.14426752204E+03  0.00000000000E+00 0.  1.
         -2   -1    0    0    0  501 -0.00000000000E+00 -0.00000000000E+00 -0.35976788245E+03  0.35976788245E+03  0.00000000000E+00 0. -1.
         21    1    1    2  503  505 -0.19802562454E+02  0.72715341816E+02 -0.68990270012E+02  0.10217298944E+03  0.00000000000E+00 0.  1.
         21    1    1    2  504  502  0.76514013429E+00 -0.37246942901E+02  0.41748502803E+02  0.55954067601E+02  0.00000000000E+00 0.  1.
         21    1    1    2  505  504  0.50280095444E+02  0.68933302058E+02  0.39044789375E+02  0.93831677528E+02  0.00000000000E+00 0.  1.
         -2    1    1    2    0  503 -0.31242673124E+02 -0.10440170097E+03 -0.22730338257E+03  0.25207666992E+03  0.00000000000E+00 0. -1.
<scales pt_clust_3="14000.00000" pt_clust_4="37.25480" pt_clust_5="66.56425" pt_clust_6="91.34474"></scales>
<clustering>
<clus scale="   37.255">  1  4  2 -1</clus>
<clus scale="   66.564">  1  5  2 -1</clus>
<clus scale="   91.345">  2  6  1 -1</clus>
<clus scale="   37.255">  1  3  2 -1</clus>
</clustering>
</event>
<event>
 6    0  0.6525019E+002  0.1415681E+03  0.7546771E-02  0.1211234E+00
         -1   -1    0    0    0  501 -0.00000000000E+00  0.00000000000E+00  0.32801439231E+03  0.32801439231E+03  0.00000000000E+00 0.  1.
         21   -1    0    0  504  502  0.00000000000E+00 -0.00000000000E+00 -0.46242219936E+03  0.46242219936E+03  0.00000000000E+00 0.  1.
         21    1    1    2  503  501 -0.46930947328E+02 -0.12208546035E+03 -0.40567875950E+02  0.13694205346E+03  0.00000000000E+00 0.  1.
         21    1    1    2  504  503  0.77051923461E+02 -0.50930058780E+02 -0.30798122944E+03  0.32153274714E+03  0.00000000000E+00 0.  1.
         21    1    1    2  505  502 -0.11492095269E+02  0.14875658868E+03  0.39058807455E+02  0.15422769326E+03  0.00000000000E+00 0.  1.
         -1    1    1    2    0  505 -0.18628880863E+02  0.24258930453E+02  0.17508249088E+03  0.17773409780E+03  0.00000000000E+00 0.  1.
<scales pt_clust_3="141.56810" pt_clust_4="91.07138" pt_clust_5="14000.00000" pt_clust_6="30.58645"></scales>
<clustering>
<clus scale="   30.586">  1  6  2 -1</clus>
<clus scale="   91.071">  2  4  1 -1</clus>
<clus scale="  141.568">  2  3  1 -1</clus>
<clus scale="   91.071">  2  3  1 -1</clus>
</clustering>
</event>
<event>
 6    0  0.6525019E+002  0.2146711E+03  0.7546771E-02  0.1137919E+00
          2   -1    0    0  504    0 -0.00000000000E+00  0.00000000000E+00  0.74113213315E+03  0.74113213315E+03  0.00000000000E+00 0. -1.
         21   -1    0    0  505  502  0.00000000000E+00 -0.00000000000E+00 -0.20717954293E+03  0.20717954293E+03  0.00000000000E+00 0. -1.
         21    1    1    2  503  501 -0.25470780781E+02  0.31124481587E+02  0.79139160701E+02  0.88772184744E+02  0.00000000000E+00 0. -1.
         21    1    1    2  504  502  0.11314137711E+03 -0.18810966687E+03  0.11107176862E+03  0.24601454382E+03  0.00000000000E+00 0. -1.
         21    1    1    2  505  503 -0.10761584175E+03  0.18311383898E+03 -0.50173042664E+02  0.21824110894E+03  0.00000000000E+00 0. -1.
          2    1    1    2  501    0  0.19945245424E+02 -0.26128653690E+02  0.39391470356E+03  0.39528383858E+03  0.00000000000E+00 0. -1.
<scales pt_clust_3="32.25994" pt_clust_4="14000.00000" pt_clust_5="214.67110" pt_clust_6="32.87125"></scales>
<clustering>
<clus scale="   32.871">  1  6  2 -1</clus>
<clus scale="   32.260">  1  3  2 -1</clus>
<clus scale="  214.671">  2  5  1 -1</clus>
<clus scale="  214.671">  2  3  1 -1</clus>
</clustering>
</event>
<event>
 6    0  0.6525019E+002  0.1306966E+03  0.7546771E-02  0.1226426E+00
          1   -1    0    0  503    0 -0.00000000000E+00  0.00000000000E+00  0.14102505755E+04  0.14102505755E+04  0.00000000000E+00 0. -1.
         21   -1    0    0  505  502  0.00000000000E+00 -0.00000000000E+00 -0.75064071758E+02  0.75064071758E+02  0.00000000000E+00 0.  1.
         21    1    1    2  503  504  0.84653173089E+02  0.41612827504E+02  0.22493761031E+03  0.24391538627E+03  0.00000000000E+00 0.  1.
         21    1    1    2  504  502  0.33810067973E+02  0.27157863535E+02 -0.53474761621E+02  0.68849258373E+02  0.00000000000E+00 0.  1.
         21    1    1    2  505  501 -0.48303886714E+02 -0.27619468088E+02  0.30943768310E+03  0.31440066828E+03  0.00000000000E+00 0. -1.
          1    1    1    2  501    0 -0.70159354348E+02 -0.41151222950E+02  0.85428597190E+03  0.85814933429E+03  0.00000000000E+00 0. -1.
<scales pt_clust_3="123.38470" pt_clust_4="43.36670" pt_clust_5="35.65005" pt_clust_6="35.65005"></scales>
<clustering>
<clus scale="   35.650">  5  6 -1 -1</clus>
<clus scale="   43.367">  2  4  1 -1</clus>
<clus scale="  123.385">  2  3  1 -1</clus>
<clus scale="   43.367">  2  3  1 -1</clus>
</clustering>
</event>
<event>
 6    0  0.6525019E+002  0.1042698E+03  0.7546771E-02  0.1271565E+00
         21   -1    0    0  504  502  0.00000000000E+00  0.00000000000E+00  0.27839612325E+03  0.27839612325E+03  0.00000000000E+00 0.  1.
          2   -1    0    0  503    0 -0.00000000000E+00 -0.00000000000E+00 -0.11093794159E+04  0.11093794159E+04  0.00000000000E+00 0. -1.
         21    1    1    2  503  502 -0.14828407328E+03  0.47134640946E+02  0.12685734941E+03  0.20075514406E+03  0.00000000000E+00 0.  1.
         21    1    1    2  504  505  0.78671524917E+02 -0.16442864479E+02  0.75747967104E+02  0.11044152817E+03  0.00000000000E+00 0. -1.
         21    1    1    2  505  501  0.46002417309E+02 -0.78447050040E+02 -0.78875713633E+02  0.12038081350E+03  0.00000000000E+00 0.  1.
          2    1    1    2  501    0  0.23610131059E+02  0.47755273573E+02 -0.95471289555E+03  0.95619805342E+03  0.00000000000E+00 0. -1.
<scales pt_clust_3="104.26977" pt_clust_4="14000.00000" pt_clust_5="77.55989" pt_clust_6="53.27292"></scales>
<clustering>
<clus scale="   53.273">  2  6  1 -1</clus>
<clus scale="   77.560">  2  5  1 -1</clus>
<clus scale="  104.270">  2  3  1 -1</clus>
<clus scale="  104.270">  1  3  2 -1</clus>
</clustering>
</event>
<event>
 6    0  0.6525019E+002  0.7194049E+02  0.7546771E-02  0.1353616E+00
         -2   -1    0    0    0  501 -0.00000000000E+00  0.00000000000E+00  0.37009256295E+03  0.37009256295E+03  0.00000000000E+00 0.  1.
         21   -1    0    0  505  502  0.00000000000E+00 -0.00000000000E+00 -0.39941777686E+03  0.39941777686E+03  0.00000000000E+00 0.  1.
         21    1    1    2  503  501  0.73963654508E+02  0.14686503972E+01  0.47307087706E+02  0.87810817496E+02  0.00000000000E+00 0.  1.
         21    1    1    2  504  503 -0.69817098994E+02 -0.46535073812E+02  0.23598058129E+02  0.87159673899E+02  0.00000000000E+00 0.  1.
         21    1    1    2  505  504  0.32064320659E+02 -0.12306155916E+02 -0.34185255076E+03  0.34357346899E+03  0.00000000000E+00 0.  1.
         -2    1    1    2    0  502 -0.36210876172E+02  0.57372579331E+02  0.24162219102E+03  0.25096637943E+03  0.00000000000E+00 0.  1.
<scales pt_clust_3="71.94049" pt_clust_4="14000.00000" pt_clust_5="34.34475" pt_clust_6="65.59857"></scales>
<clustering>
<clus scale="   34.345">  2  5  1 -1</clus>
<clus scale="   65.599">  1  6  2 -1</clus>
<clus scale="   71.940">  1  3  2 -1</clus>
<clus scale="   34.345">  2  3  1 -1</clus>
</clustering>
</event>
<event>
 6    0  0.6525019E+002  0.1812336E+03  0.7546771E-02  0.1166615E+00
         -1   -1    0    0    0  501 -0.00000000000E+00  0.00000000000E+00  0.66878857124E+02  0.66878857124E+02  0.00000000000E+00 0.  1.
         21   -1    0    0  503  502  0.00000000000E+00 -0.00000000000E+00 -0.15939565090E+04  0.15939565090E+04  0.00000000000E+00 0.  1.
         21    1    1    2  503  501  0.12170880661E+02  0.65782371499E+02 -0.70979531513E+01  0.67274301743E+02  0.00000000000E+00 0.  1.
         21    1    1    2  504  502 -0.19869092072E+02 -0.32259679579E+02 -0.34139450849E+03  0.34349043389E+03  0.00000000000E+00 0.  1.
         21    1    1    2  505  504 -0.16397523454E+03  0.53076480440E+02 -0.86675643617E+03  0.88372603784E+03  0.00000000000E+00 0.  1.
         -1    1    1    2    0  505  0.17167344595E+03 -0.86599172360E+02 -0.31182875403E+03  0.36634459261E+03  0.00000000000E+00 0.  1.
<scales pt_clust_3="65.85012" pt_clust_4="37.88757" pt_clust_5="14000.00000" pt_clust_6="181.23356"></scales>
<clustering>
<clus scale="   37.888">  2  4  1 -1</clus>
<clus scale="   65.850">  1  3  2 -1</clus>
<clus scale="  181.234">  1  6  2 -1</clus>
<clus scale="   37.888">  2  3  1 -1</clus>
</clustering>
</event>
<event>
 6    0  0.6525019E+002  0.8036067E+02  0.7546771E-02  0.1328031E+00
         21   -1    0    0  504  502  0.00000000000E+00  0.00000000000E+00  0.63902976498E+02  0.63902976498E+02  0.00000000000E+00 0.  1.
          2   -1    0    0  505    0 -0.00000000000E+00 -0.00000000000E+00 -0.23248273214E+04  0.23248273214E+04  0.00000000000E+00 0.  1.
         21    1    1    2  503  502  0.18449602978E+02 -0.40804995971E+02 -0.72660698531E+02  0.85352285600E+02  0.00000000000E+00 0. -1.
         21    1    1    2  504  501  0.55790158754E+02  0.15707931064E+02  0.37258797533E+02  0.68902096526E+02  0.00000000000E+00 0.  1.
         21    1    1    2  505  503 -0.99100623249E+02  0.52740369236E+02 -0.73804484129E+03  0.74653376871E+03  0.00000000000E+00 0.  1.
          2    1    1    2  501    0  0.24860861517E+02 -0.27643304329E+02 -0.14874776026E+04  0.14879421471E+04  0.00000000000E+00 0.  1.
<scales pt_clust_3="48.13775" pt_clust_4="14000.00000" pt_clust_5="80.36067" pt_clust_6="37.17815"></scales>
<clustering>
<clus scale="   37.178">  2  6  1 -1</clus>
<clus scale="   48.138">  1  3  2 -1</clus>
<clus scale="   80.361">  2  5  1 -1</clus>
<clus scale="   48.138">  1  3  2 -1</clus>
</clustering>
</event>
<event>
 6    0  0.6525019E+002  0.1452749E+03  0.7546771E-02  0.1206402E+00
         21   -1    0    0  501  502  0.00000000000E+00  0.00000000000E+00  0.63658118809E+02  0.63658118809E+02  0.00000000000E+00 0. -1.
         -4   -1    0    0    0  501 -0.00000000000E+00 -0.00000000000E+00 -0.62368361994E+03  0.62368361994E+03  0.00000000000E+00 0.  1.
         21    1    1    2  503  505 -0.96994859353E+02  0.45399536705E+02 -0.96085488834E+02  0.14388030386E+03  0.00000000000E+00 0. -1.
         21    1    1    2  504  503  0.42255287741E+02 -0.82838151540E+01 -0.10376383722E+03  0.11234351272E+03  0.00000000000E+00 0.  1.
         21    1    1    2  505  502 -0.11268507570E+02  0.61807562635E+02 -0.13025760940E+02  0.64162485221E+02  0.00000000000E+00 0. -1.
         -4    1    1    2    0  504  0.66008079183E+02 -0.98923284185E+02 -0.34715041413E+03  0.36695543694E+03  0.00000000000E+00 0.  1.
<scales pt_clust_3="133.84805" pt_clust_4="33.98303" pt_clust_5="62.82638" pt_clust_6="33.98303"></scales>
<clustering>
<clus scale="   33.983">  4  6 -1 -1</clus>
<clus scale="   62.826">  1  5  2 -1</clus>
<clus scale="  133.848">  1  3  2 -1</clus>
<clus scale="   62.826">  1  3  2 -1</clus>
</clustering>
</event>
<event>
 6    0  0.6525019E+002  0.1016878E+03  0.7546771E-02  0.1276786E+00
          2   -1    0    0  503    0 -0.00000000000E+00  0.00000000000E+00  0.12524971246E+04  0.12524971246E+04  0.00000000000E+00 0. -1.
         21   -1    0    0  504  502  0.00000000000E+00 -0.00000000000E+00 -0.27800414098E+03  0.27800414098E+03  0.00000000000E+00 0.  1.
         21    1    1    2  503  505  0.22021525634E+02  0.11469497594E+03  0.22987819157E+03  0.25784465877E+03  0.00000000000E+00 0.  1.
         21    1    1    2  504  501 -0.15474636241E+02 -0.79690843432E+02  0.49981534067E+02  0.95332306389E+02  0.00000000000E+00 0.  1.
         21    1    1    2  505  502  0.40253173805E+02 -0.35638189144E+02 -0.23775717060E+03  0.24375986277E+03  0.00000000000E+00 0.  1.
          2    1    1    2  501    0 -0.46800063199E+02  0.63405663428E+00  0.93239042863E+03  0.93356443770E+03  0.00000000000E+00 0. -1.
<scales pt_clust_3="101.68776" pt_clust_4="14000.00000" pt_clust_5="53.43011" pt_clust_6="46.80436"></scales>
<clustering>
<clus scale="   46.804">  1  6  2 -1</clus>
<clus scale="   53.430">  2  5  1 -1</clus>
<clus scale="  101.688">  1  3  2 -1</clus>
<clus scale="   53.430">  2  3  1 -1</clus>
</clustering>
</event>
<event>
 6    0  0.6525019E+002  0.6957362E+02  0.7546771E-02  0.1361549E+00
          2   -1    0    0  505    0 -0.00000000000E+00  0.00000000000E+00  0.22176757681E+04  0.22176757681E+04  0.00000000000E+00 0. -1.
         21   -1    0    0  504  502  0.00000000000E+00 -0.00000000000E+00 -0.13437853795E+03  0.13437853795E+03  0.00000000000E+00 0. -1.
         21    1    1    2  503  502  0.36588158734E+02  0.71149425337E+02 -0.10074835253E+03  0.12865132966E+03  0.00000000000E+00 0. -1.
         21    1    1    2  504  501 -0.24792416941E+02 -0.38406699637E+02  0.14279180619E+02  0.47891894032E+02  0.00000000000E+00 0. -1.
         21    1    1    2  505  503 -0.22978951630E+02  0.44627059097E+02  0.30468486388E+03  0.30879195731E+03  0.00000000000E+00 0.  1.
          2    1    1    2  501    0  0.11183209837E+02 -0.77369784797E+02  0.18650815382E+04  0.18667191250E+04  0.00000000000E+00 0. -1.
<scales pt_clust_3="35.89159" pt_clust_4="45.71366" pt_clust_5="14000.00000" pt_clust_6="69.57362"></scales>
<clustering>
<clus scale="   45.714">  2  4  1 -1</clus>
<clus scale="   35.892">  2  3  1 -1</clus>
<clus scale="   69.574">  1  6  2 -1</clus>
<clus scale="   45.714">  2  3  1 -1</clus>
</clustering>
</event>
<event>
 6    0  0.6525019E+002  0.8362124E+02  0.7546771E-02  0.1319078E+00
          1   -1    0    0  505    0 -0.00000000000E+00  0.00000000000E+00  0.57867038319E+03  0.57867038319E+03  0.00000000000E+00 0. -1.
         21   -1    0    0  503  502  0.00000000000E+00 -0.00000000000E+00 -0.16399483404E+03  0.16399483404E+03  0.00000000000E+00 0. -1.
         21    1    1    2  503  504  0.19894700273E+02 -0.34820386534E+02 -0.96591154191E+02  0.10458541717E+03  0.00000000000E+00 0. -1.
         21    1    1    2  504  501  0.54198580168E+02  0.39807681533E+02  0.39063154651E+02  0.77769323338E+02  0.00000000000E+00 0. -1.
         21    1    1    2  505  502 -0.88549370329E+02 -0.47537080088E+02  0.15844113660E+02  0.10174380034E+03  0.00000000000E+00 0. -1.
          1    1    1    2  501    0  0.14456089889E+02  0.42549785089E+02  0.45635943503E+03  0.45856667638E+03  0.00000000000E+00 0. -1.
<scales pt_clust_3="40.10310" pt_clust_4="14000.00000" pt_clust_5="83.62124" pt_clust_6="44.47905"></scales>
<clustering>
<clus scale="   40.103">  2  3  1 -1</clus>
<clus scale="   44.479">  1  6  2 -1</clus>
<clus scale="   83.621">  1  5  2 -1</clus>
<clus scale="   40.103">  2  3  1 -1</clus>
</clustering>
</event>
<event>
 6    0  0.6525019E+002  0.2574349E+03  0.7546771E-02  0.1108694E+00
          2   -1    0    0  504    0 -0.00000000000E+00  0.00000000000E+00  0.18367773230E+04  0.18367773230E+04  0.00000000000E+00 0. -1.
         21   -1    0    0  505  502  0.00000000000E+00 -0.00000000000E+00 -0.17890194079E+04  0.17890194079E+04  0.00000000000E+00 0.  1.
         21    1    1    2  503  501  0.38401339163E+02 -0.52201659580E+02  0.40114001175E+03  0.40634097153E+03  0.00000000000E+00 0. -1.
         21    1    1    2  504  502 -0.26207044948E+03  0.74430474842E+02 -0.78264778935E+02  0.28345403807E+03  0.00000000000E+00 0.  1.
         21    1    1    2  505  503  0.25414034294E+03 -0.32530647322E+02 -0.15951407519E+04  0.16155864494E+04  0.00000000000E+00 0.  1.
          2    1    1    2  501    0 -0.30471232630E+02  0.10301832060E+02  0.13200234342E+04  0.13204152720E+04  0.00000000000E+00 0. -1.
<scales pt_clust_3="46.49653" pt_clust_4="14000.00000" pt_clust_5="257.43494" pt_clust_6="32.16557"></scales>
<clustering>
<clus scale="   32.166">  1  6  2 -1</clus>
<clus scale="   46.497">  1  3  2 -1</clus>
<clus scale="  257.435">  2  5  1 -1</clus>
<clus scale="  257.435">  2  3  1 -1</clus>
</clustering>
</event>
<event>
 6    0  0.6525019E+002  0.8341369E+02  0.7546771E-02  0.1319634E+00
         21   -1    0    0  505  502  0.00000000000E+00  0.00000000000E+00  0.18663841824E+03  0.18663841824E+03  0.00000000000E+00 0.  1.
          2   -1    0    0  503    0 -0.00000000000E+00 -0.00000000000E+00 -0.18233876953E+04  0.18233876953E+04  0.00000000000E+00 0. -1.
         21    1    1    2  503  502 -0.13455693282E+02  0.88946302039E+02  0.11934693713E+03  0.14945297498E+03  0.00000000000E+00 0.  1.
         21    1    1    2  504  501 -0.27294156294E+01 -0.43462364324E+02  0.25251480084E+02  0.50339488165E+02  0.00000000000E+00 0. -1.
         21    1    1    2  505  504 -0.10996353847E+02  0.33337647859E+02 -0.94212065407E+01  0.36346632517E+02  0.00000000000E+00 0.  1.
          2    1    1    2  501    0  0.27181462758E+02 -0.78821585573E+02 -0.17719264878E+04  0.17738870179E+04  0.00000000000E+00 0. -1.
<scales pt_clust_3="83.41369" pt_clust_4="36.54818" pt_clust_5="35.10440" pt_clust_6="14000.00000"></scales>
<clustering>
<clus scale="   35.104">  1  5  2 -1</clus>
<clus scale="   36.548">  1  4  2 -1</clus>
<clus scale="   83.414">  1  3  2 -1</clus>
<clus scale="   35.104">  1  3  2 -1</clus>
</clustering>
</event>
<event>
 6    0  0.6525019E+002  0.8895997E+02  0.7546771E-02  0.1305390E+00
          1   -1    0    0  504    0 -0.00000000000E+00  0.00000000000E+00  0.91128215994E+03  0.91128215994E+03  0.00000000000E+00 0. -1.
         21   -1    0    0  503  502  0.00000000000E+00 -0.00000000000E+00 -0.52573895280E+02  0.52573895280E+02  0.00000000000E+00 0. -1.
         21    1    1    2  503  501 -0.31102274068E+02 -0.12154281383E+01 -0.20455800101E+02  0.37246053154E+02  0.00000000000E+00 0. -1.
         21    1    1    2  504  505  0.67175118251E+02  0.57067182702E+02  0.52395874380E+03  0.53132092473E+03  0.00000000000E+00 0. -1.
         21    1    1    2  505  502  0.46696307542E+02 -0.15311541935E+02  0.30686545237E+02  0.57936624971E+02  0.00000000000E+00 0. -1.
          1    1    1    2  501    0 -0.82769151725E+02 -0.40540212629E+02  0.32451877573E+03  0.33735245236E+03  0.00000000000E+00 0. -1.
<scales pt_clust_3="31.12601" pt_clust_4="14000.00000" pt_clust_5="32.97957" pt_clust_6="88.95997"></scales>
<clustering>
<clus scale="   31.126">  2  3  1 -1</clus>
<clus scale="   32.980">  2  5  1 -1</clus>
<clus scale="   88.960">  2  6  1 -1</clus>
<clus scale="   31.126">  2  3  1 -1</clus>
</clustering>
</event>
<event>
 6    0  0.6525019E+002  0.1079654E+03  0.7546771E-02  0.1264385E+00
          2   -1    0    0  503    0 -0.00000000000E+00  0.00000000000E+00  0.10852014898E+04  0.10852014898E+04  0.00000000000E+00 0. -1.
         21   -1    0    0  504  502  0.00000000000E+00 -0.00000000000E+00 -0.16107882136E+03  0.16107882136E+03  0.00000000000E+00 0. -1.
         21    1    1    2  503  502 -0.40475640673E+01 -0.59522874526E+02 -0.14029491168E+03  0.15245332928E+03  0.00000000000E+00 0. -1.
         21    1    1    2  504  505  0.96338794044E+02  0.18421165787E+02  0.20573885335E+03  0.22792318523E+03  0.00000000000E+00 0.  1.
         21    1    1    2  505  501 -0.53403524584E+02  0.28294545195E+02  0.31901464355E+03  0.32468886726E+03  0.00000000000E+00 0.  1.
          2    1    1    2  501    0 -0.38887705393E+02  0.12807163544E+02  0.53966408321E+03  0.54121492937E+03  0.00000000000E+00 0. -1.
<scales pt_clust_3="59.66033" pt_clust_4="96.97072" pt_clust_5="39.06960" pt_clust_6="39.06960"></scales>
<clustering>
<clus scale="   39.070">  5  6 -1 -1</clus>
<clus scale="   59.660">  2  3  1 -1</clus>
<clus scale="   96.971">  2  4  1 -1</clus>
<clus scale="   59.660">  2  3  1 -1</clus>
</clustering>
</event>
<event>
 6    0  0.6525019E+002  0.2207746E+03  0.7546771E-02  0.1133307E+00
         21   -1    0    0  505  502  0.00000000000E+00  0.00000000000E+00  0.52959466726E+03  0.52959466726E+03  0.00000000000E+00 0.  1.
         -3   -1    0    0    0  501 -0.00000000000E+00 -0.00000000000E+00 -0.29883303975E+03  0.29883303975E+03  0.00000000000E+00 0.  1.
         21    1    1    2  503  502 -0.45802896086E+02 -0.23620736444E+01  0.93846796277E+02  0.10445432424E+03  0.00000000000E+00 0. -1.
         21    1    1    2  504  503 -0.13712891765E+03  0.92572606738E+02 -0.17978827983E+03  0.24433144116E+03  0.00000000000E+00 0.  1.
         21    1    1    2  505  501  0.22849109409E+03 -0.72346041561E+02  0.34726793464E+03  0.42194448478E+03  0.00000000000E+00 0.  1.
         -3    1    1    2    0  504 -0.45559280362E+02 -0.17864491533E+02 -0.30564823572E+02  0.57697456832E+02  0.00000000000E+00 0.  1.
<scales pt_clust_3="45.86376" pt_clust_4="48.96643" pt_clust_5="201.80359" pt_clust_6="48.96643"></scales>
<clustering>
<clus scale="   45.864">  1  3  2 -1</clus>
<clus scale="   48.966">  4  6 -1 -1</clus>
<clus scale="  201.804">  1  5  2 -1</clus>
<clus scale="   45.864">  1  3  2 -1</clus>
</clustering>
</event>
<event>
 6    0  0.6525019E+002  0.1075995E+03  0.7546771E-02  0.1265081E+00
         21   -1    0    0  504  502  0.00000000000E+00  0.00000000000E+00  0.14920147107E+04  0.14920147107E+04  0.00000000000E+00 0. -1.
          2   -1    0    0  503    0 -0.00000000000E+00 -0.00000000000E+00 -0.15557222381E+04  0.15557222381E+04  0.00000000000E+00 0. -1.
         21    1    1    2  503  502 -0.21057884027E+01 -0.30232458063E+02  0.78809758542E+02  0.84435856760E+02  0.00000000000E+00 0. -1.
         21    1    1    2  504  505 -0.36952175374E+02 -0.69087932478E+02  0.13703930357E+04  0.13726309329E+04  0.00000000000E+00 0. -1.
         21    1    1    2  505  501  0.47403508320E+02  0.19409894697E+03 -0.23178232656E+03  0.30601395511E+03  0.00000000000E+00 0. -1.
          2    1    1    2  501    0 -0.83455445430E+01 -0.94778556425E+02 -0.12811279950E+04  0.12846562040E+04  0.00000000000E+00 0. -1.
<scales pt_clust_3="30.30571" pt_clust_4="107.59945" pt_clust_5="14000.00000" pt_clust_6="95.18317"></scales>
<clustering>
<clus scale="   30.306">  1  3  2 -1</clus>
<clus scale="   95.183">  2  6  1 -1</clus>
<clus scale="  107.599">  1  4  2 -1</clus>
<clus scale="   30.306">  1  3  2 -1</clus>
</clustering>
</event>
<event>
 6    0  0.6525019E+002  0.5780728E+02  0.7546771E-02  0.1407271E+00
          2   -1    0    0  504    0 -0.00000000000E+00  0.00000000000E+00  0.62820347182E+03  0.62820347182E+03  0.00000000000E+00 0. -1.
         21   -1    0    0  505  502  0.00000000000E+00 -0.00000000000E+00 -0.14084954429E+03  0.14084954429E+03  0.00000000000E+00 0. -1.
         21    1    1    2  503  501  0.97899184815E+02 -0.55636766560E+02  0.14812791288E+03  0.18606874739E+03  0.00000000000E+00 0. -1.
         21    1    1    2  504  502 -0.45079247055E+02 -0.10431050658E+02  0.49878584179E+02  0.68035420868E+02  0.00000000000E+00 0. -1.
         21    1    1    2  505  503 -0.52968023069E+02  0.16970134154E+02 -0.10432548050E+03  0.11822606651E+03  0.00000000000E+00 0. -1.
          2    1    1    2  501    0  0.14808530921E+00  0.49097683064E+02  0.39367291097E+03  0.39672278135E+03  0.00000000000E+00 0. -1.
<scales pt_clust_3="14000.00000" pt_clust_4="46.27035" pt_clust_5="57.80728" pt_clust_6="52.17397"></scales>
<clustering>
<clus scale="   46.270">  1  4  2 -1</clus>
<clus scale="   52.174">  1  6  2 -1</clus>
<clus scale="   57.807">  2  5  1 -1</clus>
<clus scale="   57.807">  2  3  1 -1</clus>
</clustering>
</event>
<event>
 6    0  0.6525019E+002  0.1059613E+03  0.7546771E-02  0.1268237E+00
          4   -1    0    0  505    0 -0.00000000000E+00  0.00000000000E+00  0.48898640282E+02  0.48898640282E+02  0.00000000000E+00 0. -1.
         21   -1    0    0  504  502  0.00000000000E+00 -0.00000000000E+00 -0.88227766461E+03  0.88227766461E+03  0.00000000000E+00 0.  1.
         21    1    1    2  503  502  0.37634039199E+02  0.31980666000E+02 -0.30985971866E+03  0.31377082266E+03  0.00000000000E+00 0.  1.
         21    1    1    2  504  501 -0.30227181230E+02 -0.36989569913E+01 -0.30008120332E+03  0.30162243510E+03  0.00000000000E+00 0.  1.
         21    1    1    2  505  503  0.60207888138E+02  0.65505156949E+02 -0.16207400550E+03  0.18488888188E+03  0.00000000000E+00 0.  1.
          4    1    1    2  501    0 -0.67614746107E+02 -0.93786865958E+02 -0.61364096842E+02  0.13089416526E+03  0.00000000000E+00 0. -1.
<scales pt_clust_3="36.86160" pt_clust_4="30.45266" pt_clust_5="105.96134" pt_clust_6="14000.00000"></scales>
<clustering>
<clus scale="   30.453">  2  4  1 -1</clus>
<clus scale="   36.862">  2  3  1 -1</clus>
<clus scale="  105.961">  2  5  1 -1</clus>
<clus scale="   30.453">  2  3  1 -1</clus>
</clustering>
</event>
<event>
 6    0  0.6525019E+002  0.1359027E+03  0.7546771E-02  0.1218951E+00
         21   -1    0    0  504  502  0.00000000000E+00  0.00000000000E+00  0.38460459113E+03  0.38460459113E+03  0.00000000000E+00 0.  1.
          2   -1    0    0  505    0 -0.00000000000E+00 -0.00000000000E+00 -0.36706147536E+03  0.36706147536E+03  0.00000000000E+00 0. -1.
         21    1    1    2  503  502 -0.58131917552E+02 -0.81708828857E+02 -0.31118223327E+02  0.10499522072E+03  0.00000000000E+00 0.  1.
         21    1    1    2  504  501  0.18708311671E+02  0.12304395028E+03  0.32531451697E+03  0.34830927289E+03  0.00000000000E+00 0.  1.
         21    1    1    2  505  503 -0.17415119783E+02 -0.38882680169E+02 -0.55267992622E+02  0.69783237404E+02  0.00000000000E+00 0.  1.
          2    1    1    2  501    0  0.56838725664E+02 -0.24524412571E+01 -0.22138518525E+03  0.22857833548E+03  0.00000000000E+00 0. -1.
<scales pt_clust_3="34.70742" pt_clust_4="125.03707" pt_clust_5="34.70742" pt_clust_6="56.89161"></scales>
<clustering>
<clus scale="   34.707">  3  5 -1 -1</clus>
<clus scale="   56.892">  2  6  1 -1</clus>
<clus scale="  125.037">  1  4  2 -1</clus>
<clus scale="  125.037">  1  3  2 -1</clus>
</clustering>
</event>
<event>
 6    0  0.6525019E+002  0.1593587E+03  0.7546771E-02  0.1189423E+00
          2   -1    0    0  503    0 -0.00000000000E+00  0.00000000000E+00  0.27306762833E+04  0.27306762833E+04  0.00000000000E+00 0. -1.
         21   -1    0    0  504  502  0.00000000000E+00 -0.00000000000E+00 -0.11571947557E+04  0.11571947557E+04  0.00000000000E+00 0. -1.
         21    1    1    2  503  505 -0.81707905107E+01  0.14130883615E+03 -0.27601259586E+03  0.31019010633E+03  0.00000000000E+00 0. -1.
         21    1    1    2  504  501  0.90574511052E+02 -0.14975184540E+03 -0.64604053711E+03  0.66932632762E+03  0.00000000000E+00 0. -1.
         21    1    1    2  505  502 -0.18706317788E+02 -0.27822010538E+02 -0.20454797925E+03  0.20727726941E+03  0.00000000000E+00 0. -1.
          2    1    1    2  501    0 -0.63697402753E+02  0.36265019791E+02  0.27000826399E+04  0.27010773356E+04  0.00000000000E+00 0. -1.
<scales pt_clust_3="159.35870" pt_clust_4="14000.00000" pt_clust_5="33.52597" pt_clust_6="73.29872"></scales>
<clustering>
<clus scale="   33.526">  2  5  1 -1</clus>
<clus scale="   73.299">  1  6  2 -1</clus>
<clus scale="  159.359">  1  3  2 -1</clus>
<clus scale="   33.526">  2  3  1 -1</clus>
</clustering>
</event>
<event>
 6    0  0.6525019E+002  0.1422908E+03  0.7546771E-02  0.1210279E+00
          1   -1    0    0  502    0 -0.00000000000E+00  0.00000000000E+00  0.22839624904E+04  0.22839624904E+04  0.00000000000E+00 0. -1.
         21   -1    0    0  503  502  0.00000000000E+00 -0.00000000000E+00 -0.76086423571E+03  0.76086423571E+03  0.00000000000E+00 0.  1.
         21    1    1    2  503  505  0.66015237294E+01  0.15340406104E+03 -0.71900324062E+03  0.73521564597E+03  0.00000000000E+00 0.  1.
         21    1    1    2  504  501 -0.54598806098E+02 -0.38406876631E+02  0.53233212862E+03  0.53650127023E+03  0.00000000000E+00 0. -1.
         21    1    1    2  505  504  0.22092576200E+02 -0.75102795437E+02  0.17557491833E+02  0.80229529009E+02  0.00000000000E+00 0. -1.
          1    1    1    2  501    0  0.25904706169E+02 -0.39894388972E+02  0.16922118748E+04  0.16928802809E+04  0.00000000000E+00 0. -1.
<scales pt_clust_3="14000.00000" pt_clust_4="80.72549" pt_clust_5="142.29079" pt_clust_6="47.56696"></scales>
<clustering>
<clus scale="   47.567">  1  6  2 -1</clus>
<clus scale="   80.725">  1  4  2 -1</clus>
<clus scale="  142.291">  1  5  2 -1</clus>
<clus scale="  142.291">  2  3  1 -1</clus>
</clustering>
</event>
<event>
 6    0  0.6525019E+002  0.9427476E+02  0.7546771E-02  0.1292818E+00
         21   -1    0    0  503  502  0.00000000000E+00  0.00000000000E+00  0.24573002204E+02  0.24573002204E+02  0.00000000000E+00 0. -1.
         -3   -1    0    0    0  501 -0.00000000000E+00 -0.00000000000E+00 -0.13443180084E+04  0.13443180084E+04  0.00000000000E+00 0.  1.
         21    1    1    2  503  504  0.67115336796E+02  0.62600510171E+02 -0.27046533405E+03  0.28561300606E+03  0.00000000000E+00 0. -1.
         21    1    1    2  504  501 -0.12429737788E+02 -0.31063340671E+02 -0.20170458123E+03  0.20446067495E+03  0.00000000000E+00 0. -1.
         21    1    1    2  505  502 -0.90470977913E+02 -0.37354915934E+02 -0.14288378873E+03  0.17319400876E+03  0.00000000000E+00 0. -1.
         -3    1    1    2    0  505  0.35785378905E+02  0.58177464343E+01 -0.70469130221E+03  0.70562332085E+03  0.00000000000E+00 0.  1.
<scales pt_clust_3="94.27476" pt_clust_4="33.45788" pt_clust_5="14000.00000" pt_clust_6="31.12583"></scales>
<clustering>
<clus scale="   33.458">  2  4  1 -1</clus>
<clus scale="   31.126">  2  6  1 -1</clus>
<clus scale="   94.275">  2  3  1 -1</clus>
<clus scale="   94.275">  1  3  2 -1</clus>
</clustering>
</event>
<event>
 6    0  0.6525019E+002  0.1220926E+03  0.7546771E-02  0.1239684E+00
         -3   -1    0    0    0  501 -0.00000000000E+00  0.00000000000E+00  0.16391682927E+04  0.16391682927E+04  0.00000000000E+00 0. -1.
         21   -1    0    0  505  502  0.00000000000E+00 -0.00000000000E+00 -0.91490667804E+02  0.91490667804E+02  0.00000000000E+00 0. -1.
         21    1    1    2  503  502  0.14900283754E+02  0.27867583873E+02 -0.34958572469E+02  0.47124542183E+02  0.00000000000E+00 0. -1.
         21    1    1    2  504  503  0.46517111762E+02  0.22878844393E+02  0.47017719735E+02  0.69985349728E+02  0.00000000000E+00 0. -1.
         21    1    1    2  505  501 -0.14318726810E+03 -0.13414465187E+03  0.22832153056E+03  0.30104501771E+03  0.00000000000E+00 0. -1.
         -3    1    1    2    0  504  0.81769872584E+02  0.83398223607E+02  0.13072969470E+04  0.13125040508E+04  0.00000000000E+00 0. -1.
<scales pt_clust_3="31.60096" pt_clust_4="57.83464" pt_clust_5="122.09259" pt_clust_6="14000.00000"></scales>
<clustering>
<clus scale="   31.601">  2  3  1 -1</clus>
<clus scale="   57.835">  2  4  1 -1</clus>
<clus scale="  122.093">  2  5  1 -1</clus>
<clus scale="   31.601">  2  3  1 -1</clus>
</clustering>
</event>
<event>
 6    0  0.6525019E+002  0.1323511E+03  0.7546771E-02  0.1224008E+00
         21   -1    0    0  501  502  0.00000000000E+00  0.00000000000E+00  0.64095315497E+03  0.64095315497E+03  0.00000000000E+00 0. -1.
          2   -1    0    0  504    0 -0.00000000000E+00 -0.00000000000E+00 -0.78501859916E+03  0.78501859916E+03  0.00000000000E+00 0.  1.
         21    1    1    2  503  505  0.61026723269E+02  0.57362626553E+02  0.10672523242E+03  0.13566505487E+03  0.00000000000E+00 0. -1.
         21    1    1    2  504  503  0.47307567438E+02 -0.10236086414E+02 -0.31018307993E+02  0.57488423467E+02  0.00000000000E+00 0. -1.
         21    1    1    2  505  502 -0.20145053178E+02  0.78355109590E+02  0.49510602680E+03  0.50167252680E+03  0.00000000000E+00 0. -1.
          2    1    1    2  501    0 -0.88189237529E+02 -0.12548164973E+03 -0.71487839542E+03  0.73114574900E+03  0.00000000000E+00 0.  1.
<scales pt_clust_3="132.35109" pt_clust_4="48.40231" pt_clust_5="80.80739" pt_clust_6="14000.00000"></scales>
<clustering>
<clus scale="   48.402">  2  4  1 -1</clus>
<clus scale="   80.807">  1  5  2 -1</clus>
<clus scale="  132.351">  1  3  2 -1</clus>
<clus scale="   80.807">  1  3  2 -1</clus>
</clustering>
</event>
<event>
 6    0  0.6525019E+002  0.1864984E+03  0.7546771E-02  0.1161658E+00
         21   -1    0    0  504  502  0.00000000000E+00  0.00000000000E+00  0.76941714858E+03  0.76941714858E+03  0.00000000000E+00 0.  1.
          2   -1    0    0  503    0 -0.00000000000E+00 -0.00000000000E+00 -0.11821111161E+04  0.11821111161E+04  0.00000000000E+00 0.  1.
         21    1    1    2  503  505 -0.41687099357E+02 -0.15256371679E+03 -0.11476300349E+03  0.19540739214E+03  0.00000000000E+00 0.  1.
         21    1    1    2  504  501 -0.58368791247E+02  0.42777302801E+02  0.17932819919E+03  0.19337894521E+03  0.00000000000E+00 0.  1.
         21    1    1    2  505  502  0.62981897856E+02  0.15224400588E+03  0.52943117371E+03  0.55447481862E+03  0.00000000000E+00 0.  1.
          2    1    1    2  501    0  0.37073992748E+02 -0.42457591897E+02 -0.10066903370E+04  0.10082671088E+04  0.00000000000E+00 0.  1.
<scales pt_clust_3="14000.00000" pt_clust_4="70.15493" pt_clust_5="186.49837" pt_clust_6="56.36602"></scales>
<clustering>
<clus scale="   56.366">  2  6  1 -1</clus>
<clus scale="   70.155">  1  4  2 -1</clus>
<clus scale="  186.498">  1  5  2 -1</clus>
<clus scale="   70.155">  1  3  2 -1</clus>
</clustering>
</event>
<event>
 6    0  0.6525019E+002  0.1081196E+03  0.7546771E-02  0.1264092E+00
         21   -1    0    0  505  502  0.00000000000E+00  0.00000000000E+00  0.54960990159E+03  0.54960990159E+03  0.00000000000E+00 0.  1.
          1   -1    0    0  504    0 -0.00000000000E+00 -0.00000000000E+00 -0.64300572831E+03  0.64300572831E+03  0.00000000000E+00 0.  1.
         21    1    1    2  503  501 -0.46350452964E+02 -0.42352580638E+01  0.51841676650E+02  0.69669658667E+02  0.00000000000E+00 0.  1.
         21    1    1    2  504  502 -0.33287753880E+02  0.11405679614E+03  0.24965129537E+03  0.27648290468E+03  0.00000000000E+00 0.  1.
         21    1    1    2  505  503  0.24042685577E+01 -0.34051400194E+02  0.21974418358E+03  0.22237982053E+03  0.00000000000E+00 0.  1.
          1    1    1    2  501    0  0.77233938286E+02 -0.75770137879E+02 -0.61463298232E+03  0.62408324603E+03  0.00000000000E+00 0.  1.
<scales pt_clust_3="47.09854" pt_clust_4="14000.00000" pt_clust_5="34.13617" pt_clust_6="108.11961"></scales>
<clustering>
<clus scale="   34.136">  1  5  2 -1</clus>
<clus scale="   47.099">  1  3  2 -1</clus>
<clus scale="  108.120">  2  6  1 -1</clus>
<clus scale="   34.136">  1  3  2 -1</clus>
</clustering>
</event>
<event>
 6    0  0.6525019E+002  0.1065160E+03  0.7546771E-02  0.1267161E+00
         21   -1    0    0  503  502  0.00000000000E+00  0.00000000000E+00  0.76097850828E+02  0.76097850828E+02  0.00000000000E+00 0.  1.
          2   -1    0    0  502    0 -0.00000000000E+00 -0.00000000000E+00 -0.14783429804E+04  0.14783429804E+04  0.00000000000E+00 0.  1.
         21    1    1    2  503  504 -0.98570421840E+02 -0.26147434973E+02  0.18560944298E+02  0.10365483621E+03  0.00000000000E+00 0.  1.
         21    1    1    2  504  505  0.17134019604E+03  0.24515455900E+02 -0.60217704465E+03  0.62655858741E+03  0.00000000000E+00 0.  1.
         21    1    1    2  505  501 -0.45754551248E+02 -0.18804007035E+02 -0.26596541374E+03  0.27052665478E+03  0.00000000000E+00 0.  1.
          2    1    1    2  501    0 -0.27015222950E+02  0.20435986108E+02 -0.55266361546E+03  0.55370075280E+03  0.00000000000E+00 0.  1.
<scales pt_clust_3="106.51604" pt_clust_4="14000.00000" pt_clust_5="55.11333" pt_clust_6="33.87406"></scales>
<clustering>
<clus scale="   33.874">  2  6  1 -1</clus>
<clus scale="   55.113">  2  5  1 -1</clus>
<clus scale="  106.516">  1  3  2 -1</clus>
<clus scale="  106.516">  1  3  2 -1</clus>
</clustering>
</event>
<event>
 6    0  0.6525019E+002  0.6331584E+02  0.7546771E-02  0.1384421E+00
         -2   -1    0    0    0  501 -0.00000000000E+00  0.00000000000E+00  0.10037734955E+03  0.10037734955E+03  0.00000000000E+00 0. -1.
         21   -1    0    0  505  502  0.00000000000E+00 -0.00000000000E+00 -0.43257793013E+03  0.43257793013E+03  0.00000000000E+00 0.  1.
         21    1    1    2  503  501  0.43063729794E+02 -0.30476580746E+02 -0.67497567917E+02  0.85669297140E+02  0.00000000000E+00 0.  1.
         21    1    1    2  504  502 -0.43053008501E+02  0.12333457880E+03 -0.24450562529E+03  0.27721468336E+03  0.00000000000E+00 0.  1.
         21    1    1    2  505  503 -0.10176585253E+02 -0.33603950394E+02 -0.78704839583E+02  0.86181437348E+02  0.00000000000E+00 0.  1.
         -2    1    1    2    0  504  0.10165863960E+02 -0.59254047662E+02  0.58507452209E+02  0.83889861833E+02  0.00000000000E+00 0. -1.
<scales pt_clust_3="55.66492" pt_clust_4="63.31584" pt_clust_5="35.11109" pt_clust_6="14000.00000"></scales>
<clustering>
<clus scale="   35.111">  2  5  1 -1</clus>
<clus scale="   55.665">  2  3  1 -1</clus>
<clus scale="   63.316">  2  4  1 -1</clus>
<clus scale="   35.111">  2  3  1 -1</clus>
</clustering>
</event>
<event>
 6    0  0.6525019E+002  0.8837686E+02  0.7546771E-02  0.1306831E+00
         21   -1    0    0  504  502  0.00000000000E+00  0.00000000000E+00  0.19768803468E+03  0.19768803468E+03  0.00000000000E+00 0. -1.
          2   -1    0    0  505    0 -0.00000000000E+00 -0.00000000000E+00 -0.12251113010E+04  0.12251113010E+04  0.00000000000E+00 0.  1.
         21    1    1    2  503  502  0.81431588015E+02  0.14394893297E+02  0.34632843428E+02  0.89653501458E+02  0.00000000000E+00 0. -1.
         21    1    1    2  504  501 -0.32013950799E+02  0.43281778942E+02  0.91713341298E+02  0.10634633236E+03  0.00000000000E+00 0. -1.
         21    1    1    2  505  503 -0.46897665245E+02  0.33517878430E+02  0.10812789468E+02  0.58649429630E+02  0.00000000000E+00 0. -1.
          2    1    1    2  501    0 -0.25199719715E+01 -0.91194550669E+02 -0.11645822405E+04  0.11681500722E+04  0.00000000000E+00 0.  1.
<scales pt_clust_3="74.08727" pt_clust_4="53.83498" pt_clust_5="88.37686" pt_clust_6="14000.00000"></scales>
<clustering>
<clus scale="   53.835">  1  4  2 -1</clus>
<clus scale="   74.087">  1  3  2 -1</clus>
<clus scale="   88.377">  1  5  2 -1</clus>
<clus scale="   53.835">  1  3  2 -1</clus>
</clustering>
</event>
<event>
 6    0  0.6525019E+002  0.1836657E+03  0.7546771E-02  0.1164302E+00
         21   -1    0    0  504  502  0.00000000000E+00  0.00000000000E+00  0.78501095749E+03  0.78501095749E+03  0.00000000000E+00 0. -1.
          2   -1    0    0  505    0 -0.00000000000E+00 -0.00000000000E+00 -0.32918134053E+03  0.32918134053E+03  0.00000000000E+00 0. -1.
         21    1    1    2  503  501  0.95923120918E+02 -0.38142977195E+02 -0.34145408077E+02  0.10872920826E+03  0.00000000000E+00 0. -1.
         21    1    1    2  504  503  0.85175650549E+02 -0.76752876245E+02 -0.79173395411E+02  0.13933528627E+03  0.00000000000E+00 0. -1.
         21    1    1    2  505  502 -0.13332310030E+03  0.11184575225E+03  0.70287108599E+03  0.72409411328E+03  0.00000000000E+00 0. -1.
          2    1    1    2  501    0 -0.47775671169E+02  0.30501011917E+01 -0.13372266554E+03  0.14203369021E+03  0.00000000000E+00 0. -1.
<scales pt_clust_3="49.59319" pt_clust_4="49.59319" pt_clust_5="176.17054" pt_clust_6="47.87293"></scales>
<clustering>
<clus scale="   47.873">  2  6  1 -1</clus>
<clus scale="   49.593">  3  4 -1 -1</clus>
<clus scale="  176.171">  1  5  2 -1</clus>
<clus scale="  176.171">  1  3  2 -1</clus>
</clustering>
</event>
<event>
 6    0  0.6525019E+002  0.1082613E+03  0.7546771E-02  0.1263824E+00
         21   -1    0    0  503  502  0.00000000000E+00  0.00000000000E+00  0.18408213340E+03  0.18408213340E+03  0.00000000000E+00 0.  1.
          2   -1    0    0  505    0 -0.00000000000E+00 -0.00000000000E+00 -0.26518328013E+04  0.26518328013E+04  0.00000000000E+00 0.  1.
         21    1    1    2  503  501  0.56372195527E+02  0.13479476691E+02  0.13525289275E+03  0.14714912748E+03  0.00000000000E+00 0.  1.
         21    1    1    2  504  502  0.24094055344E+02  0.23126687885E+02  0.57552825824E+01  0.33889385847E+02  0.00000000000E+00 0. -1.
         21    1    1    2  505  504 -0.12579260289E+03  0.61570897776E+02 -0.20263759170E+03  0.24632650682E+03  0.00000000000E+00 0.  1.
          2    1    1    2  501    0  0.45326352021E+02 -0.98177062352E+02 -0.24061212515E+04  0.24085499145E+04  0.00000000000E+00 0.  1.
<scales pt_clust_3="83.99284" pt_clust_4="33.39711" pt_clust_5="14000.00000" pt_clust_6="108.26129"></scales>
<clustering>
<clus scale="   33.397">  1  4  2 -1</clus>
<clus scale="   83.993">  1  3  2 -1</clus>
<clus scale="  108.261">  2  6  1 -1</clus>
<clus scale="   33.397">  1  3  2 -1</clus>
</clustering>
</event>
<event>
 6    0  0.6525019E+002  0.1061864E+03  0.7546771E-02  0.1267800E+00
         -3   -1    0    0    0  501 -0.00000000000E+00  0.00000000000E+00  0.38861350465E+03  0.38861350465E+03  0.00000000000E+00 0.  1.
         21   -1    0    0  504  502  0.00000000000E+00 -0.00000000000E+00 -0.90975461508E+03  0.90975461508E+03  0.00000000000E+00 0.  1.
         21    1    1    2  503  501 -0.24059137499E+02 -0.41075073658E+02  0.12129348067E+02  0.49123567234E+02  0.00000000000E+00 0.  1.
         21    1    1    2  504  503  0.56237978620E+02 -0.62627870193E+02 -0.81939234205E+03  0.82370429802E+03  0.00000000000E+00 0.  1.
         21    1    1    2  505  502 -0.44299897370E+02  0.16337807462E+03  0.42648354035E+02  0.17456734596E+03  0.00000000000E+00 0.  1.
         -3    1    1    2    0  505  0.12121056249E+02 -0.59675130765E+02  0.24347352952E+03  0.25097290852E+03  0.00000000000E+00 0.  1.
<scales pt_clust_3="47.60256" pt_clust_4="84.25990" pt_clust_5="14000.00000" pt_clust_6="106.18639"></scales>
<clustering>
<clus scale="   47.603">  1  3  2 -1</clus>
<clus scale="   84.260">  2  4  1 -1</clus>
<clus scale="  106.186">  1  6  2 -1</clus>
<clus scale="   84.260">  2  3  1 -1</clus>
</clustering>
</event>
<event>
 6    0  0.6525019E+002  0.9009885E+02  0.7546771E-02  0.1302612E+00
          1   -1    0    0  505    0 -0.00000000000E+00  0.00000000000E+00  0.77571584641E+03  0.77571584641E+03  0.00000000000E+00 0.  1.
         21   -1    0    0  503  502  0.00000000000E+00 -0.00000000000E+00 -0.36938619623E+03  0.36938619623E+03  0.00000000000E+00 0.  1.
         21    1    1    2  503  501 -0.83779450306E+02  0.67923990859E+02  0.13716825325E+03  0.17449296412E+03  0.00000000000E+00 0.  1.
         21    1    1    2  504  502  0.30717842792E+02 -0.13646825941E+01 -0.28873034604E+03  0.29036298136E+03  0.00000000000E+00 0.  1.
         21    1    1    2  505  504  0.45785119328E+02  0.25195653130E+02 -0.45853876740E+02  0.69524643837E+02  0.00000000000E+00 0.  1.
          1    1    1    2  501    0  0.72764881856E+01 -0.91754961395E+02  0.60374561972E+03  0.61072145332E+03  0.00000000000E+00 0.  1.
<scales pt_clust_3="90.09885" pt_clust_4="30.74814" pt_clust_5="72.16292" pt_clust_6="14000.00000"></scales>
<clustering>
<clus scale="   30.748">  2  4  1 -1</clus>
<clus scale="   72.163">  2  5  1 -1</clus>
<clus scale="   90.099">  2  3  1 -1</clus>
<clus scale="   30.748">  2  3  1 -1</clus>
</clustering>
</event>
<event>
 6    0  0.6525019E+002  0.7961687E+02  0.7546771E-02  0.1330142E+00
         21   -1    0    0  503  502  0.00000000000E+00  0.00000000000E+00  0.81842407758E+02  0.81842407758E+02  0.00000000000E+00 0.  1.
          2   -1    0    0  504    0 -0.00000000000E+00 -0.00000000000E+00 -0.19714969219E+04  0.19714969219E+04  0.00000000000E+00 0.  1.
         21    1    1    2  503  505  0.74876353907E+02 -0.32179066744E+02  0.55831623558E+02  0.98788313581E+02  0.00000000000E+00 0.  1.
         21    1    1    2  504  502 -0.45367298414E+02  0.23195502571E+02 -0.61837186792E+03  0.62046755769E+03  0.00000000000E+00 0.  1.
         21    1    1    2  505  501 -0.57562719678E+02 -0.39327810906E+02 -0.46905589872E+03  0.47420837142E+03  0.00000000000E+00 0.  1.
          2    1    1    2  501    0  0.28053664185E+02  0.48311375079E+02 -0.85805837110E+03  0.85987508700E+03  0.00000000000E+00 0.  1.
<scales pt_clust_3="14000.00000" pt_clust_4="50.95315" pt_clust_5="79.61687" pt_clust_6="63.05202"></scales>
<clustering>
<clus scale="   50.953">  2  4  1 -1</clus>
<clus scale="   63.052">  2  6  1 -1</clus>
<clus scale="   79.617">  2  5  1 -1</clus>
<clus scale="   79.617">  1  3  2 -1</clus>
</clustering>
</event>
<event>
 6    0  0.6525019E+002  0.1008820E+03  0.7546771E-02  0.1278452E+00
         21   -1    0    0  504  502  0.00000000000E+00  0.00000000000E+00  0.20549732971E+03  0.20549732971E+03  0.00000000000E+00 0.  1.
          2   -1    0    0  505    0 -0.00000000000E+00 -0.00000000000E+00 -0.16479332361E+04  0.16479332361E+04  0.00000000000E+00 0.  1.
         21    1    1    2  503  502 -0.24248667392E+02  0.86170189838E+02  0.16077504416E+03  0.18401607080E+03  0.00000000000E+00 0.  1.
         21    1    1    2  504  501  0.55996389427E+02  0.11756863529E+02  0.40290519206E+01  0.57358981235E+02  0.00000000000E+00 0. -1.
         21    1    1    2  505  503  0.59540800723E+01 -0.50438536773E+02 -0.38817584601E+03  0.39148433492E+03  0.00000000000E+00 0. -1.
          2    1    1    2  501    0 -0.37701802107E+02 -0.47488516594E+02 -0.12190641564E+04  0.12205711788E+04  0.00000000000E+00 0.  1.
<scales pt_clust_3="14000.00000" pt_clust_4="57.13120" pt_clust_5="50.78875" pt_clust_6="100.88205"></scales>
<clustering>
<clus scale="   50.789">  2  5  1 -1</clus>
<clus scale="   57.131">  1  4  2 -1</clus>
<clus scale="  100.882">  2  6  1 -1</clus>
<clus scale="   57.131">  1  3  2 -1</clus>
</clustering>
</event>
<event>
 6    0  0.6525019E+002  0.9135352E+02  0.7546771E-02  0.1299607E+00
         21   -1    0    0  505  502  0.00000000000E+00  0.00000000000E+00  0.11419072888E+03  0.11419072888E+03  0.00000000000E+00 0.  1.
          2   -1    0    0  504    0 -0.00000000000E+00 -0.00000000000E+00 -0.42649384886E+03  0.42649384886E+03  0.00000000000E+00 0.  1.
         21    1    1    2  503  501  0.48352816880E+02  0.96666501076E+02 -0.13849786865E+03  0.17568172060E+03  0.00000000000E+00 0.  1.
         21    1    1    2  504  502 -0.49445053390E+01 -0.65493990546E+02 -0.26919402159E+02  0.70982851051E+02  0.00000000000E+00 0.  1.
         21    1    1    2  505  503 -0.77896930946E+02 -0.46764306921E+02  0.42915415785E+02  0.10048166581E+03  0.00000000000E+00 0.  1.
          2    1    1    2  501    0  0.34488619404E+02  0.15591796391E+02 -0.18980126494E+03  0.19353834028E+03  0.00000000000E+00 0.  1.
<scales pt_clust_3="91.35352" pt_clust_4="62.28422" pt_clust_5="14000.00000" pt_clust_6="37.84929"></scales>
<clustering>
<clus scale="   37.849">  2  6  1 -1</clus>
<clus scale="   62.284">  2  4  1 -1</clus>
<clus scale="   91.354">  2  3  1 -1</clus>
<clus scale="   91.354">  1  3  2 -1</clus>
</clustering>
</event>
<event>
 6    0  0.6525019E+002  0.8704207E+02  0.7546771E-02  0.1310177E+00
          2   -1    0    0  503    0 -0.00000000000E+00  0.00000000000E+00  0.79866749363E+03  0.79866749363E+03  0.00000000000E+00 0. -1.
         21   -1    0    0  505  502  0.00000000000E+00 -0.00000000000E+00 -0.41286349021E+02  0.41286349021E+02  0.00000000000E+00 0. -1.
         21    1    1    2  503  504 -0.11550537478E+03 -0.10602686670E+02  0.13578927748E+03  0.17858509581E+03  0.00000000000E+00 0. -1.
         21    1    1    2  504  502  0.37957494061E+02  0.59091699511E+02  0.13212311741E+03  0.14962993839E+03  0.00000000000E+00 0. -1.
         21    1    1    2  505  501 -0.33743171862E+01 -0.30763964877E+02  0.24566455049E+02  0.39513520029E+02  0.00000000000E+00 0. -1.
          2    1    1    2  501    0  0.80922197907E+02 -0.17725047964E+02  0.46490229467E+03  0.47222528842E+03  0.00000000000E+00 0. -1.
<scales pt_clust_3="87.04207" pt_clust_4="63.16050" pt_clust_5="30.94847" pt_clust_6="14000.00000"></scales>
<clustering>
<clus scale="   30.948">  2  5  1 -1</clus>
<clus scale="   63.160">  2  4  1 -1</clus>
<clus scale="   87.042">  2  3  1 -1</clus>
<clus scale="   30.948">  2  3  1 -1</clus>
</clustering>
</event>
<event>
 6    0  0.6525019E+002  0.7398635E+02  0.7546771E-02  0.1347039E+00
          2   -1    0    0  505    0 -0.00000000000E+00  0.00000000000E+00  0.26393336048E+04  0.26393336048E+04  0.00000000000E+00 0. -1.
         21   -1    0    0  504  502  0.00000000000E+00 -0.00000000000E+00 -0.40889216013E+02  0.40889216013E+02  0.00000000000E+00 0.  1.
         21    1    1    2  503  502 -0.32542912162E+02 -0.15626853436E+02  0.13180263487E+03  0.13665714119E+03  0.00000000000E+00 0. -1.
         21    1    1    2  504  501  0.11089563408E+03  0.12552241002E+02  0.59078875987E+02  0.12627633983E+03  0.00000000000E+00 0.  1.
         21    1    1    2  505  503 -0.48061888808E+02  0.51941694375E+02  0.27524746376E+03  0.28419896389E+03  0.00000000000E+00 0. -1.
          2    1    1    2  501    0 -0.30290833108E+02 -0.48867081941E+02  0.21323154142E+04  0.21330903759E+04  0.00000000000E+00 0. -1.
<scales pt_clust_3="36.10041" pt_clust_4="14000.00000" pt_clust_5="73.98635" pt_clust_6="57.80058"></scales>
<clustering>
<clus scale="   36.100">  2  3  1 -1</clus>
<clus scale="   57.801">  1  6  2 -1</clus>
<clus scale="   73.986">  1  5  2 -1</clus>
<clus scale="   36.100">  2  3  1 -1</clus>
</clustering>
</event>
<event>
 6    0  0.6525019E+002  0.9617208E+02  0.7546771E-02  0.1288558E+00
         21   -1    0    0  501  502  0.00000000000E+00  0.00000000000E+00  0.22342992159E+03  0.22342992159E+03  0.00000000000E+00 0. -1.
          1   -1    0    0  505    0 -0.00000000000E+00 -0.00000000000E+00 -0.16325081697E+04  0.16325081697E+04  0.00000000000E+00 0.  1.
         21    1    1    2  503  504  0.54093160844E+02  0.24184018533E+02 -0.92075014029E+01  0.59964280072E+02  0.00000000000E+00 0. -1.
         21    1    1    2  504  502 -0.49517129032E+01  0.39951587846E+02  0.16461003837E+03  0.16946124502E+03  0.00000000000E+00 0. -1.
         21    1    1    2  505  503 -0.29965772311E+02 -0.15558600835E+03 -0.18377361411E+03  0.24264726404E+03  0.00000000000E+00 0. -1.
          1    1    1    2  501    0 -0.19175675630E+02  0.91450401969E+02 -0.13807071710E+04  0.13838653022E+04  0.00000000000E+00 0.  1.
<scales pt_clust_3="66.84063" pt_clust_4="40.25728" pt_clust_5="96.17208" pt_clust_6="14000.00000"></scales>
<clustering>
<clus scale="   40.257">  1  4  2 -1</clus>
<clus scale="   66.841">  1  3  2 -1</clus>
<clus scale="   96.172">  1  5  2 -1</clus>
<clus scale="   40.257">  1  3  2 -1</clus>
</clustering>
</event>
<event>
 6    0  0.6525019E+002  0.1245950E+03  0.7546771E-02  0.1235704E+00
          2   -1    0    0  503    0 -0.00000000000E+00  0.00000000000E+00  0.12246142299E+04  0.12246142299E+04  0.00000000000E+00 0. -1.
         21   -1    0    0  505  502  0.00000000000E+00 -0.00000000000E+00 -0.42516243616E+02  0.42516243616E+02  0.00000000000E+00 0. -1.
         21    1    1    2  503  504  0.76424457051E+02 -0.96696712399E+02  0.83131393477E+03  0.84040098165E+03  0.00000000000E+00 0. -1.
         21    1    1    2  504  502 -0.14422676766E+03  0.49112486421E+02  0.20235808926E+03  0.25330257227E+03  0.00000000000E+00 0. -1.
         21    1    1    2  505  501  0.21663609122E+02  0.35846184420E+02  0.75415781564E+02  0.86265873939E+02  0.00000000000E+00 0. -1.
          2    1    1    2  501    0  0.46138701489E+02  0.11738041559E+02  0.73010180742E+02  0.87161045696E+02  0.00000000000E+00 0. -1.
<scales pt_clust_3="124.59501" pt_clust_4="14000.00000" pt_clust_5="32.29095" pt_clust_6="89.70301"></scales>
<clustering>
<clus scale="   32.291">  5  6 -1 -1</clus>
<clus scale="   89.703">  2  5  1 -1</clus>
<clus scale="  124.595">  1  3  2 -1</clus>
<clus scale="   89.703">  2  3  1 -1</clus>
</clustering>
</event>
<event>
 6    0  0.6525019E+002  0.1209584E+03  0.7546771E-02  0.1241524E+00
         21   -1    0    0  501  502  0.00000000000E+00  0.00000000000E+00  0.43540390836E+03  0.43540390836E+03  0.00000000000E+00 0.  1.
         -1   -1    0    0    0  501 -0.00000000000E+00 -0.00000000000E+00 -0.16676298399E+03  0.16676298399E+03  0.00000000000E+00 0. -1.
         21    1    1    2  503  502 -0.47427730954E+02  0.10531913154E+02  0.58375591639E+02  0.75947485523E+02  0.00000000000E+00 0.  1.
         21    1    1    2  504  503 -0.76940446671E+02 -0.52796474690E+02  0.26294257111E+03  0.27900913206E+03  0.00000000000E+00 0.  1.
         21    1    1    2  505  504  0.10659492415E+03  0.81853342241E+02  0.43856380632E+02  0.14137124748E+03  0.00000000000E+00 0.  1.
         -1    1    1    2    0  505  0.17773253474E+02 -0.39588780706E+02 -0.96533619013E+02  0.10583902728E+03  0.00000000000E+00 0. -1.
<scales pt_clust_3="45.34881" pt_clust_4="14000.00000" pt_clust_5="120.95841" pt_clust_6="43.39539"></scales>
<clustering>
<clus scale="   43.395">  2  6  1 -1</clus>
<clus scale="   45.349">  1  3  2 -1</clus>
<clus scale="  120.958">  2  5  1 -1</clus>
<clus scale="   45.349">  1  3  2 -1</clus>
</clustering>
</event>
<event>
 6    0  0.6525019E+002  0.1334309E+03  0.7546771E-02  0.1222452E+00
          2   -1    0    0  504    0 -0.00000000000E+00  0.00000000000E+00  0.14010148941E+04  0.14010148941E+04  0.00000000000E+00 0. -1.
         21   -1    0    0  503  502  0.00000000000E+00 -0.00000000000E+00 -0.58528256459E+03  0.58528256459E+03  0.00000000000E+00 0. -1.
         21    1    1    2  503  501 -0.20771721197E+02  0.11080241366E+03 -0.90531433062E+02  0.14458416112E+03  0.00000000000E+00 0. -1.
         21    1    1    2  504  505 -0.41809089867E+02 -0.21260903706E+02  0.89328979393E+02  0.10089446259E+03  0.00000000000E+00 0. -1.
         21    1    1    2  505  502  0.35792712660E+02 -0.13727774837E+03 -0.45044508023E+03  0.47225741792E+03  0.00000000000E+00 0. -1.
          2    1    1    2  501    0  0.26788098405E+02  0.47736238417E+02  0.12673798634E+04  0.12685614171E+04  0.00000000000E+00 0. -1.
<scales pt_clust_3="133.43089" pt_clust_4="46.90443" pt_clust_5="14000.00000" pt_clust_6="30.40800"></scales>
<clustering>
<clus scale="   46.904">  1  4  2 -1</clus>
<clus scale="   30.408">  1  6  2 -1</clus>
<clus scale="  133.431">  1  3  2 -1</clus>
<clus scale="  133.431">  2  3  1 -1</clus>
</clustering>
</event>
