<event>
 6    0  0.1622933E+002  0.1146097E+03  0.7546771E-02  0.1252264E+00
         21   -1    0    0  505  502  0.00000000000E+00  0.00000000000E+00  0.65101468717E+03  0.65101468717E+03  0.00000000000E+00 0.  1.
         -1   -1    0    0    0  501 -0.00000000000E+00 -0.00000000000E+00 -0.10864267059E+04  0.10864267059E+04  0.00000000000E+00 0.  1.
         21    1    1    2  503  502  0.39772134946E+02  0.65172111478E+02  0.60017261240E+03  0.60500941439E+03  0.00000000000E+00 0.  1.
         21    1    1    2  504  501  0.32195177088E+02  0.13915359640E+02 -0.74158205886E+03  0.74241101601E+03  0.00000000000E+00 0.  1.
         21    1    1    2  505  504  0.47127039198E+02  0.57967496308E+02 -0.85031507628E+02  0.11318809894E+03  0.00000000000E+00 0.  1.
         -1    1    1    2    0  503 -0.11909435123E+03 -0.13705496743E+03 -0.20897106464E+03  0.27683286374E+03  0.00000000000E+00 0.  1.
<scales pt_clust_3="76.55067" pt_clust_4="35.07373" pt_clust_5="114.60971" pt_clust_6="14000.00000"></scales>
<clustering>
<clus scale="   35.074">  2  4  1 -1</clus>
<clus scale="   76.551">  1  3  2 -1</clus>
<clus scale="  114.610">  2  5  1 -1</clus>
<clus scale="   76.551">  1  3  2 -1</clus>
</clustering>
</event>
<event>
 6    0  0.3216363E+002  0.7515163E+02  0.7546771E-02  0.1343402E+00
         21   -1    0    0  505  502  0.00000000000E+00  0.00000000000E+00  0.15008286238E+04  0.15008286238E+04  0.00000000000E+00 0.  1.
          2   -1    0    0  503    0 -0.00000000000E+00 -0.00000000000E+00 -0.20426257994E+04  0.20426257994E+04  0.00000000000E+00 0. -1.
         21    1    1    2  503  502  0.92568429186E+02  0.41625712845E+02 -0.12851540118E+03  0.16376148019E+03  0.00000000000E+00 0. -1.
         21    1    1    2  504  501 -0.57269525800E+02  0.65009389680E+02 -0.11568815033E+03  0.14453292863E+03  0.00000000000E+00 0. -1.
         21    1    1    2  505  504 -0.50865274918E+01 -0.47170477697E+02  0.14677701117E+04  0.14685366960E+04  0.00000000000E+00 0.  1.
          2    1    1    2  501    0 -0.30212375894E+02 -0.59464624828E+02 -0.17653637358E+04  0.17666233184E+04  0.00000000000E+00 0. -1.
<scales pt_clust_3="14000.00000" pt_clust_4="75.15163" pt_clust_5="47.44393" pt_clust_6="67.55529"></scales>
<clustering>
<clus scale="   47.444">  1  5  2 -1</clus>
<clus scale="   67.555">  2  6  1 -1</clus>
<clus scale="   75.152">  1  4  2 -1</clus>
<clus scale="   47.444">  1  3  2 -1</clus>
</clustering>
</event>
<event>
 6    0  0.1622933E+002  0.1176928E+03  0.7546771E-02  0.1246952E+00
         -1   -1    0    0    0  501 -0.00000000000E+00  0.00000000000E+00  0.34513569399E+03  0.34513569399E+03  0.00000000000E+00 0.  1.
         21   -1    0    0  504  502  0.00000000000E+00 -0.00000000000E+00 -0.87169556397E+03  0.87169556397E+03  0.00000000000E+00 0. -1.
         21    1    1    2  503  501 -0.57325124006E+02  0.25244598035E+02  0.96726886404E+02  0.11523693039E+03  0.00000000000E+00 0.  1.
         21    1    1    2  504  503  0.61583832927E+02  0.81813867240E+02 -0.84358284845E+03  0.84977532298E+03  0.00000000000E+00 0. -1.
         21    1    1    2  505  502 -0.30965573293E+02 -0.66671555601E+02  0.12882134881E+03  0.14832027159E+03  0.00000000000E+00 0.  1.
         -1    1    1    2    0  505  0.26706864373E+02 -0.40386909673E+02  0.91474743262E+02  0.10349873300E+03  0.00000000000E+00 0.  1.
<scales pt_clust_3="62.63753" pt_clust_4="102.21939" pt_clust_5="47.34189" pt_clust_6="47.34189"></scales>
<clustering>
<clus scale="   47.342">  5  6 -1 -1</clus>
<clus scale="   62.638">  1  3  2 -1</clus>
<clus scale="  102.219">  2  4  1 -1</clus>
<clus scale="  102.219">  2  3  1 -1</clus>
</clustering>
</event>
<event>
 6    0  0.1622933E+002  0.1013648E+03  0.7546771E-02  0.1277452E+00
         21   -1    0    0  504  502  0.00000000000E+00  0.00000000000E+00  0.48144744933E+03  0.48144744933E+03  0.00000000000E+00 0.  1.
         -2   -1    0    0    0  501 -0.00000000000E+00 -0.00000000000E+00 -0.16098524775E+03  0.16098524775E+03  0.00000000000E+00 0. -1.
         21    1    1    2  503  501  0.76191615689E+02 -0.27867356604E+02 -0.18116008309E+02  0.83126058625E+02  0.00000000000E+00 0.  1.
         21    1    1    2  504  503  0.34218379115E+02  0.71009413731E+02  0.40811220899E+03  0.41565467570E+03  0.00000000000E+00 0.  1.
         21    1    1    2  505  502 -0.51981029974E+02 -0.82063116068E+01 -0.10759024042E+02  0.53713384046E+02  0.00000000000E+00 0. -1.
         -2    1    1    2    0  505 -0.58428964831E+02 -0.34935745520E+02 -0.58774975058E+02  0.89938578704E+02  0.00000000000E+00 0. -1.
<scales pt_clust_3="92.33375" pt_clust_4="78.82407" pt_clust_5="36.77296" pt_clust_6="36.77296"></scales>
<clustering>
<clus scale="   36.773">  5  6 -1 -1</clus>
<clus scale="   78.824">  1  4  2 -1</clus>
<clus scale="   92.334">  2  3  1 -1</clus>
<clus scale="   78.824">  1  3  2 -1</clus>
</clustering>
</event>
<event>
 6    0  0.1622933E+002  0.1915847E+03  0.7546771E-02  0.1157040E+00
         21   -1    0    0  501  502  0.00000000000E+00  0.00000000000E+00  0.51186266476E+02  0.51186266476E+02  0.00000000000E+00 0. -1.
          2   -1    0    0  504    0 -0.00000000000E+00 -0.00000000000E+00 -0.19749109581E+04  0.19749109581E+04  0.00000000000E+00 0. -1.
         21    1    1    2  503  502 -0.99678502657E+02  0.11517339697E+03 -0.17993107097E+03  0.23574542532E+03  0.00000000000E+00 0. -1.
         21    1    1    2  504  505 -0.70094742025E+02 -0.64402588961E+02 -0.38609365681E+03  0.39765472228E+03  0.00000000000E+00 0. -1.
         21    1    1    2  505  503 -0.20578393819E+02 -0.10330411311E+03 -0.33725523350E+03  0.35332181167E+03  0.00000000000E+00 0. -1.
          2    1    1    2  501    0  0.19035163850E+03  0.52533305093E+02 -0.10204447303E+04  0.10393752653E+04  0.00000000000E+00 0. -1.
<scales pt_clust_3="152.31781" pt_clust_4="62.94970" pt_clust_5="62.94970" pt_clust_6="179.77683"></scales>
<clustering>
<clus scale="   62.950">  4  5 -1 -1</clus>
<clus scale="  152.318">  1  3  2 -1</clus>
<clus scale="  179.777">  2  6  1 -1</clus>
<clus scale="  152.318">  1  3  2 -1</clus>
</clustering>
</event>
<event>
 6    0  0.1622933E+002  0.1032051E+03  0.7546771E-02  0.1273697E+00
         -4   -1    0    0    0  501 -0.00000000000E+00  0.00000000000E+00  0.70768761127E+03  0.70768761127E+03  0.00000000000E+00 0. -1.
         21   -1    0    0  503  502  0.00000000000E+00 -0.00000000000E+00 -0.26505820627E+03  0.26505820627E+03  0.00000000000E+00 0. -1.
         21    1    1    2  503  501  0.23077089118E+02 -0.76764531085E+02  0.71274196999E+02  0.10726302454E+03  0.00000000000E+00 0. -1.
         21    1    1    2  504  502 -0.63963958532E+02 -0.68306055338E+01 -0.20053462690E+03  0.21059957680E+03  0.00000000000E+00 0. -1.
         21    1    1    2  505  504 -0.54709870147E+01  0.13480774792E+03  0.77302416605E+02  0.15549509385E+03  0.00000000000E+00 0. -1.
         -4    1    1    2    0  505  0.46357856429E+02 -0.51212611299E+02  0.49458741830E+03  0.49938812235E+03  0.00000000000E+00 0. -1.
<scales pt_clust_3="103.20513" pt_clust_4="64.32764" pt_clust_5="14000.00000" pt_clust_6="67.58302"></scales>
<clustering>
<clus scale="   64.328">  2  4  1 -1</clus>
<clus scale="   67.583">  1  6  2 -1</clus>
<clus scale="  103.205">  2  3  1 -1</clus>
<clus scale="   64.328">  2  3  1 -1</clus>
</clustering>
</event>
<event>
 6    0  0.1622933E+002  0.9334467E+02  0.7546771E-02  0.1294948E+00
          2   -1    0    0  505    0 -0.00000000000E+00  0.00000000000E+00  0.10447277279E+04  0.10447277279E+04  0.00000000000E+00 0. -1.
         21   -1    0    0  504  502  0.00000000000E+00 -0.00000000000E+00 -0.90853306016E+02  0.90853306016E+02  0.00000000000E+00 0. -1.
         21    1    1    2  503  502  0.92417586165E+01 -0.56358729836E+02  0.52797575978E+03  0.53105566511E+03  0.00000000000E+00 0. -1.
         21    1    1    2  504  501  0.63547794297E+02  0.68542851850E+02 -0.43860419298E+02  0.10324815292E+03  0.00000000000E+00 0. -1.
         21    1    1    2  505  503  0.49677172687E+02 -0.43951456551E+01  0.10110906511E+03  0.11273944225E+03  0.00000000000E+00 0. -1.
          2    1    1    2  501    0 -0.12246672560E+03 -0.77889763584E+01  0.36865001632E+03  0.38853777367E+03  0.00000000000E+00 0. -1.
<scales pt_clust_3="69.66220" pt_clust_4="14000.00000" pt_clust_5="49.87122" pt_clust_6="93.34467"></scales>
<clustering>
<clus scale="   49.871">  1  5  2 -1</clus>
<clus scale="   69.662">  1  3  2 -1</clus>
<clus scale="   93.345">  1  6  2 -1</clus>
<clus scale="   93.345">  2  3  1 -1</clus>
</clustering>
</event>
<event>
 6    0  0.1622933E+002  0.1288535E+03  0.7546771E-02  0.1229167E+00
          2   -1    0    0  503    0 -0.00000000000E+00  0.00000000000E+00  0.74539988315E+03  0.74539988315E+03  0.00000000000E+00 0.  1.
         21   -1    0    0  505  502  0.00000000000E+00 -0.00000000000E+00 -0.12598255102E+03  0.12598255102E+03  0.00000000000E+00 0.  1.
         21    1    1    2  503  504  0.74700979666E+02  0.26065669175E+02  0.77280545182E+02  0.11059809282E+03  0.00000000000E+00 0.  1.
         21    1    1    2  504  502 -0.12421104277E+03  0.17290617624E+02 -0.55386505826E+02  0.13709490738E+03  0.00000000000E+00 0.  1.
         21    1    1    2  505  501 -0.28742669391E+01  0.41664404288E+02  0.41885023968E+02  0.59148450765E+02  0.00000000000E+00 0.  1.
          2    1    1    2  501    0  0.52384330038E+02 -0.85020691088E+02  0.55563826881E+03  0.56454098320E+03  0.00000000000E+00 0.  1.
<scales pt_clust_3="80.88373" pt_clust_4="14000.00000" pt_clust_5="41.76343" pt_clust_6="128.85351"></scales>
<clustering>
<clus scale="   41.763">  2  5  1 -1</clus>
<clus scale="   80.884">  1  3  2 -1</clus>
<clus scale="  128.854">  1  6  2 -1</clus>
<clus scale="   41.763">  2  3  1 -1</clus>
</clustering>
</event>
<event>
 6    0  0.1622933E+002  0.7497478E+02  0.7546771E-02  0.1343949E+00
         -3   -1    0    0    0  501 -0.00000000000E+00  0.00000000000E+00  0.83733008967E+02  0.83733008967E+02  0.00000000000E+00 0. -1.
         21   -1    0    0  503  502  0.00000000000E+00 -0.00000000000E+00 -0.22385253553E+04  0.22385253553E+04  0.00000000000E+00 0.  1.
         21    1    1    2  503  501  0.22490234189E+02  0.24031672478E+02 -0.70863032032E+01  0.33668198779E+02  0.00000000000E+00 0.  1.
         21    1    1    2  504  505 -0.61894459430E+02 -0.88585376722E+02 -0.37172329302E+02  0.11428068578E+03  0.00000000000E+00 0.  1.
         21    1    1    2  505  502  0.63209493531E+02  0.36711571516E+01 -0.21079361365E+04  0.21088868326E+04  0.00000000000E+00 0.  1.
         -3    1    1    2    0  504 -0.23805268290E+02  0.60882547093E+02 -0.25975773475E+01  0.65422647050E+02  0.00000000000E+00 0. -1.
<scales pt_clust_3="32.91401" pt_clust_4="74.97478" pt_clust_5="63.47711" pt_clust_6="14000.00000"></scales>
<clustering>
<clus scale="   32.914">  1  3  2 -1</clus>
<clus scale="   63.477">  2  5  1 -1</clus>
<clus scale="   74.975">  2  4  1 -1</clus>
<clus scale="   63.477">  2  3  1 -1</clus>
</clustering>
</event>
<event>
 6    0  0.1622933E+002  0.7069269E+02  0.7546771E-02  0.1357753E+00
         21   -1    0    0  505  502  0.00000000000E+00  0.00000000000E+00  0.14393869273E+03  0.14393869273E+03  0.00000000000E+00 0. -1.
          1   -1    0    0  503    0 -0.00000000000E+00 -0.00000000000E+00 -0.18414332935E+03  0.18414332935E+03  0.00000000000E+00 0. -1.
         21    1    1    2  503  504  0.68928499738E+02  0.22460686789E+02 -0.76229832881E+02  0.10519794650E+03  0.00000000000E+00 0. -1.
         21    1    1    2  504  502  0.90180932935E+00 -0.82864969330E+02  0.13826786865E+02  0.84015453561E+02  0.00000000000E+00 0. -1.
         21    1    1    2  505  501 -0.22721798950E+00  0.59276350341E+02  0.33890887682E+02  0.68281253692E+02  0.00000000000E+00 0. -1.
          1    1    1    2  501    0 -0.69603091078E+02  0.11279321995E+01 -0.11692478282E+02  0.70587368325E+02  0.00000000000E+00 0. -1.
<scales pt_clust_3="14000.00000" pt_clust_4="51.64005" pt_clust_5="59.27679" pt_clust_6="70.69269"></scales>
<clustering>
<clus scale="   59.277">  1  5  2 -1</clus>
<clus scale="   51.640">  1  4  2 -1</clus>
<clus scale="   70.693">  1  6  2 -1</clus>
<clus scale="   59.277">  1  3  2 -1</clus>
</clustering>
</event>
<event>
 6    0  0.1622933E+002  0.1240271E+03  0.7546771E-02  0.1236598E+00
          1   -1    0    0  504    0 -0.00000000000E+00  0.00000000000E+00  0.93473026381E+03  0.93473026381E+03  0.00000000000E+00 0. -1.
         21   -1    0    0  503  502  0.00000000000E+00 -0.00000000000E+00 -0.15490695663E+03  0.15490695663E+03  0.00000000000E+00 0. -1.
         21    1    1    2  503  505  0.98034275906E+02 -0.31820751215E+02  0.10923031601E+03  0.15018169461E+03  0.00000000000E+00 0. -1.
         21    1    1    2  504  502 -0.72074825415E+00 -0.39011141704E+02 -0.12637716635E+03  0.13226328602E+03  0.00000000000E+00 0. -1.
         21    1    1    2  505  501 -0.52715091196E+02  0.29518777517E+02  0.26720080837E+03  0.27394618278E+03  0.00000000000E+00 0. -1.
          1    1    1    2  501    0 -0.44598436456E+02  0.41313115402E+02  0.52976934915E+03  0.53324605703E+03  0.00000000000E+00 0. -1.
<scales pt_clust_3="116.06858" pt_clust_4="39.01780" pt_clust_5="43.37973" pt_clust_6="43.37973"></scales>
<clustering>
<clus scale="   39.018">  2  4  1 -1</clus>
<clus scale="   43.380">  5  6 -1 -1</clus>
<clus scale="  116.069">  2  3  1 -1</clus>
<clus scale="   39.018">  2  3  1 -1</clus>
</clustering>
</event>
<event>
 6    0  0.1622933E+002  0.1197587E+03  0.7546771E-02  0.1243496E+00
          2   -1    0    0  503    0 -0.00000000000E+00  0.00000000000E+00  0.30850133390E+04  0.30850133390E+04  0.00000000000E+00 0. -1.
         21   -1    0    0  501  502  0.00000000000E+00 -0.00000000000E+00 -0.53826376405E+02  0.53826376405E+02  0.00000000000E+00 0. -1.
         21    1    1    2  503  505  0.16099409083E+02  0.80158144171E+02  0.97764754269E+03  0.98106026154E+03  0.00000000000E+00 0. -1.
         21    1    1    2  504  502 -0.34401403750E+02 -0.50682053315E+00 -0.23350564190E+02  0.41580792381E+02  0.00000000000E+00 0. -1.
         21    1    1    2  505  504 -0.92702494790E+02  0.61491210445E+01  0.10861299540E+03  0.14292776847E+03  0.00000000000E+00 0. -1.
          2    1    1    2  501    0  0.11100448946E+03 -0.85800444683E+02  0.19682769887E+04  0.19732708930E+04  0.00000000000E+00 0. -1.
<scales pt_clust_3="81.22251" pt_clust_4="34.40514" pt_clust_5="14000.00000" pt_clust_6="119.75869"></scales>
<clustering>
<clus scale="   34.405">  2  4  1 -1</clus>
<clus scale="   81.223">  1  3  2 -1</clus>
<clus scale="  119.759">  1  6  2 -1</clus>
<clus scale="   34.405">  2  3  1 -1</clus>
</clustering>
</event>
<event>
 6    0  0.1622933E+002  0.1236503E+03  0.7546771E-02  0.1237194E+00
          3   -1    0    0  504    0 -0.00000000000E+00  0.00000000000E+00  0.88623067828E+02  0.88623067828E+02  0.00000000000E+00 0. -1.
         21   -1    0    0  505  502  0.00000000000E+00 -0.00000000000E+00 -0.10488207122E+04  0.10488207122E+04  0.00000000000E+00 0. -1.
         21    1    1    2  503  502 -0.78442804814E+01  0.58366943156E+02 -0.14096446817E+03  0.15277177120E+03  0.00000000000E+00 0. -1.
         21    1    1    2  504  503  0.35790498065E+02  0.26713312118E+02 -0.49480757504E+02  0.66655128529E+02  0.00000000000E+00 0.  1.
         21    1    1    2  505  501  0.56780499546E+02  0.58265759701E+02 -0.74528868626E+03  0.74971604608E+03  0.00000000000E+00 0. -1.
          3    1    1    2  501    0 -0.84726717129E+02 -0.14334601497E+03 -0.24463732475E+02  0.16830083426E+03  0.00000000000E+00 0. -1.
<scales pt_clust_3="60.56141" pt_clust_4="44.66051" pt_clust_5="123.65032" pt_clust_6="14000.00000"></scales>
<clustering>
<clus scale="   44.661">  1  4  2 -1</clus>
<clus scale="   60.561">  2  3  1 -1</clus>
<clus scale="  123.650">  2  5  1 -1</clus>
<clus scale="   60.561">  2  3  1 -1</clus>
</clustering>
</event>
<event>
 6    0  0.1622933E+002  0.1548554E+03  0.7546771E-02  0.1194631E+00
         21   -1    0    0  501  502  0.00000000000E+00  0.00000000000E+00  0.90390276956E+02  0.90390276956E+02  0.00000000000E+00 0. -1.
          1   -1    0    0  504    0 -0.00000000000E+00 -0.00000000000E+00 -0.23443502886E+04  0.23443502886E+04  0.00000000000E+00 0. -1.
         21    1    1    2  503  505 -0.55627755572E+02  0.19009624760E+03 -0.11703393260E+04  0.11869815367E+04  0.00000000000E+00 0. -1.
         21    1    1    2  504  503 -0.67642846320E+01 -0.34037958762E+02 -0.46250422895E+03  0.46380437684E+03  0.00000000000E+00 0. -1.
         21    1    1    2  505  502 -0.89475153081E+02 -0.12469494276E+03 -0.10365878565E+02  0.15382484587E+03  0.00000000000E+00 0. -1.
          1    1    1    2  501    0  0.15186719328E+03 -0.31363346084E+02 -0.61075057818E+03  0.63012980616E+03  0.00000000000E+00 0. -1.
<scales pt_clust_3="151.50176" pt_clust_4="34.70358" pt_clust_5="154.85541" pt_clust_6="14000.00000"></scales>
<clustering>
<clus scale="   34.704">  2  4  1 -1</clus>
<clus scale="  154.855">  1  5  2 -1</clus>
<clus scale="  151.502">  2  3  1 -1</clus>
<clus scale="  154.855">  1  3  2 -1</clus>
</clustering>
</event>
<event>
 6    0  0.1622933E+002  0.1370309E+03  0.7546771E-02  0.1217381E+00
         21   -1    0    0  504  502  0.00000000000E+00  0.00000000000E+00  0.28955328228E+03  0.28955328228E+03  0.00000000000E+00 0.  1.
         -1   -1    0    0    0  501 -0.00000000000E+00 -0.00000000000E+00 -0.12359533563E+03  0.12359533563E+03  0.00000000000E+00 0. -1.
         21    1    1    2  503  502 -0.19842588287E+02 -0.27376330044E+02  0.13052629849E+03  0.13483436637E+03  0.00000000000E+00 0.  1.
         21    1    1    2  504  501 -0.51942702339E+01 -0.10734368854E+03  0.68025599061E+02  0.12718934720E+03  0.00000000000E+00 0.  1.
         21    1    1    2  505  503  0.13780944614E+02  0.53801028298E+02  0.13726603838E+02  0.57209131555E+02  0.00000000000E+00 0.  1.
         -1    1    1    2    0  505  0.11255913907E+02  0.80918990289E+02 -0.46320554732E+02  0.93915772786E+02  0.00000000000E+00 0. -1.
<scales pt_clust_3="33.81112" pt_clust_4="125.60818" pt_clust_5="43.41605" pt_clust_6="43.41605"></scales>
<clustering>
<clus scale="   33.811">  1  3  2 -1</clus>
<clus scale="   43.416">  5  6 -1 -1</clus>
<clus scale="  125.608">  1  4  2 -1</clus>
<clus scale="   33.811">  1  3  2 -1</clus>
</clustering>
</event>
<event>
 6    0  0.1622933E+002  0.1980910E+03  0.7546771E-02  0.1151360E+00
         21   -1    0    0  504  502  0.00000000000E+00  0.00000000000E+00  0.16599725130E+03  0.16599725130E+03  0.00000000000E+00 0. -1.
          2   -1    0    0  503    0 -0.00000000000E+00 -0.00000000000E+00 -0.16047468427E+04  0.16047468427E+04  0.00000000000E+00 0. -1.
         21    1    1    2  503  502  0.32360400862E+02 -0.15609508608E+02 -0.39650409930E+03  0.39812856348E+03  0.00000000000E+00 0.  1.
         21    1    1    2  504  505 -0.38177094174E+02 -0.78854104402E+01  0.11274885321E+03  0.11929783786E+03  0.00000000000E+00 0. -1.
         21    1    1    2  505  501 -0.27030098933E+02  0.20116424816E+03 -0.21327166374E+03  0.29441889127E+03  0.00000000000E+00 0. -1.
          2    1    1    2  501    0  0.32846792245E+02 -0.17766932911E+03 -0.94172268155E+03  0.95889880134E+03  0.00000000000E+00 0. -1.
<scales pt_clust_3="35.92843" pt_clust_4="38.90561" pt_clust_5="14000.00000" pt_clust_6="198.09099"></scales>
<clustering>
<clus scale="   35.928">  2  3  1 -1</clus>
<clus scale="   38.906">  1  4  2 -1</clus>
<clus scale="  198.091">  2  6  1 -1</clus>
<clus scale="   38.906">  1  3  2 -1</clus>
</clustering>
</event>
<event>
 6    0  0.1622933E+002  0.9353181E+02  0.7546771E-02  0.1294517E+00
          1   -1    0    0  504    0 -0.00000000000E+00  0.00000000000E+00  0.79492420996E+03  0.79492420996E+03  0.00000000000E+00 0. -1.
         21   -1    0    0  503  502  0.00000000000E+00 -0.00000000000E+00 -0.10636038458E+03  0.10636038458E+03  0.00000000000E+00 0.  1.
         21    1    1    2  503  501  0.68804382328E+02  0.73439214422E+02 -0.63860939493E+02  0.11918716724E+03  0.00000000000E+00 0.  1.
         21    1    1    2  504  505 -0.37417599317E+02  0.27108673736E+02  0.55432076420E+02  0.72164201836E+02  0.00000000000E+00 0. -1.
         21    1    1    2  505  502 -0.98442925056E+01 -0.59417798622E+02  0.16038449661E+03  0.17132008534E+03  0.00000000000E+00 0.  1.
          1    1    1    2  501    0 -0.21542490505E+02 -0.41130089536E+02  0.53660819184E+03  0.53861314012E+03  0.00000000000E+00 0. -1.
<scales pt_clust_3="14000.00000" pt_clust_4="46.20559" pt_clust_5="93.53181" pt_clust_6="53.43988"></scales>
<clustering>
<clus scale="   46.206">  1  4  2 -1</clus>
<clus scale="   53.440">  1  6  2 -1</clus>
<clus scale="   93.532">  1  5  2 -1</clus>
<clus scale="   93.532">  2  3  1 -1</clus>
</clustering>
</event>
<event>
 6    0  0.1622933E+002  0.1330414E+03  0.7546771E-02  0.1223011E+00
         21   -1    0    0  505  502  0.00000000000E+00  0.00000000000E+00  0.42897281337E+03  0.42897281337E+03  0.00000000000E+00 0. -1.
          2   -1    0    0  503    0 -0.00000000000E+00 -0.00000000000E+00 -0.10231230727E+04  0.10231230727E+04  0.00000000000E+00 0.  1.
         21    1    1    2  503  502  0.52744346310E+02  0.39309289745E+02  0.44692939012E+01  0.65933003237E+02  0.00000000000E+00 0.  1.
         21    1    1    2  504  501 -0.97280915898E+02 -0.47718574765E+00 -0.11610688612E+03  0.15147479430E+03  0.00000000000E+00 0.  1.
         21    1    1    2  505  504 -0.81087750295E+02  0.47016404865E+02  0.36335206393E+03  0.37524723575E+03  0.00000000000E+00 0. -1.
          2    1    1    2  501    0  0.12562431988E+03 -0.85848508863E+02 -0.84586473106E+03  0.85944085281E+03  0.00000000000E+00 0.  1.
<scales pt_clust_3="65.78135" pt_clust_4="133.04143" pt_clust_5="89.64496" pt_clust_6="14000.00000"></scales>
<clustering>
<clus scale="   65.781">  1  3  2 -1</clus>
<clus scale="   89.645">  1  5  2 -1</clus>
<clus scale="  133.041">  1  4  2 -1</clus>
<clus scale="   65.781">  1  3  2 -1</clus>
</clustering>
</event>
<event>
 6    0  0.1622933E+002  0.3131562E+03  0.7546771E-02  0.1078843E+00
          2   -1    0    0  504    0 -0.00000000000E+00  0.00000000000E+00  0.31000560052E+03  0.31000560052E+03  0.00000000000E+00 0.  1.
         21   -1    0    0  505  502  0.00000000000E+00 -0.00000000000E+00 -0.49928115173E+03  0.49928115173E+03  0.00000000000E+00 0.  1.
         21    1    1    2  503  502 -0.23645176019E+03 -0.18472120248E+03 -0.26373075247E+03  0.39948124780E+03  0.00000000000E+00 0.  1.
         21    1    1    2  504  503  0.45908784586E+02 -0.50715144097E+02  0.62984853331E+02  0.92987816901E+02  0.00000000000E+00 0. -1.
         21    1    1    2  505  501  0.37573220332E+02  0.11606041440E+02 -0.19592923970E+02  0.43935518135E+02  0.00000000000E+00 0. -1.
          2    1    1    2  501    0  0.15296975527E+03  0.22383030514E+03  0.31063271905E+02  0.27288216942E+03  0.00000000000E+00 0.  1.
<scales pt_clust_3="299.26877" pt_clust_4="68.40791" pt_clust_5="35.12359" pt_clust_6="35.12359"></scales>
<clustering>
<clus scale="   35.124">  5  6 -1 -1</clus>
<clus scale="   68.408">  1  4  2 -1</clus>
<clus scale="  299.269">  2  3  1 -1</clus>
<clus scale="  299.269">  2  3  1 -1</clus>
</clustering>
</event>
<event>
 6    0  0.1622933E+002  0.1593748E+03  0.7546771E-02  0.1189404E+00
          2   -1    0    0  503    0 -0.00000000000E+00  0.00000000000E+00  0.11102835875E+04  0.11102835875E+04  0.00000000000E+00 0. -1.
         21   -1    0    0  504  502  0.00000000000E+00 -0.00000000000E+00 -0.57702206409E+02  0.57702206409E+02  0.00000000000E+00 0.  1.
         21    1    1    2  503  505  0.17153636506E+02  0.68583902227E+02  0.33102307662E+03  0.33848822158E+03  0.00000000000E+00 0.  1.
         21    1    1    2  504  501 -0.22012033272E+02 -0.56783234964E+02  0.14028150416E+03  0.15293059142E+03  0.00000000000E+00 0.  1.
         21    1    1    2  505  502 -0.29846020774E+02  0.13163753660E+03  0.86659141031E+02  0.16040272044E+03  0.00000000000E+00 0.  1.
          2    1    1    2  501    0  0.34704417540E+02 -0.14343820387E+03  0.49461765929E+03  0.51616426049E+03  0.00000000000E+00 0. -1.
<scales pt_clust_3="70.69653" pt_clust_4="42.32614" pt_clust_5="145.11746" pt_clust_6="42.32614"></scales>
<clustering>
<clus scale="   42.326">  4  6 -1 -1</clus>
<clus scale="   70.697">  1  3  2 -1</clus>
<clus scale="  145.117">  2  5  1 -1</clus>
<clus scale="  145.117">  2  3  1 -1</clus>
</clustering>
</event>
<event>
 6    0  0.1622933E+002  0.1162703E+03  0.7546771E-02  0.1249380E+00
         21   -1    0    0  504  502  0.00000000000E+00  0.00000000000E+00  0.82726094235E+02  0.82726094235E+02  0.00000000000E+00 0.  1.
          2   -1    0    0  503    0 -0.00000000000E+00 -0.00000000000E+00 -0.18602341620E+04  0.18602341620E+04  0.00000000000E+00 0. -1.
         21    1    1    2  503  502 -0.38539865404E+02  0.10708348214E+02 -0.18815362463E+03  0.19235845811E+03  0.00000000000E+00 0.  1.
         21    1    1    2  504  505 -0.57174175130E+02  0.85205759974E+02  0.43363802880E+02  0.11139715990E+03  0.00000000000E+00 0.  1.
         21    1    1    2  505  501  0.82224883940E+02 -0.58175243469E+02 -0.95355825416E+03  0.95886319909E+03  0.00000000000E+00 0.  1.
          2    1    1    2  501    0  0.13489156594E+02 -0.37738864720E+02 -0.67915999188E+03  0.68034143916E+03  0.00000000000E+00 0. -1.
<scales pt_clust_3="39.99987" pt_clust_4="103.23038" pt_clust_5="33.74726" pt_clust_6="33.74726"></scales>
<clustering>
<clus scale="   33.747">  5  6 -1 -1</clus>
<clus scale="   40.000">  2  3  1 -1</clus>
<clus scale="  103.230">  1  4  2 -1</clus>
<clus scale="  103.230">  1  3  2 -1</clus>
</clustering>
</event>
<event>
 6    0  0.1622933E+002  0.9607852E+02  0.7546771E-02  0.1288765E+00
         21   -1    0    0  505  502  0.00000000000E+00  0.00000000000E+00  0.19609448555E+03  0.19609448555E+03  0.00000000000E+00 0. -1.
          2   -1    0    0  504    0 -0.00000000000E+00 -0.00000000000E+00 -0.22624054172E+04  0.22624054172E+04  0.00000000000E+00 0. -1.
         21    1    1    2  503  502  0.33449247205E+02 -0.17280472750E+02  0.18565885049E+03  0.18943778832E+03  0.00000000000E+00 0. -1.
         21    1    1    2  504  503  0.16237097039E+02 -0.60496513045E+02 -0.22504313796E+03  0.23359769981E+03  0.00000000000E+00 0.  1.
         21    1    1    2  505  501  0.52477424021E+02  0.15377894746E+02 -0.34748397668E+03  0.35176053464E+03  0.00000000000E+00 0. -1.
          2    1    1    2  501    0 -0.10216376827E+03  0.62399091048E+02 -0.16794426675E+04  0.16837038800E+04  0.00000000000E+00 0. -1.
<scales pt_clust_3="37.64926" pt_clust_4="14000.00000" pt_clust_5="61.84252" pt_clust_6="96.07852"></scales>
<clustering>
<clus scale="   37.649">  1  3  2 -1</clus>
<clus scale="   61.843">  1  5  2 -1</clus>
<clus scale="   96.079">  2  6  1 -1</clus>
<clus scale="   37.649">  1  3  2 -1</clus>
</clustering>
</event>
<event>
 6    0  0.1622933E+002  0.4595332E+03  0.7546771E-02  0.1024917E+00
         21   -1    0    0  504  502  0.00000000000E+00  0.00000000000E+00  0.11426447233E+04  0.11426447233E+04  0.00000000000E+00 0.  1.
          1   -1    0    0  503    0 -0.00000000000E+00 -0.00000000000E+00 -0.53572959350E+03  0.53572959350E+03  0.00000000000E+00 0.  1.
         21    1    1    2  503  502 -0.21041637588E+03  0.33990855251E+03  0.99791310357E+03  0.10750085756E+04  0.00000000000E+00 0.  1.
         21    1    1    2  504  505  0.98559448279E+02 -0.55540824209E+02 -0.39900071846E+02  0.11996150938E+03  0.00000000000E+00 0.  1.
         21    1    1    2  505  501  0.95625361882E+02 -0.73060669242E+02 -0.12546800254E+03  0.17385134710E+03  0.00000000000E+00 0.  1.
          1    1    1    2  501    0  0.16231565717E+02 -0.21130705906E+03 -0.22562989940E+03  0.30955288472E+03  0.00000000000E+00 0.  1.
<scales pt_clust_3="399.76603" pt_clust_4="66.70627" pt_clust_5="193.96165" pt_clust_6="193.96165"></scales>
<clustering>
<clus scale="   66.706">  4  5 -1 -1</clus>
<clus scale="  193.962">  4  6 -1 -1</clus>
<clus scale="  399.766">  1  3  2 -1</clus>
<clus scale="  399.766">  1  3  2 -1</clus>
</clustering>
</event>
<event>
 6    0  0.1622933E+002  0.1242409E+03  0.7546771E-02  0.1236260E+00
         21   -1    0    0  504  502  0.00000000000E+00  0.00000000000E+00  0.72385412385E+02  0.72385412385E+02  0.00000000000E+00 0.  1.
          2   -1    0    0  503    0 -0.00000000000E+00 -0.00000000000E+00 -0.16020491039E+04  0.16020491039E+04  0.00000000000E+00 0. -1.
         21    1    1    2  503  505 -0.62554849398E+02  0.14964962611E+02 -0.67561187980E+03  0.67866668654E+03  0.00000000000E+00 0. -1.
         21    1    1    2  504  501 -0.24562850566E+02 -0.13093997409E+03 -0.10900154663E+02  0.13366908324E+03  0.00000000000E+00 0.  1.
         21    1    1    2  505  502 -0.93983378310E+01  0.66948267612E+02 -0.41517734256E+03  0.42064548621E+03  0.00000000000E+00 0. -1.
          2    1    1    2  501    0  0.96516037795E+02  0.49026743867E+02 -0.42797431451E+03  0.44145326032E+03  0.00000000000E+00 0. -1.
<scales pt_clust_3="64.31998" pt_clust_4="14000.00000" pt_clust_5="82.77488" pt_clust_6="124.24087"></scales>
<clustering>
<clus scale="   64.320">  2  3  1 -1</clus>
<clus scale="   82.775">  2  5  1 -1</clus>
<clus scale="  124.241">  2  6  1 -1</clus>
<clus scale="  124.241">  1  3  2 -1</clus>
</clustering>
</event>
<event>
 6    0  0.1622933E+002  0.8454370E+02  0.7546771E-02  0.1316630E+00
         21   -1    0    0  503  502  0.00000000000E+00  0.00000000000E+00  0.38585477385E+03  0.38585477385E+03  0.00000000000E+00 0. -1.
          2   -1    0    0  504    0 -0.00000000000E+00 -0.00000000000E+00 -0.78922713799E+03  0.78922713799E+03  0.00000000000E+00 0.  1.
         21    1    1    2  503  501  0.71320968952E+02 -0.16261971244E+02 -0.12843854489E+03  0.14780931004E+03  0.00000000000E+00 0. -1.
         21    1    1    2  504  505 -0.10225407097E+03  0.10107943771E+02 -0.11466902583E+03  0.15397094220E+03  0.00000000000E+00 0.  1.
         21    1    1    2  505  502 -0.32201707620E+02 -0.26801715739E+01  0.35381335800E+03  0.35528583646E+03  0.00000000000E+00 0. -1.
          2    1    1    2  501    0  0.63134809640E+02  0.88341990471E+01 -0.51407815142E+03  0.51801582314E+03  0.00000000000E+00 0.  1.
<scales pt_clust_3="84.54370" pt_clust_4="14000.00000" pt_clust_5="32.31305" pt_clust_6="61.72095"></scales>
<clustering>
<clus scale="   32.313">  1  5  2 -1</clus>
<clus scale="   61.721">  2  6  1 -1</clus>
<clus scale="   84.544">  1  3  2 -1</clus>
<clus scale="   32.313">  1  3  2 -1</clus>
</clustering>
</event>
<event>
 6    0  0.1622933E+002  0.8598973E+02  0.7546771E-02  0.1312864E+00
         21   -1    0    0  501  502  0.00000000000E+00  0.00000000000E+00  0.11367403398E+03  0.11367403398E+03  0.00000000000E+00 0.  1.
          4   -1    0    0  503    0 -0.00000000000E+00 -0.00000000000E+00 -0.40751671813E+03  0.40751671813E+03  0.00000000000E+00 0.  1.
         21    1    1    2  503  505  0.39618045587E+02 -0.29703293677E+02 -0.17039061202E+03  0.17743966822E+03  0.00000000000E+00 0.  1.
         21    1    1    2  504  502  0.37651930825E+02  0.16967728594E+02  0.53283452500E+02  0.67414375461E+02  0.00000000000E+00 0.  1.
         21    1    1    2  505  504 -0.12828176955E+03 -0.15533154719E+02 -0.53228960760E+02  0.13975268712E+03  0.00000000000E+00 0.  1.
          4    1    1    2  501    0  0.51011793137E+02  0.28268719802E+02 -0.12350656387E+03  0.13658402131E+03  0.00000000000E+00 0.  1.
<scales pt_clust_3="50.89096" pt_clust_4="41.29857" pt_clust_5="85.98973" pt_clust_6="14000.00000"></scales>
<clustering>
<clus scale="   41.299">  1  4  2 -1</clus>
<clus scale="   50.891">  2  3  1 -1</clus>
<clus scale="   85.990">  1  5  2 -1</clus>
<clus scale="   41.299">  1  3  2 -1</clus>
</clustering>
</event>
<event>
 6    0  0.2145459E+002  0.6148960E+02  0.7546771E-02  0.1391685E+00
          2   -1    0    0  503    0 -0.00000000000E+00  0.00000000000E+00  0.77063568474E+03  0.77063568474E+03  0.00000000000E+00 0. -1.
         21   -1    0    0  505  502  0.00000000000E+00 -0.00000000000E+00 -0.30388989911E+03  0.30388989911E+03  0.00000000000E+00 0. -1.
         21    1    1    2  503  502  0.15300560595E+02  0.47884636105E+02  0.32959024311E+02  0.60111087272E+02  0.00000000000E+00 0.  1.
         21    1    1    2  504  501 -0.56330376513E+02 -0.23348211687E+02  0.39607745025E+02  0.72711923184E+02  0.00000000000E+00 0.  1.
         21    1    1    2  505  504 -0.11452313120E+02  0.49126505358E+02 -0.26833900951E+03  0.27303917856E+03  0.00000000000E+00 0. -1.
          2    1    1    2  501    0  0.52482129038E+02 -0.73662929777E+02  0.66251802580E+03  0.66866339484E+03  0.00000000000E+00 0. -1.
<scales pt_clust_3="50.26973" pt_clust_4="61.48960" pt_clust_5="50.58387" pt_clust_6="14000.00000"></scales>
<clustering>
<clus scale="   50.270">  1  3  2 -1</clus>
<clus scale="   50.584">  2  5  1 -1</clus>
<clus scale="   61.490">  2  4  1 -1</clus>
<clus scale="   50.584">  2  3  1 -1</clus>
</clustering>
</event>
<event>
 6    0  0.1622933E+002  0.2448705E+03  0.7546771E-02  0.1116590E+00
         21   -1    0    0  503  502  0.00000000000E+00  0.00000000000E+00  0.47118374166E+02  0.47118374166E+02  0.00000000000E+00 0. -1.
          2   -1    0    0  504    0 -0.00000000000E+00 -0.00000000000E+00 -0.24856368073E+04  0.24856368073E+04  0.00000000000E+00 0. -1.
         21    1    1    2  503  501  0.74819223836E+02 -0.50118066367E+02 -0.21105946514E+03  0.22946859187E+03  0.00000000000E+00 0. -1.
         21    1    1    2  504  505 -0.32317128045E+02 -0.45071168738E+02 -0.51005845274E+03  0.51306474468E+03  0.00000000000E+00 0. -1.
         21    1    1    2  505  502 -0.19530479898E+03 -0.12890972480E+03 -0.77355771176E+03  0.80817894990E+03  0.00000000000E+00 0. -1.
          2    1    1    2  501    0  0.15280270319E+03  0.22409895990E+03 -0.94384280349E+03  0.98204289500E+03  0.00000000000E+00 0. -1.
<scales pt_clust_3="90.06961" pt_clust_4="55.45996" pt_clust_5="14000.00000" pt_clust_6="244.87046"></scales>
<clustering>
<clus scale="   55.460">  2  4  1 -1</clus>
<clus scale="   90.070">  1  3  2 -1</clus>
<clus scale="  244.870">  2  6  1 -1</clus>
<clus scale="   90.070">  1  3  2 -1</clus>
</clustering>
</event>
<event>
 6    0  0.1622933E+002  0.1264075E+03  0.7546771E-02  0.1232886E+00
         21   -1    0    0  505  502  0.00000000000E+00  0.00000000000E+00  0.58577616202E+03  0.58577616202E+03  0.00000000000E+00 0.  1.
         -3   -1    0    0    0  501 -0.00000000000E+00 -0.00000000000E+00 -0.90542639978E+03  0.90542639978E+03  0.00000000000E+00 0.  1.
         21    1    1    2  503  501  0.29070730801E+02 -0.10850459407E+02 -0.17395539902E+03  0.17670121875E+03  0.00000000000E+00 0.  1.
         21    1    1    2  504  503  0.14463702365E+03  0.55169860279E+02 -0.32925056407E+03  0.36382621681E+03  0.00000000000E+00 0.  1.
         21    1    1    2  505  504 -0.63107298091E+02  0.43370524424E+01  0.55576049465E+03  0.55934878967E+03  0.00000000000E+00 0.  1.
         -3    1    1    2    0  502 -0.11060045636E+03 -0.48656453314E+02 -0.37220476931E+03  0.39132633657E+03  0.00000000000E+00 0.  1.
<scales pt_clust_3="31.02966" pt_clust_4="126.40755" pt_clust_5="63.18306" pt_clust_6="14000.00000"></scales>
<clustering>
<clus scale="   31.030">  2  3  1 -1</clus>
<clus scale="   63.183">  1  5  2 -1</clus>
<clus scale="  126.408">  1  4  2 -1</clus>
<clus scale="   63.183">  1  3  2 -1</clus>
</clustering>
</event>
<event>
 6    0  0.1622933E+002  0.8482149E+02  0.7546771E-02  0.1315900E+00
         -3   -1    0    0    0  501 -0.00000000000E+00  0.00000000000E+00  0.25093321473E+03  0.25093321473E+03  0.00000000000E+00 0.  1.
         21   -1    0    0  505  502  0.00000000000E+00 -0.00000000000E+00 -0.18354698925E+03  0.18354698925E+03  0.00000000000E+00 0.  1.
         21    1    1    2  503  501 -0.37334123268E+02  0.34122119818E+02  0.52172108880E+02  0.72664191773E+02  0.00000000000E+00 0.  1.
         21    1    1    2  504  503 -0.57542682787E+02 -0.25692994593E+02  0.69320681567E+02  0.93683761701E+02  0.00000000000E+00 0.  1.
         21    1    1    2  505  504 -0.24285619137E+02  0.24151790136E+02 -0.12231279572E+03  0.12701779505E+03  0.00000000000E+00 0.  1.
         -3    1    1    2    0  502  0.11916242519E+03 -0.32580915361E+02  0.68206230748E+02  0.14111445545E+03  0.00000000000E+00 0.  1.
<scales pt_clust_3="56.53344" pt_clust_4="84.82149" pt_clust_5="34.25055" pt_clust_6="14000.00000"></scales>
<clustering>
<clus scale="   34.251">  2  5  1 -1</clus>
<clus scale="   56.533">  1  3  2 -1</clus>
<clus scale="   84.821">  1  4  2 -1</clus>
<clus scale="   34.251">  2  3  1 -1</clus>
</clustering>
</event>
<event>
 6    0  0.1622933E+002  0.1186849E+03  0.7546771E-02  0.1245282E+00
         21   -1    0    0  504  502  0.00000000000E+00  0.00000000000E+00  0.35974895105E+03  0.35974895105E+03  0.00000000000E+00 0. -1.
          1   -1    0    0  503    0 -0.00000000000E+00 -0.00000000000E+00 -0.13802963777E+03  0.13802963777E+03  0.00000000000E+00 0.  1.
         21    1    1    2  503  505 -0.36940662549E+02  0.49989670167E+02 -0.13578500645E+02  0.63623544013E+02  0.00000000000E+00 0.  1.
         21    1    1    2  504  501 -0.61745022976E+02 -0.81549505919E+02  0.10304001510E+03  0.14518958120E+03  0.00000000000E+00 0. -1.
         21    1    1    2  505  502 -0.43223356642E+02  0.19762622565E+01  0.13726104274E+03  0.14391927607E+03  0.00000000000E+00 0. -1.
          1    1    1    2  501    0  0.14190904217E+03  0.29583573495E+02 -0.50032439087E+01  0.14504618754E+03  0.00000000000E+00 0.  1.
<scales pt_clust_3="65.38465" pt_clust_4="14000.00000" pt_clust_5="43.26851" pt_clust_6="118.68487"></scales>
<clustering>
<clus scale="   43.269">  1  5  2 -1</clus>
<clus scale="   65.385">  2  3  1 -1</clus>
<clus scale="  118.685">  2  6  1 -1</clus>
<clus scale="   43.269">  1  3  2 -1</clus>
</clustering>
</event>
<event>
 6    0  0.1622933E+002  0.9610264E+02  0.7546771E-02  0.1288712E+00
         -3   -1    0    0    0  501 -0.00000000000E+00  0.00000000000E+00  0.41606310671E+02  0.41606310671E+02  0.00000000000E+00 0. -1.
         21   -1    0    0  505  502  0.00000000000E+00 -0.00000000000E+00 -0.15809533150E+04  0.15809533150E+04  0.00000000000E+00 0.  1.
         21    1    1    2  503  504  0.32973989740E+02  0.39652736093E+02 -0.49533904519E+02  0.71506861041E+02  0.00000000000E+00 0. -1.
         21    1    1    2  504  501 -0.47207939539E+02  0.46041437773E+01 -0.76126721060E+02  0.89694288306E+02  0.00000000000E+00 0. -1.
         21    1    1    2  505  503  0.43283746153E+02 -0.89598180130E+02 -0.14029190567E+04  0.14064434565E+04  0.00000000000E+00 0.  1.
         -3    1    1    2    0  502 -0.29049796355E+02  0.45341300259E+02 -0.10767321992E+02  0.54915019806E+02  0.00000000000E+00 0. -1.
<scales pt_clust_3="44.90582" pt_clust_4="47.43193" pt_clust_5="14000.00000" pt_clust_6="96.10264"></scales>
<clustering>
<clus scale="   47.432">  1  4  2 -1</clus>
<clus scale="   44.906">  1  3  2 -1</clus>
<clus scale="   96.103">  1  6  2 -1</clus>
<clus scale="   96.103">  2  3  1 -1</clus>
</clustering>
</event>
<event>
 6    0  0.1622933E+002  0.2583118E+03  0.7546771E-02  0.1108162E+00
         -4   -1    0    0    0  501 -0.00000000000E+00  0.00000000000E+00  0.21157930529E+04  0.21157930529E+04  0.00000000000E+00 0. -1.
         21   -1    0    0  505  502  0.00000000000E+00 -0.00000000000E+00 -0.79872151937E+02  0.79872151937E+02  0.00000000000E+00 0. -1.
         21    1    1    2  503  501  0.13983088036E+03 -0.19191434020E+03  0.27681931254E+03  0.36470909074E+03  0.00000000000E+00 0. -1.
         21    1    1    2  504  502 -0.65340715196E+02  0.10284817587E+03  0.90809112606E+03  0.91622958344E+03  0.00000000000E+00 0. -1.
         21    1    1    2  505  503 -0.30238375548E+02 -0.43561707865E+02  0.73581490768E+00  0.53033227051E+02  0.00000000000E+00 0. -1.
         -4    1    1    2    0  504 -0.44251789618E+02  0.13262787219E+03  0.85027464746E+03  0.86169330361E+03  0.00000000000E+00 0. -1.
<scales pt_clust_3="254.99973" pt_clust_4="38.49213" pt_clust_5="53.02812" pt_clust_6="38.49213"></scales>
<clustering>
<clus scale="   38.492">  4  6 -1 -1</clus>
<clus scale="   53.028">  2  5  1 -1</clus>
<clus scale="  255.000">  2  3  1 -1</clus>
<clus scale="   53.028">  2  3  1 -1</clus>
</clustering>
</event>
<event>
 6    0  0.1622933E+002  0.7774615E+02  0.7546771E-02  0.1335572E+00
         21   -1    0    0  503  502  0.00000000000E+00  0.00000000000E+00  0.67120451233E+03  0.67120451233E+03  0.00000000000E+00 0.  1.
          2   -1    0    0  504    0 -0.00000000000E+00 -0.00000000000E+00 -0.40485753073E+04  0.40485753073E+04  0.00000000000E+00 0. -1.
         21    1    1    2  503  501 -0.24383012485E+02  0.92300339990E+02 -0.11214476173E+04  0.11255037283E+04  0.00000000000E+00 0. -1.
         21    1    1    2  504  505  0.32308400112E+02  0.14422045360E+02 -0.71804079323E+03  0.71891196182E+03  0.00000000000E+00 0. -1.
         21    1    1    2  505  502  0.37513910786E+02 -0.29301698552E+02  0.66697928046E+03  0.66867573875E+03  0.00000000000E+00 0.  1.
          2    1    1    2  501    0 -0.45439298414E+02 -0.77420686798E+02 -0.22048616649E+04  0.22066883908E+04  0.00000000000E+00 0. -1.
<scales pt_clust_3="77.74615" pt_clust_4="35.38118" pt_clust_5="47.60552" pt_clust_6="14000.00000"></scales>
<clustering>
<clus scale="   35.381">  2  4  1 -1</clus>
<clus scale="   47.606">  1  5  2 -1</clus>
<clus scale="   77.746">  1  3  2 -1</clus>
<clus scale="   47.606">  1  3  2 -1</clus>
</clustering>
</event>
<event>
 6    0  0.1622933E+002  0.3361728E+03  0.7546771E-02  0.1068438E+00
         21   -1    0    0  503  502  0.00000000000E+00  0.00000000000E+00  0.12006588138E+04  0.12006588138E+04  0.00000000000E+00 0. -1.
          2   -1    0    0  505    0 -0.00000000000E+00 -0.00000000000E+00 -0.45370169045E+03  0.45370169045E+03  0.00000000000E+00 0.  1.
         21    1    1    2  503  501  0.65080888787E+02  0.14830730318E+03 -0.10389560070E+03  0.19241848691E+03  0.00000000000E+00 0. -1.
         21    1    1    2  504  502 -0.22548396744E+03 -0.23188680383E+03  0.96194904964E+03  0.10148696879E+04  0.00000000000E+00 0. -1.
         21    1    1    2  505  504  0.59523770650E+02 -0.15921244722E+03 -0.37738033476E+02  0.17411445027E+03  0.00000000000E+00 0.  1.
          2    1    1    2  501    0  0.10087930800E+03  0.24279194787E+03 -0.73358292173E+02  0.27295787910E+03  0.00000000000E+00 0.  1.
<scales pt_clust_3="53.54819" pt_clust_4="329.17680" pt_clust_5="169.97554" pt_clust_6="53.54819"></scales>
<clustering>
<clus scale="   53.548">  3  6 -1 -1</clus>
<clus scale="  169.976">  2  5  1 -1</clus>
<clus scale="  329.177">  1  4  2 -1</clus>
<clus scale="  329.177">  1  3  2 -1</clus>
</clustering>
</event>
<event>
 6    0  0.1622933E+002  0.9960935E+02  0.7546771E-02  0.1281120E+00
         21   -1    0    0  504  502  0.00000000000E+00  0.00000000000E+00  0.51753288287E+03  0.51753288287E+03  0.00000000000E+00 0. -1.
          2   -1    0    0  503    0 -0.00000000000E+00 -0.00000000000E+00 -0.36316574508E+03  0.36316574508E+03  0.00000000000E+00 0. -1.
         21    1    1    2  503  502  0.67785991136E+02 -0.86737716021E+02  0.96526261573E+00  0.11008770915E+03  0.00000000000E+00 0. -1.
         21    1    1    2  504  505  0.20566926615E+02 -0.37329265625E+02  0.37697823622E+03  0.37937984017E+03  0.00000000000E+00 0. -1.
         21    1    1    2  505  501 -0.63359096806E+02  0.28064821809E+02  0.59462106895E+02  0.91311289157E+02  0.00000000000E+00 0. -1.
          2    1    1    2  501    0 -0.24993820945E+02  0.96002159837E+02 -0.28303846794E+03  0.29991978947E+03  0.00000000000E+00 0. -1.
<scales pt_clust_3="14000.00000" pt_clust_4="42.62010" pt_clust_5="52.82261" pt_clust_6="99.60935"></scales>
<clustering>
<clus scale="   42.620">  1  4  2 -1</clus>
<clus scale="   52.823">  1  5  2 -1</clus>
<clus scale="   99.609">  2  6  1 -1</clus>
<clus scale="   42.620">  1  3  2 -1</clus>
</clustering>
</event>
<event>
 6    0  0.1622933E+002  0.1191108E+03  0.7546771E-02  0.1244571E+00
         -1   -1    0    0    0  501 -0.00000000000E+00  0.00000000000E+00  0.25128964447E+03  0.25128964447E+03  0.00000000000E+00 0. -1.
         21   -1    0    0  505  502  0.00000000000E+00 -0.00000000000E+00 -0.12396442053E+04  0.12396442053E+04  0.00000000000E+00 0. -1.
         21    1    1    2  503  501 -0.16152103669E+02 -0.60523811347E+02 -0.20361682168E+01  0.62675100111E+02  0.00000000000E+00 0. -1.
         21    1    1    2  504  503  0.88208676094E+02 -0.38538667954E+02  0.20173265783E+03  0.22352195575E+03  0.00000000000E+00 0. -1.
         21    1    1    2  505  504 -0.68289878595E+02  0.47777413622E+02 -0.10970516267E+04  0.11002129159E+04  0.00000000000E+00 0. -1.
         -1    1    1    2    0  502 -0.37666938301E+01  0.51285065679E+02 -0.90999423752E+02  0.10452387798E+03  0.00000000000E+00 0. -1.
<scales pt_clust_3="61.26736" pt_clust_4="14000.00000" pt_clust_5="119.11078" pt_clust_6="51.42320"></scales>
<clustering>
<clus scale="   51.423">  2  6  1 -1</clus>
<clus scale="   61.267">  1  3  2 -1</clus>
<clus scale="  119.111">  2  5  1 -1</clus>
<clus scale="   51.423">  2  3  1 -1</clus>
</clustering>
</event>
<event>
 6    0  0.1622933E+002  0.6631949E+02  0.7546771E-02  0.1373076E+00
          2   -1    0    0  505    0 -0.00000000000E+00  0.00000000000E+00  0.12434027083E+04  0.12434027083E+04  0.00000000000E+00 0.  1.
         21   -1    0    0  501  502  0.00000000000E+00 -0.00000000000E+00 -0.66607732495E+02  0.66607732495E+02  0.00000000000E+00 0.  1.
         21    1    1    2  503  502  0.33008269211E+02  0.57750186436E+02 -0.35384289482E+02  0.75343731072E+02  0.00000000000E+00 0.  1.
         21    1    1    2  504  503 -0.47489857514E+02 -0.46886109552E+02  0.17582253794E+03  0.18806158215E+03  0.00000000000E+00 0.  1.
         21    1    1    2  505  504  0.46324071775E+02 -0.66578118305E+02  0.52270720580E+03  0.52896255866E+03  0.00000000000E+00 0.  1.
          2    1    1    2  501    0 -0.31842483472E+02  0.55714041421E+02  0.51364952156E+03  0.51764256892E+03  0.00000000000E+00 0.  1.
<scales pt_clust_3="14000.00000" pt_clust_4="66.31949" pt_clust_5="35.16430" pt_clust_6="64.17163"></scales>
<clustering>
<clus scale="   64.172">  1  6  2 -1</clus>
<clus scale="   35.164">  1  5  2 -1</clus>
<clus scale="   66.319">  1  4  2 -1</clus>
<clus scale="   66.319">  2  3  1 -1</clus>
</clustering>
</event>
<event>
 6    0  0.1622933E+002  0.9038562E+02  0.7546771E-02  0.1301921E+00
          3   -1    0    0  505    0 -0.00000000000E+00  0.00000000000E+00  0.20652525132E+03  0.20652525132E+03  0.00000000000E+00 0. -1.
         21   -1    0    0  501  502  0.00000000000E+00 -0.00000000000E+00 -0.13005499120E+04  0.13005499120E+04  0.00000000000E+00 0.  1.
         21    1    1    2  503  504 -0.59421928628E+02  0.24204223853E+02  0.41481742840E+02  0.76403828721E+02  0.00000000000E+00 0.  1.
         21    1    1    2  504  502  0.15866478264E+02 -0.89377853013E+02 -0.12547211544E+04  0.12580005250E+04  0.00000000000E+00 0.  1.
         21    1    1    2  505  503  0.43217587066E+02  0.24627904241E+01  0.66217712401E+01  0.43791243677E+02  0.00000000000E+00 0. -1.
          3    1    1    2  501    0  0.33786329841E+00  0.62710838736E+02  0.11259297961E+03  0.12887956589E+03  0.00000000000E+00 0. -1.
<scales pt_clust_3="51.80671" pt_clust_4="14000.00000" pt_clust_5="43.28770" pt_clust_6="90.38562"></scales>
<clustering>
<clus scale="   43.288">  1  5  2 -1</clus>
<clus scale="   51.807">  1  3  2 -1</clus>
<clus scale="   90.386">  1  6  2 -1</clus>
<clus scale="   90.386">  2  3  1 -1</clus>
</clustering>
</event>
<event>
 6    0  0.1622933E+002  0.7967257E+02  0.7546771E-02  0.1329983E+00
         -2   -1    0    0    0  501 -0.00000000000E+00  0.00000000000E+00  0.68901138421E+03  0.68901138421E+03  0.00000000000E+00 0.  1.
         21   -1    0    0  503  502  0.00000000000E+00 -0.00000000000E+00 -0.17355447902E+03  0.17355447902E+03  0.00000000000E+00 0.  1.
         21    1    1    2  503  501 -0.36923972535E+01  0.79037849456E+02 -0.14768523981E+03  0.16754565199E+03  0.00000000000E+00 0.  1.
         21    1    1    2  504  505 -0.31184040238E+02  0.41359339100E+02  0.12633424130E+03  0.13654076249E+03  0.00000000000E+00 0.  1.
         21    1    1    2  505  502  0.61505861345E+02 -0.95999215835E+02  0.34651706773E+03  0.36479158248E+03  0.00000000000E+00 0.  1.
         -2    1    1    2    0  504 -0.26629423853E+02 -0.24397972720E+02  0.19029083596E+03  0.19368786627E+03  0.00000000000E+00 0.  1.
<scales pt_clust_3="14000.00000" pt_clust_4="51.76641" pt_clust_5="79.67257" pt_clust_6="36.11630"></scales>
<clustering>
<clus scale="   36.116">  1  6  2 -1</clus>
<clus scale="   51.766">  1  4  2 -1</clus>
<clus scale="   79.673">  1  5  2 -1</clus>
<clus scale="   79.673">  2  3  1 -1</clus>
</clustering>
</event>
<event>
 6    0  0.1622933E+002  0.1320154E+03  0.7546771E-02  0.1224496E+00
          1   -1    0    0  505    0 -0.00000000000E+00  0.00000000000E+00  0.10191263345E+04  0.10191263345E+04  0.00000000000E+00 0. -1.
         21   -1    0    0  503  502  0.00000000000E+00 -0.00000000000E+00 -0.44534540095E+02  0.44534540095E+02  0.00000000000E+00 0.  1.
         21    1    1    2  503  504 -0.40369726571E+02 -0.52029398604E+02  0.47377102610E+02  0.81125600116E+02  0.00000000000E+00 0.  1.
         21    1    1    2  504  501  0.22100260278E+02 -0.10734831807E+03  0.18651224815E+03  0.21633053785E+03  0.00000000000E+00 0.  1.
         21    1    1    2  505  502  0.48002522104E+02  0.17594364699E+02  0.18633802389E+03  0.19322438497E+03  0.00000000000E+00 0.  1.
          1    1    1    2  501    0 -0.29733055811E+02  0.14178335197E+03  0.55436441974E+03  0.57298035165E+03  0.00000000000E+00 0. -1.
<scales pt_clust_3="62.53288" pt_clust_4="14000.00000" pt_clust_5="51.12537" pt_clust_6="132.01539"></scales>
<clustering>
<clus scale="   51.125">  1  5  2 -1</clus>
<clus scale="   62.533">  2  3  1 -1</clus>
<clus scale="  132.015">  1  6  2 -1</clus>
<clus scale="   62.533">  2  3  1 -1</clus>
</clustering>
</event>
<event>
 6    0  0.1622933E+002  0.9130161E+02  0.7546771E-02  0.1299730E+00
         21   -1    0    0  501  502  0.00000000000E+00  0.00000000000E+00  0.25142679009E+03  0.25142679009E+03  0.00000000000E+00 0. -1.
          1   -1    0    0  504    0 -0.00000000000E+00 -0.00000000000E+00 -0.26277984302E+03  0.26277984302E+03  0.00000000000E+00 0. -1.
         21    1    1    2  503  505 -0.22820399736E+02 -0.40974212371E+02 -0.31915989377E+02  0.56729948894E+02  0.00000000000E+00 0.  1.
         21    1    1    2  504  503  0.25883516338E+02 -0.26309870993E+02 -0.41544699100E+02  0.55570925429E+02  0.00000000000E+00 0.  1.
         21    1    1    2  505  502 -0.90495413635E+02  0.17249981122E+02  0.20634332086E+03  0.22597466186E+03  0.00000000000E+00 0. -1.
          1    1    1    2  501    0  0.87432297033E+02  0.50034102241E+02 -0.14423568531E+03  0.17593109694E+03  0.00000000000E+00 0. -1.
<scales pt_clust_3="49.59474" pt_clust_4="36.90753" pt_clust_5="91.30161" pt_clust_6="14000.00000"></scales>
<clustering>
<clus scale="   36.908">  2  4  1 -1</clus>
<clus scale="   49.595">  2  3  1 -1</clus>
<clus scale="   91.302">  1  5  2 -1</clus>
<clus scale="   91.302">  1  3  2 -1</clus>
</clustering>
</event>
<event>
 6    0  0.1622933E+002  0.3048924E+03  0.7546771E-02  0.1082820E+00
         21   -1    0    0  504  502  0.00000000000E+00  0.00000000000E+00  0.13012710803E+03  0.13012710803E+03  0.00000000000E+00 0. -1.
          2   -1    0    0  505    0 -0.00000000000E+00 -0.00000000000E+00 -0.12527315687E+04  0.12527315687E+04  0.00000000000E+00 0. -1.
         21    1    1    2  503  501  0.86735903570E+01 -0.99655007519E+02 -0.18978121272E+03  0.21453032512E+03  0.00000000000E+00 0. -1.
         21    1    1    2  504  503 -0.71094400036E+01  0.90379835591E+02 -0.18358319513E+02  0.92499117369E+02  0.00000000000E+00 0. -1.
         21    1    1    2  505  502 -0.12997301348E+03  0.22370319211E+03 -0.70073003091E+03  0.74696631692E+03  0.00000000000E+00 0. -1.
          2    1    1    2  501    0  0.12840886313E+03 -0.21442802018E+03 -0.21373489755E+03  0.32886291734E+03  0.00000000000E+00 0. -1.
<scales pt_clust_3="77.51078" pt_clust_4="90.65903" pt_clust_5="279.19197" pt_clust_6="77.51078"></scales>
<clustering>
<clus scale="   77.511">  3  6 -1 -1</clus>
<clus scale="   90.659">  1  4  2 -1</clus>
<clus scale="  279.192">  2  5  1 -1</clus>
<clus scale="   90.659">  1  3  2 -1</clus>
</clustering>
</event>
<event>
 6    0  0.1622933E+002  0.9164334E+02  0.7546771E-02  0.1298920E+00
         21   -1    0    0  504  502  0.00000000000E+00  0.00000000000E+00  0.38301942641E+02  0.38301942641E+02  0.00000000000E+00 0.  1.
          1   -1    0    0  503    0 -0.00000000000E+00 -0.00000000000E+00 -0.19350384839E+04  0.19350384839E+04  0.00000000000E+00 0. -1.
         21    1    1    2  503  505 -0.35002798388E+02 -0.49879164878E+01 -0.28397860104E+03  0.28617113945E+03  0.00000000000E+00 0.  1.
         21    1    1    2  504  501 -0.43993193387E+02 -0.15785793372E+02  0.13421129456E+02  0.48628377031E+02  0.00000000000E+00 0.  1.
         21    1    1    2  505  502  0.52001587028E+01 -0.77636889586E+02 -0.65219933489E+03  0.65682455854E+03  0.00000000000E+00 0. -1.
          1    1    1    2  501    0  0.73795833072E+02  0.98410599446E+02 -0.97397973482E+03  0.98171635155E+03  0.00000000000E+00 0. -1.
<scales pt_clust_3="35.35640" pt_clust_4="47.10916" pt_clust_5="91.64334" pt_clust_6="14000.00000"></scales>
<clustering>
<clus scale="   35.356">  2  3  1 -1</clus>
<clus scale="   47.109">  1  4  2 -1</clus>
<clus scale="   91.643">  2  5  1 -1</clus>
<clus scale="   47.109">  1  3  2 -1</clus>
</clustering>
</event>
<event>
 6    0  0.1622933E+002  0.1756388E+03  0.7546771E-02  0.1172092E+00
         -1   -1    0    0    0  501 -0.00000000000E+00  0.00000000000E+00  0.17938162148E+03  0.17938162148E+03  0.00000000000E+00 0. -1.
         21   -1    0    0  505  502  0.00000000000E+00 -0.00000000000E+00 -0.53771646409E+03  0.53771646409E+03  0.00000000000E+00 0.  1.
         21    1    1    2  503  501  0.11533027554E+02  0.64378354542E+02  0.19122181862E+02  0.68141331784E+02  0.00000000000E+00 0. -1.
         21    1    1    2  504  502 -0.75427095502E+02  0.69923315345E+02  0.31730889419E+02  0.10763533857E+03  0.00000000000E+00 0. -1.
         21    1    1    2  505  503  0.94623213597E+02 -0.14337891060E+03 -0.45446741386E+03  0.48585151520E+03  0.00000000000E+00 0.  1.
         -1    1    1    2    0  504 -0.30729145649E+02  0.90772407119E+01  0.45279499973E+02  0.55469900028E+02  0.00000000000E+00 0. -1.
<scales pt_clust_3="65.40324" pt_clust_4="31.38820" pt_clust_5="166.39265" pt_clust_6="31.38820"></scales>
<clustering>
<clus scale="   31.388">  4  6 -1 -1</clus>
<clus scale="   65.403">  1  3  2 -1</clus>
<clus scale="  166.393">  2  5  1 -1</clus>
<clus scale="  166.393">  2  3  1 -1</clus>
</clustering>
</event>
<event>
 6    0  0.1622933E+002  0.1371717E+03  0.7546771E-02  0.1217186E+00
         -3   -1    0    0    0  501 -0.00000000000E+00  0.00000000000E+00  0.22679992308E+04  0.22679992308E+04  0.00000000000E+00 0.  1.
         21   -1    0    0  504  502  0.00000000000E+00 -0.00000000000E+00 -0.20069966239E+02  0.20069966239E+02  0.00000000000E+00 0.  1.
         21    1    1    2  503  501  0.15232351148E+03 -0.49520548477E+02  0.12067622602E+04  0.12173454273E+04  0.00000000000E+00 0.  1.
         21    1    1    2  504  503  0.97829563529E+00  0.51593850042E+02  0.19706232996E+03  0.20370676060E+03  0.00000000000E+00 0. -1.
         21    1    1    2  505  502 -0.30914446135E+02  0.17935054534E+02  0.40986654001E+02  0.54380832719E+02  0.00000000000E+00 0. -1.
         -3    1    1    2    0  505 -0.12238736098E+03 -0.20008356098E+02  0.80311802045E+03  0.81263617641E+03  0.00000000000E+00 0.  1.
<scales pt_clust_3="14000.00000" pt_clust_4="56.44868" pt_clust_5="35.74030" pt_clust_6="137.17166"></scales>
<clustering>
<clus scale="   35.740">  2  5  1 -1</clus>
<clus scale="   56.449">  2  4  1 -1</clus>
<clus scale="  137.172">  1  6  2 -1</clus>
<clus scale="   35.740">  2  3  1 -1</clus>
</clustering>
</event>
<event>
 6    0  0.1622933E+002  0.2481429E+03  0.7546771E-02  0.1114484E+00
         -1   -1    0    0    0  501 -0.00000000000E+00  0.00000000000E+00  0.46972228102E+03  0.46972228102E+03  0.00000000000E+00 0.  1.
         21   -1    0    0  503  502  0.00000000000E+00 -0.00000000000E+00 -0.14483143960E+03  0.14483143960E+03  0.00000000000E+00 0. -1.
         21    1    1    2  503  504  0.12625683736E+03 -0.11073215282E+03  0.70012806699E+02  0.18194557359E+03  0.00000000000E+00 0. -1.
         21    1    1    2  504  501  0.73796450202E+02 -0.33437362357E+01 -0.66159377936E+01  0.74167831756E+02  0.00000000000E+00 0. -1.
         21    1    1    2  505  502 -0.18983309825E+02  0.48791250613E+02  0.63623026483E+02  0.82394427524E+02  0.00000000000E+00 0.  1.
         -1    1    1    2    0  505 -0.18106997774E+03  0.65284638441E+02  0.19787094604E+03  0.27604588775E+03  0.00000000000E+00 0.  1.
<scales pt_clust_3="61.29219" pt_clust_4="61.29219" pt_clust_5="43.83910" pt_clust_6="245.15375"></scales>
<clustering>
<clus scale="   43.839">  5  6 -1 -1</clus>
<clus scale="   61.292">  3  4 -1 -1</clus>
<clus scale="  245.154">  1  5  2 -1</clus>
<clus scale="  248.143">  2  3  1 -1</clus>
</clustering>
</event>
<event>
 6    0  0.1622933E+002  0.9499511E+02  0.7546771E-02  0.1291187E+00
          1   -1    0    0  503    0 -0.00000000000E+00  0.00000000000E+00  0.27498855072E+04  0.27498855072E+04  0.00000000000E+00 0.  1.
         21   -1    0    0  504  502  0.00000000000E+00 -0.00000000000E+00 -0.64255972948E+03  0.64255972948E+03  0.00000000000E+00 0. -1.
         21    1    1    2  503  505 -0.57930308342E+01  0.30969780280E+02  0.34741262121E+03  0.34883838074E+03  0.00000000000E+00 0. -1.
         21    1    1    2  504  501 -0.23731588042E+02  0.19705189266E+02 -0.63496832076E+03  0.63571711565E+03  0.00000000000E+00 0. -1.
         21    1    1    2  505  502  0.11383490089E+03 -0.14084203925E+02  0.61297192058E+03  0.62361151760E+03  0.00000000000E+00 0. -1.
          1    1    1    2  501    0 -0.84310282010E+02 -0.36590765621E+02  0.17819095567E+04  0.17842782227E+04  0.00000000000E+00 0.  1.
<scales pt_clust_3="33.90709" pt_clust_4="30.84611" pt_clust_5="14000.00000" pt_clust_6="94.99511"></scales>
<clustering>
<clus scale="   30.846">  2  4  1 -1</clus>
<clus scale="   33.907">  1  3  2 -1</clus>
<clus scale="   94.995">  1  6  2 -1</clus>
<clus scale="   30.846">  2  3  1 -1</clus>
</clustering>
</event>
<event>
 6    0  0.1622933E+002  0.8906875E+02  0.7546771E-02  0.1305123E+00
          2   -1    0    0  505    0 -0.00000000000E+00  0.00000000000E+00  0.61395070159E+03  0.61395070159E+03  0.00000000000E+00 0.  1.
         21   -1    0    0  504  502  0.00000000000E+00 -0.00000000000E+00 -0.10220684378E+04  0.10220684378E+04  0.00000000000E+00 0.  1.
         21    1    1    2  503  502 -0.10110182078E+03  0.50410532332E+02 -0.95376266539E+02  0.14784935628E+03  0.00000000000E+00 0.  1.
         21    1    1    2  504  501  0.19312542517E+02 -0.47129507227E+02 -0.83180620783E+03  0.83336410538E+03  0.00000000000E+00 0.  1.
         21    1    1    2  505  503  0.14371080375E+02  0.30635346461E+02  0.56529227026E+03  0.56630416140E+03  0.00000000000E+00 0.  1.
          2    1    1    2  501    0  0.67418197884E+02 -0.33916371567E+02 -0.46227532043E+02  0.88501516287E+02  0.00000000000E+00 0.  1.
<scales pt_clust_3="89.06875" pt_clust_4="50.56413" pt_clust_5="33.83862" pt_clust_6="14000.00000"></scales>
<clustering>
<clus scale="   33.839">  1  5  2 -1</clus>
<clus scale="   50.564">  2  4  1 -1</clus>
<clus scale="   89.069">  2  3  1 -1</clus>
<clus scale="   50.564">  2  3  1 -1</clus>
</clustering>
</event>
<event>
 6    0  0.1622933E+002  0.1637262E+03  0.7546771E-02  0.1184553E+00
         21   -1    0    0  503  502  0.00000000000E+00  0.00000000000E+00  0.46017524835E+02  0.46017524835E+02  0.00000000000E+00 0.  1.
          2   -1    0    0  504    0 -0.00000000000E+00 -0.00000000000E+00 -0.32749219990E+04  0.32749219990E+04  0.00000000000E+00 0.  1.
         21    1    1    2  503  501 -0.78532408817E+02 -0.10588606274E+03 -0.12575496824E+04  0.12644407464E+04  0.00000000000E+00 0. -1.
         21    1    1    2  504  505  0.27064741887E+02 -0.15273204867E+02 -0.45192522391E+03  0.45299247129E+03  0.00000000000E+00 0.  1.
         21    1    1    2  505  502  0.60086358065E+02  0.15756154427E+03 -0.12833814918E+03  0.21191198926E+03  0.00000000000E+00 0.  1.
          2    1    1    2  501    0 -0.86186911356E+01 -0.36402276669E+02 -0.13910914187E+04  0.13915943169E+04  0.00000000000E+00 0.  1.
<scales pt_clust_3="163.72624" pt_clust_4="31.07686" pt_clust_5="14000.00000" pt_clust_6="44.18440"></scales>
<clustering>
<clus scale="   31.077">  2  4  1 -1</clus>
<clus scale="   44.184">  2  6  1 -1</clus>
<clus scale="  163.726">  2  3  1 -1</clus>
<clus scale="  163.726">  1  3  2 -1</clus>
</clustering>
</event>
<event>
 6    0  0.1622933E+002  0.1071025E+03  0.7546771E-02  0.1266032E+00
         21   -1    0    0  505  502  0.00000000000E+00  0.00000000000E+00  0.18028649503E+03  0.18028649503E+03  0.00000000000E+00 0.  1.
          2   -1    0    0  504    0 -0.00000000000E+00 -0.00000000000E+00 -0.34046235915E+03  0.34046235915E+03  0.00000000000E+00 0.  1.
         21    1    1    2  503  502  0.66327478859E+02 -0.10263260385E+03  0.11869461117E+03  0.17035608749E+03  0.00000000000E+00 0.  1.
         21    1    1    2  504  503 -0.98852304897E+01  0.34806505118E+02 -0.11672044178E+03  0.12220013138E+03  0.00000000000E+00 0.  1.
         21    1    1    2  505  501  0.28558417729E+02  0.40091580118E+02 -0.78301875878E+01  0.49842049087E+02  0.00000000000E+00 0. -1.
          2    1    1    2  501    0 -0.85000666098E+02  0.27734518618E+02 -0.15431984592E+03  0.17835058622E+03  0.00000000000E+00 0.  1.
<scales pt_clust_3="107.10253" pt_clust_4="36.18302" pt_clust_5="52.30382" pt_clust_6="14000.00000"></scales>
<clustering>
<clus scale="   36.183">  2  4  1 -1</clus>
<clus scale="   52.304">  1  5  2 -1</clus>
<clus scale="  107.103">  1  3  2 -1</clus>
<clus scale="   52.304">  1  3  2 -1</clus>
</clustering>
</event>
<event>
 6    0  0.1622933E+002  0.1083779E+03  0.7546771E-02  0.1263604E+00
         21   -1    0    0  503  502  0.00000000000E+00  0.00000000000E+00  0.20695454726E+04  0.20695454726E+04  0.00000000000E+00 0. -1.
          1   -1    0    0  504    0 -0.00000000000E+00 -0.00000000000E+00 -0.18455225699E+04  0.18455225699E+04  0.00000000000E+00 0. -1.
         21    1    1    2  503  501 -0.10648606560E+03  0.19917013331E+02  0.20590120105E+04  0.20618599441E+04  0.00000000000E+00 0. -1.
         21    1    1    2  504  505 -0.42309791549E+01 -0.41147191420E+02 -0.34089090550E+03  0.34339132487E+03  0.00000000000E+00 0. -1.
         21    1    1    2  505  502 -0.45814447058E+02  0.50004466086E+01 -0.16113620378E+03  0.16759726786E+03  0.00000000000E+00 0. -1.
          1    1    1    2  501    0  0.15653149181E+03  0.16229731480E+02 -0.13329619985E+04  0.13422195058E+04  0.00000000000E+00 0. -1.
<scales pt_clust_3="14000.00000" pt_clust_4="41.36415" pt_clust_5="46.27975" pt_clust_6="108.37794"></scales>
<clustering>
<clus scale="   41.364">  2  4  1 -1</clus>
<clus scale="   46.280">  2  5  1 -1</clus>
<clus scale="  108.378">  2  6  1 -1</clus>
<clus scale="  108.378">  1  3  2 -1</clus>
</clustering>
</event>
<event>
 6    0  0.1622933E+002  0.1601457E+03  0.7546771E-02  0.1188532E+00
          1   -1    0    0  504    0 -0.00000000000E+00  0.00000000000E+00  0.18723481725E+04  0.18723481725E+04  0.00000000000E+00 0. -1.
         21   -1    0    0  505  502  0.00000000000E+00 -0.00000000000E+00 -0.93817541172E+02  0.93817541172E+02  0.00000000000E+00 0. -1.
         21    1    1    2  503  502 -0.17565211715E+02 -0.48635319744E+02 -0.53120816594E+02  0.74133340305E+02  0.00000000000E+00 0. -1.
         21    1    1    2  504  503 -0.74615211231E+02 -0.12045265511E+03  0.29882628034E+03  0.33071652165E+03  0.00000000000E+00 0. -1.
         21    1    1    2  505  501 -0.11345283614E+02  0.39753086141E+02  0.34457512479E+02  0.53817687466E+02  0.00000000000E+00 0.  1.
          1    1    1    2  501    0  0.10352570656E+03  0.12933488872E+03  0.14983676551E+04  0.15074981642E+04  0.00000000000E+00 0. -1.
<scales pt_clust_3="32.07033" pt_clust_4="14000.00000" pt_clust_5="41.34034" pt_clust_6="160.14566"></scales>
<clustering>
<clus scale="   41.340">  2  5  1 -1</clus>
<clus scale="   32.070">  2  3  1 -1</clus>
<clus scale="  160.146">  1  6  2 -1</clus>
<clus scale="   41.340">  2  3  1 -1</clus>
</clustering>
</event>
<event>
 6    0  0.1622933E+002  0.1311617E+03  0.7546771E-02  0.1225742E+00
         21   -1    0    0  505  502  0.00000000000E+00  0.00000000000E+00  0.16559174969E+04  0.16559174969E+04  0.00000000000E+00 0.  1.
          3   -1    0    0  503    0 -0.00000000000E+00 -0.00000000000E+00 -0.48607651677E+03  0.48607651677E+03  0.00000000000E+00 0. -1.
         21    1    1    2  503  504  0.32701116668E+02  0.27499610776E+02 -0.67344650667E+02  0.79755210473E+02  0.00000000000E+00 0. -1.
         21    1    1    2  504  502  0.46363430083E+02  0.54609139670E+02  0.11520566349E+01  0.71645327964E+02  0.00000000000E+00 0. -1.
         21    1    1    2  505  501  0.10706428365E+02 -0.13126388745E+03  0.16036228696E+04  0.16090217971E+04  0.00000000000E+00 0.  1.
          3    1    1    2  501    0 -0.89770975116E+02  0.49155136999E+02 -0.36758929539E+03  0.38157167814E+03  0.00000000000E+00 0. -1.
<scales pt_clust_3="42.72694" pt_clust_4="75.23796" pt_clust_5="14000.00000" pt_clust_6="131.16166"></scales>
<clustering>
<clus scale="   42.727">  2  3  1 -1</clus>
<clus scale="   75.238">  2  4  1 -1</clus>
<clus scale="  131.162">  2  6  1 -1</clus>
<clus scale="  131.162">  1  3  2 -1</clus>
</clustering>
</event>
<event>
 6    0  0.1622933E+002  0.9200616E+02  0.7546771E-02  0.1298065E+00
         21   -1    0    0  505  502  0.00000000000E+00  0.00000000000E+00  0.18147246356E+03  0.18147246356E+03  0.00000000000E+00 0.  1.
          2   -1    0    0  503    0 -0.00000000000E+00 -0.00000000000E+00 -0.23747291936E+03  0.23747291936E+03  0.00000000000E+00 0.  1.
         21    1    1    2  503  504  0.29009527592E+02  0.28526158274E+02 -0.75299905013E+02  0.85588375916E+02  0.00000000000E+00 0. -1.
         21    1    1    2  504  502 -0.43945018765E+02 -0.36247615696E+02 -0.43541649397E+00  0.56967042274E+02  0.00000000000E+00 0.  1.
         21    1    1    2  505  501  0.86316711136E+02  0.37617348582E+02  0.11822150425E+03  0.15113558020E+03  0.00000000000E+00 0.  1.
          2    1    1    2  501    0 -0.71381219964E+02 -0.29895891161E+02 -0.98486638543E+02  0.12525438453E+03  0.00000000000E+00 0.  1.
<scales pt_clust_3="40.68531" pt_clust_4="49.56160" pt_clust_5="14000.00000" pt_clust_6="92.00616"></scales>
<clustering>
<clus scale="   40.685">  2  3  1 -1</clus>
<clus scale="   49.562">  2  4  1 -1</clus>
<clus scale="   92.006">  2  6  1 -1</clus>
<clus scale="   92.006">  1  3  2 -1</clus>
</clustering>
</event>
<event>
 6    0  0.1622933E+002  0.1186882E+03  0.7546771E-02  0.1245277E+00
         21   -1    0    0  501  502  0.00000000000E+00  0.00000000000E+00  0.15298907091E+03  0.15298907091E+03  0.00000000000E+00 0.  1.
          2   -1    0    0  503    0 -0.00000000000E+00 -0.00000000000E+00 -0.68327613583E+03  0.68327613583E+03  0.00000000000E+00 0.  1.
         21    1    1    2  503  504 -0.82593922222E+01  0.30229025331E+02 -0.13414584636E+03  0.13775746668E+03  0.00000000000E+00 0.  1.
         21    1    1    2  504  505  0.63422068665E+02 -0.19914497518E+02 -0.20422203806E+03  0.21476868215E+03  0.00000000000E+00 0.  1.
         21    1    1    2  505  502  0.11400099664E+03  0.81565462943E+01  0.96020662044E+02  0.14927398977E+03  0.00000000000E+00 0.  1.
          2    1    1    2  501    0 -0.16916367309E+03 -0.18471074107E+02 -0.28793984255E+03  0.33446506813E+03  0.00000000000E+00 0.  1.
<scales pt_clust_3="31.33706" pt_clust_4="60.83561" pt_clust_5="118.68816" pt_clust_6="14000.00000"></scales>
<clustering>
<clus scale="   31.337">  2  3  1 -1</clus>
<clus scale="   60.836">  2  4  1 -1</clus>
<clus scale="  118.688">  1  5  2 -1</clus>
<clus scale="  118.688">  1  3  2 -1</clus>
</clustering>
</event>
<event>
 6    0  0.1622933E+002  0.1078544E+03  0.7546771E-02  0.1264596E+00
         21   -1    0    0  504  502  0.00000000000E+00  0.00000000000E+00  0.34057802146E+02  0.34057802146E+02  0.00000000000E+00 0.  1.
          2   -1    0    0  503    0 -0.00000000000E+00 -0.00000000000E+00 -0.22351298546E+04  0.22351298546E+04  0.00000000000E+00 0. -1.
         21    1    1    2  503  502  0.90178817351E+02 -0.41203584981E+02 -0.84132269348E+03  0.84714451487E+03  0.00000000000E+00 0. -1.
         21    1    1    2  504  505  0.31061751170E+01  0.32716150645E+02  0.35387646685E+01  0.33053255396E+02  0.00000000000E+00 0.  1.
         21    1    1    2  505  501  0.41900975142E+02  0.65766158098E+02 -0.17401718959E+03  0.19069048624E+03  0.00000000000E+00 0. -1.
          2    1    1    2  501    0 -0.13518596761E+03 -0.57278723761E+02 -0.11892709340E+04  0.11982994002E+04  0.00000000000E+00 0. -1.
<scales pt_clust_3="14000.00000" pt_clust_4="32.86327" pt_clust_5="93.79089" pt_clust_6="107.85439"></scales>
<clustering>
<clus scale="   32.863">  1  4  2 -1</clus>
<clus scale="   93.791">  1  5  2 -1</clus>
<clus scale="  107.854">  1  6  2 -1</clus>
<clus scale="   32.863">  1  3  2 -1</clus>
</clustering>
</event>
<event>
 6    0  0.1622933E+002  0.1412382E+03  0.7546771E-02  0.1211673E+00
          2   -1    0    0  503    0 -0.00000000000E+00  0.00000000000E+00  0.34519753021E+04  0.34519753021E+04  0.00000000000E+00 0.  1.
         21   -1    0    0  505  502  0.00000000000E+00 -0.00000000000E+00 -0.10053634778E+02  0.10053634778E+02  0.00000000000E+00 0.  1.
         21    1    1    2  503  504 -0.42951793384E+02 -0.52714754413E+02  0.99535930707E+03  0.99767923305E+03  0.00000000000E+00 0.  1.
         21    1    1    2  504  502  0.13958967527E+03 -0.11034643686E+02  0.75531972404E+03  0.76818938181E+03  0.00000000000E+00 0.  1.
         21    1    1    2  505  501 -0.46619049954E+02  0.37306643315E+02  0.49626671982E+03  0.49984575487E+03  0.00000000000E+00 0.  1.
          2    1    1    2  501    0 -0.50018831933E+02  0.26442754785E+02  0.11949759164E+04  0.11963145671E+04  0.00000000000E+00 0.  1.
<scales pt_clust_3="67.99781" pt_clust_4="129.20105" pt_clust_5="55.53963" pt_clust_6="55.53963"></scales>
<clustering>
<clus scale="   55.540">  5  6 -1 -1</clus>
<clus scale="   67.998">  1  3  2 -1</clus>
<clus scale="  129.201">  2  4  1 -1</clus>
<clus scale="  129.201">  2  3  1 -1</clus>
</clustering>
</event>
<event>
 6    0  0.1622933E+002  0.8130677E+02  0.7546771E-02  0.1325383E+00
         -4   -1    0    0    0  501 -0.00000000000E+00  0.00000000000E+00  0.30745990730E+03  0.30745990730E+03  0.00000000000E+00 0.  1.
         21   -1    0    0  504  502  0.00000000000E+00 -0.00000000000E+00 -0.85272707193E+02  0.85272707193E+02  0.00000000000E+00 0.  1.
         21    1    1    2  503  501  0.17727749617E+01 -0.46234768694E+02  0.36540987320E+02  0.58957953845E+02  0.00000000000E+00 0.  1.
         21    1    1    2  504  505 -0.52158729923E+02  0.60167132151E+02 -0.14537449654E+02  0.80944143339E+02  0.00000000000E+00 0.  1.
         21    1    1    2  505  503 -0.47483647264E+02  0.11587095881E+02  0.95425561911E+02  0.10721471641E+03  0.00000000000E+00 0.  1.
         -4    1    1    2    0  502  0.97869602226E+02 -0.25519459339E+02  0.10475810053E+03  0.14561580090E+03  0.00000000000E+00 0.  1.
<scales pt_clust_3="46.26874" pt_clust_4="14000.00000" pt_clust_5="47.23454" pt_clust_6="81.30677"></scales>
<clustering>
<clus scale="   46.269">  1  3  2 -1</clus>
<clus scale="   47.235">  1  5  2 -1</clus>
<clus scale="   81.307">  1  6  2 -1</clus>
<clus scale="   81.307">  2  3  1 -1</clus>
</clustering>
</event>
<event>
 6    0  0.1622933E+002  0.1606846E+03  0.7546771E-02  0.1187926E+00
          1   -1    0    0  504    0 -0.00000000000E+00  0.00000000000E+00  0.25240142368E+04  0.25240142368E+04  0.00000000000E+00 0.  1.
         21   -1    0    0  505  502  0.00000000000E+00 -0.00000000000E+00 -0.48418340250E+02  0.48418340250E+02  0.00000000000E+00 0.  1.
         21    1    1    2  503  502  0.48804112957E+02  0.11190888041E+02 -0.11159715073E+02  0.51299285152E+02  0.00000000000E+00 0.  1.
         21    1    1    2  504  503 -0.18049917402E+03 -0.11092100387E+03  0.12245429019E+04  0.12427343801E+04  0.00000000000E+00 0.  1.
         21    1    1    2  505  501  0.10741912839E+03  0.56785135604E+02  0.49848543599E+03  0.51308006263E+03  0.00000000000E+00 0. -1.
          1    1    1    2  501    0  0.24275932671E+02  0.42944980225E+02  0.76372727378E+03  0.76531884921E+03  0.00000000000E+00 0.  1.
<scales pt_clust_3="50.45182" pt_clust_4="160.68456" pt_clust_5="14000.00000" pt_clust_6="49.33145"></scales>
<clustering>
<clus scale="   49.331">  1  6  2 -1</clus>
<clus scale="   50.452">  2  3  1 -1</clus>
<clus scale="  160.685">  1  4  2 -1</clus>
<clus scale="   50.452">  2  3  1 -1</clus>
</clustering>
</event>
<event>
 6    0  0.1622933E+002  0.1646410E+03  0.7546771E-02  0.1183554E+00
         21   -1    0    0  504  502  0.00000000000E+00  0.00000000000E+00  0.86361238737E+03  0.86361238737E+03  0.00000000000E+00 0.  1.
          2   -1    0    0  503    0 -0.00000000000E+00 -0.00000000000E+00 -0.85968871003E+03  0.85968871003E+03  0.00000000000E+00 0.  1.
         21    1    1    2  503  505  0.17027197926E+02  0.51854990652E+02 -0.15010089523E+03  0.15971582349E+03  0.00000000000E+00 0.  1.
         21    1    1    2  504  501 -0.30128852547E+02  0.11114278349E+02  0.44938852756E+01  0.32426377286E+02  0.00000000000E+00 0. -1.
         21    1    1    2  505  502 -0.99581870102E+02 -0.11516382662E+03  0.82776476229E+03  0.84164942673E+03  0.00000000000E+00 0.  1.
          2    1    1    2  501    0  0.11268352472E+03  0.52194557621E+02 -0.67823407499E+03  0.68950946989E+03  0.00000000000E+00 0.  1.
<scales pt_clust_3="54.58589" pt_clust_4="32.11347" pt_clust_5="164.64104" pt_clust_6="14000.00000"></scales>
<clustering>
<clus scale="   32.113">  1  4  2 -1</clus>
<clus scale="   54.586">  2  3  1 -1</clus>
<clus scale="  164.641">  1  5  2 -1</clus>
<clus scale="   32.113">  1  3  2 -1</clus>
</clustering>
</event>
<event>
 6    0  0.1622933E+002  0.8450427E+02  0.7546771E-02  0.1316734E+00
         -2   -1    0    0    0  501 -0.00000000000E+00  0.00000000000E+00  0.25758554815E+03  0.25758554815E+03  0.00000000000E+00 0.  1.
         21   -1    0    0  503  502  0.00000000000E+00 -0.00000000000E+00 -0.80706782334E+03  0.80706782334E+03  0.00000000000E+00 0.  1.
         21    1    1    2  503  501 -0.32692890854E+02  0.61030978913E+02  0.17403388449E+02  0.71389659119E+02  0.00000000000E+00 0.  1.
         21    1    1    2  504  502 -0.30500623946E+02 -0.13512437061E+02 -0.67886874555E+03  0.67968790463E+03  0.00000000000E+00 0.  1.
         21    1    1    2  505  504 -0.49226862421E+00 -0.10481257636E+03 -0.60478264040E+02  0.12101049092E+03  0.00000000000E+00 0.  1.
         -2    1    1    2    0  505  0.63685783425E+02  0.57294034505E+02  0.17246134595E+03  0.19256531683E+03  0.00000000000E+00 0.  1.
<scales pt_clust_3="70.11509" pt_clust_4="33.35977" pt_clust_5="14000.00000" pt_clust_6="84.50427"></scales>
<clustering>
<clus scale="   33.360">  2  4  1 -1</clus>
<clus scale="   70.115">  2  3  1 -1</clus>
<clus scale="   84.504">  1  6  2 -1</clus>
<clus scale="   33.360">  2  3  1 -1</clus>
</clustering>
</event>
<event>
 6    0  0.1622933E+002  0.7120230E+02  0.7546771E-02  0.1356052E+00
         21   -1    0    0  504  502  0.00000000000E+00  0.00000000000E+00  0.20570372691E+02  0.20570372691E+02  0.00000000000E+00 0.  1.
          1   -1    0    0  505    0 -0.00000000000E+00 -0.00000000000E+00 -0.23141087519E+04  0.23141087519E+04  0.00000000000E+00 0.  1.
         21    1    1    2  503  502 -0.30959661697E+02 -0.75056231560E+02 -0.58500200945E+03  0.59060925290E+03  0.00000000000E+00 0.  1.
         21    1    1    2  504  501  0.48946706143E+02  0.50802073388E+02 -0.60267013656E+02  0.92783315514E+02  0.00000000000E+00 0.  1.
         21    1    1    2  505  503  0.38952604077E+02  0.96135013229E+01 -0.56476992362E+03  0.56619324563E+03  0.00000000000E+00 0.  1.
          1    1    1    2  501    0 -0.56939648523E+02  0.14640656849E+02 -0.10834994325E+04  0.10850933106E+04  0.00000000000E+00 0.  1.
<scales pt_clust_3="71.20230" pt_clust_4="14000.00000" pt_clust_5="40.12138" pt_clust_6="38.72132"></scales>
<clustering>
<clus scale="   40.121">  2  5  1 -1</clus>
<clus scale="   38.721">  2  6  1 -1</clus>
<clus scale="   71.202">  2  3  1 -1</clus>
<clus scale="   71.202">  1  3  2 -1</clus>
</clustering>
</event>
<event>
 6    0  0.1622933E+002  0.1448810E+03  0.7546771E-02  0.1206908E+00
         -1   -1    0    0    0  501 -0.00000000000E+00  0.00000000000E+00  0.11199280486E+04  0.11199280486E+04  0.00000000000E+00 0.  1.
         21   -1    0    0  504  502  0.00000000000E+00 -0.00000000000E+00 -0.99369715188E+02  0.99369715188E+02  0.00000000000E+00 0.  1.
         21    1    1    2  503  502  0.73942911742E+02  0.14077563942E+03 -0.86912657932E+01  0.15925097473E+03  0.00000000000E+00 0.  1.
         21    1    1    2  504  501  0.38240091700E+02 -0.10284349122E+02  0.22420740937E+03  0.22767747992E+03  0.00000000000E+00 0.  1.
         21    1    1    2  505  503 -0.15574694337E+02 -0.97028140846E+02  0.26279429970E+03  0.28056706003E+03  0.00000000000E+00 0.  1.
         -1    1    1    2    0  505 -0.96608309105E+02 -0.33463149448E+02  0.54224789017E+03  0.55180224913E+03  0.00000000000E+00 0.  1.
<scales pt_clust_3="14000.00000" pt_clust_4="39.59889" pt_clust_5="144.88105" pt_clust_6="83.30764"></scales>
<clustering>
<clus scale="   39.599">  1  4  2 -1</clus>
<clus scale="   83.308">  1  6  2 -1</clus>
<clus scale="  144.881">  1  5  2 -1</clus>
<clus scale="  144.881">  2  3  1 -1</clus>
</clustering>
</event>
<event>
 6    0  0.1622933E+002  0.1618849E+03  0.7546771E-02  0.1186585E+00
         21   -1    0    0  503  502  0.00000000000E+00  0.00000000000E+00  0.34366356799E+02  0.34366356799E+02  0.00000000000E+00 0.  1.
          2   -1    0    0  504    0 -0.00000000000E+00 -0.00000000000E+00 -0.36393340218E+04  0.36393340218E+04  0.00000000000E+00 0.  1.
         21    1    1    2  503  505 -0.54214483962E+01  0.15056418819E+03 -0.15361398307E+03  0.21516557034E+03  0.00000000000E+00 0.  1.
         21    1    1    2  504  502  0.22048445867E+02  0.27229634614E+02 -0.44500670548E+03  0.44638386496E+03  0.00000000000E+00 0. -1.
         21    1    1    2  505  501  0.33854769481E+01 -0.11680434636E+03 -0.15545578635E+04  0.15589435101E+04  0.00000000000E+00 0.  1.
          2    1    1    2  501    0 -0.20012474419E+02 -0.60989476438E+02 -0.14517891130E+04  0.14532074333E+04  0.00000000000E+00 0.  1.
<scales pt_clust_3="152.19288" pt_clust_4="35.03694" pt_clust_5="38.02029" pt_clust_6="38.02029"></scales>
<clustering>
<clus scale="   35.037">  2  4  1 -1</clus>
<clus scale="   38.020">  5  6 -1 -1</clus>
<clus scale="  152.193">  1  3  2 -1</clus>
<clus scale="  152.193">  1  3  2 -1</clus>
</clustering>
</event>
<event>
 6    0  0.1622933E+002  0.1022151E+03  0.7546771E-02  0.1275706E+00
         21   -1    0    0  503  502  0.00000000000E+00  0.00000000000E+00  0.11271965471E+03  0.11271965471E+03  0.00000000000E+00 0. -1.
          1   -1    0    0  505    0 -0.00000000000E+00 -0.00000000000E+00 -0.88599183919E+03  0.88599183919E+03  0.00000000000E+00 0.  1.
         21    1    1    2  503  501 -0.73091712331E+02 -0.27661939987E+01 -0.46512169051E+02  0.86680056014E+02  0.00000000000E+00 0. -1.
         21    1    1    2  504  502 -0.63607425459E+00 -0.62644592412E+02  0.60959374739E+02  0.87411640630E+02  0.00000000000E+00 0. -1.
         21    1    1    2  505  504  0.76489289961E+02 -0.66937435075E+02 -0.46158348701E+03  0.47264209204E+03  0.00000000000E+00 0.  1.
          1    1    1    2  501    0 -0.27615033749E+01  0.13234822149E+03 -0.32613590317E+03  0.35197770521E+03  0.00000000000E+00 0.  1.
<scales pt_clust_3="81.51869" pt_clust_4="62.64782" pt_clust_5="102.21506" pt_clust_6="14000.00000"></scales>
<clustering>
<clus scale="   62.648">  1  4  2 -1</clus>
<clus scale="   81.519">  1  3  2 -1</clus>
<clus scale="  102.215">  2  5  1 -1</clus>
<clus scale="   62.648">  1  3  2 -1</clus>
</clustering>
</event>
<event>
 6    0  0.1622933E+002  0.2761563E+03  0.7546771E-02  0.1097807E+00
         21   -1    0    0  504  502  0.00000000000E+00  0.00000000000E+00  0.75946044601E+03  0.75946044601E+03  0.00000000000E+00 0. -1.
          2   -1    0    0  503    0 -0.00000000000E+00 -0.00000000000E+00 -0.69616970134E+03  0.69616970134E+03  0.00000000000E+00 0. -1.
         21    1    1    2  503  502 -0.41196222545E+02  0.25885957532E+02 -0.79550250267E+02  0.93249417515E+02  0.00000000000E+00 0.  1.
         21    1    1    2  504  505 -0.80770186868E+01  0.26293267018E+03  0.68892873939E+03  0.73744263183E+03  0.00000000000E+00 0. -1.
         21    1    1    2  505  501  0.25788169974E+02 -0.55854607048E+02 -0.62771566501E+02  0.87892186229E+02  0.00000000000E+00 0.  1.
          2    1    1    2  501    0  0.23485071258E+02 -0.23296402066E+03 -0.48331617794E+03  0.53704591178E+03  0.00000000000E+00 0. -1.
<scales pt_clust_3="48.65400" pt_clust_4="264.14117" pt_clust_5="41.29984" pt_clust_6="41.29984"></scales>
<clustering>
<clus scale="   41.300">  5  6 -1 -1</clus>
<clus scale="   48.654">  2  3  1 -1</clus>
<clus scale="  264.141">  1  4  2 -1</clus>
<clus scale="  264.141">  1  3  2 -1</clus>
</clustering>
</event>
<event>
 6    0  0.1622933E+002  0.7584407E+02  0.7546771E-02  0.1341277E+00
          2   -1    0    0  504    0 -0.00000000000E+00  0.00000000000E+00  0.15297920979E+04  0.15297920979E+04  0.00000000000E+00 0.  1.
         21   -1    0    0  503  502  0.00000000000E+00 -0.00000000000E+00 -0.28233384774E+03  0.28233384774E+03  0.00000000000E+00 0.  1.
         21    1    1    2  503  505  0.26420272041E+01  0.42632346824E+02 -0.25722608963E+03  0.26074845827E+03  0.00000000000E+00 0.  1.
         21    1    1    2  504  502 -0.41698483721E+02  0.22617658730E+02  0.14383116721E+03  0.15145206070E+03  0.00000000000E+00 0. -1.
         21    1    1    2  505  501  0.11251088496E+03 -0.58624461926E+02  0.20073933726E+03  0.23746959446E+03  0.00000000000E+00 0. -1.
          2    1    1    2  501    0 -0.73454428442E+02 -0.66255436278E+01  0.11601138354E+04  0.11624558322E+04  0.00000000000E+00 0.  1.
<scales pt_clust_3="42.71413" pt_clust_4="50.77120" pt_clust_5="75.84407" pt_clust_6="14000.00000"></scales>
<clustering>
<clus scale="   42.714">  2  3  1 -1</clus>
<clus scale="   50.771">  2  4  1 -1</clus>
<clus scale="   75.844">  2  5  1 -1</clus>
<clus scale="   42.714">  2  3  1 -1</clus>
</clustering>
</event>
<event>
 6    0  0.1622933E+002  0.1119174E+03  0.7546771E-02  0.1257060E+00
         21   -1    0    0  503  502  0.00000000000E+00  0.00000000000E+00  0.35313696525E+02  0.35313696525E+02  0.00000000000E+00 0.  1.
          2   -1    0    0  504    0 -0.00000000000E+00 -0.00000000000E+00 -0.93767866764E+03  0.93767866764E+03  0.00000000000E+00 0. -1.
         21    1    1    2  503  505  0.74164957016E+02  0.21831202054E+02 -0.37212482555E+02  0.85800997024E+02  0.00000000000E+00 0.  1.
         21    1    1    2  504  502  0.25570945630E+02 -0.51618593264E+02 -0.12280495159E+03  0.13564441959E+03  0.00000000000E+00 0.  1.
         21    1    1    2  505  501 -0.74134768139E+02 -0.45444663512E+01 -0.45358461167E+03  0.45962551710E+03  0.00000000000E+00 0. -1.
          2    1    1    2  501    0 -0.25601134507E+02  0.34331857561E+02 -0.28876292529E+03  0.29192143045E+03  0.00000000000E+00 0. -1.
<scales pt_clust_3="98.06681" pt_clust_4="57.60514" pt_clust_5="40.95105" pt_clust_6="40.95105"></scales>
<clustering>
<clus scale="   40.951">  5  6 -1 -1</clus>
<clus scale="   57.605">  1  4  2 -1</clus>
<clus scale="   98.067">  1  3  2 -1</clus>
<clus scale="   57.605">  1  3  2 -1</clus>
</clustering>
</event>
<event>
 6    0  0.1622933E+002  0.1062383E+03  0.7546771E-02  0.1267699E+00
          2   -1    0    0  505    0 -0.00000000000E+00  0.00000000000E+00  0.18268561009E+04  0.18268561009E+04  0.00000000000E+00 0.  1.
         21   -1    0    0  503  502  0.00000000000E+00 -0.00000000000E+00 -0.22001426741E+02  0.22001426741E+02  0.00000000000E+00 0.  1.
         21    1    1    2  503  501  0.32243440517E+02  0.31754172642E+01  0.19430164451E+02  0.37779015628E+02  0.00000000000E+00 0.  1.
         21    1    1    2  504  502 -0.29607720852E+02  0.83842037215E+02  0.41384550670E+03  0.42328974445E+03  0.00000000000E+00 0.  1.
         21    1    1    2  505  504 -0.58838010000E+01  0.49120638646E+02  0.74216174241E+03  0.74380878467E+03  0.00000000000E+00 0.  1.
          2    1    1    2  501    0  0.32480813352E+01 -0.13613809312E+03  0.62941726056E+03  0.64397998286E+03  0.00000000000E+00 0.  1.
<scales pt_clust_3="32.39942" pt_clust_4="14000.00000" pt_clust_5="49.47172" pt_clust_6="106.23827"></scales>
<clustering>
<clus scale="   32.399">  2  3  1 -1</clus>
<clus scale="   49.472">  1  5  2 -1</clus>
<clus scale="  106.238">  1  6  2 -1</clus>
<clus scale="   32.399">  2  3  1 -1</clus>
</clustering>
</event>
<event>
 6    0  0.1622933E+002  0.8443375E+02  0.7546771E-02  0.1316920E+00
          2   -1    0    0  505    0 -0.00000000000E+00  0.00000000000E+00  0.40118035750E+04  0.40118035750E+04  0.00000000000E+00 0. -1.
         21   -1    0    0  503  502  0.00000000000E+00 -0.00000000000E+00 -0.42970474694E+02  0.42970474694E+02  0.00000000000E+00 0.  1.
         21    1    1    2  503  501  0.18482732677E+01 -0.30098649287E+02  0.68212546117E+02  0.74580803500E+02  0.00000000000E+00 0. -1.
         21    1    1    2  504  502  0.57516304879E+02 -0.40313425234E+02 -0.27300001016E+01  0.70290472196E+02  0.00000000000E+00 0.  1.
         21    1    1    2  505  504  0.21813067968E+02  0.67128901428E+02  0.33378246405E+04  0.33385708664E+04  0.00000000000E+00 0. -1.
          2    1    1    2  501    0 -0.81177646114E+02  0.32831730935E+01  0.56552591379E+03  0.57133190758E+03  0.00000000000E+00 0. -1.
<scales pt_clust_3="30.15534" pt_clust_4="84.43375" pt_clust_5="70.32098" pt_clust_6="14000.00000"></scales>
<clustering>
<clus scale="   30.155">  2  3  1 -1</clus>
<clus scale="   70.321">  1  5  2 -1</clus>
<clus scale="   84.434">  2  4  1 -1</clus>
<clus scale="   30.155">  2  3  1 -1</clus>
</clustering>
</event>
<event>
 6    0  0.1622933E+002  0.1236604E+03  0.7546771E-02  0.1237178E+00
          1   -1    0    0  503    0 -0.00000000000E+00  0.00000000000E+00  0.74395854417E+03  0.74395854417E+03  0.00000000000E+00 0.  1.
         21   -1    0    0  505  502  0.00000000000E+00 -0.00000000000E+00 -0.77902787699E+03  0.77902787699E+03  0.00000000000E+00 0.  1.
         21    1    1    2  503  504  0.14193552088E+02 -0.41876229830E+02  0.37177237595E+01  0.44372255020E+02  0.00000000000E+00 0.  1.
         21    1    1    2  504  502 -0.44873113375E+02  0.39550435539E+01  0.41384660764E+02  0.61171307163E+02  0.00000000000E+00 0.  1.
         21    1    1    2  505  501 -0.11014188377E+03 -0.55462139947E+02 -0.73289808891E+03  0.74320043882E+03  0.00000000000E+00 0.  1.
          1    1    1    2  501    0  0.14082144506E+03  0.93383326223E+02  0.65272637157E+03  0.67424242016E+03  0.00000000000E+00 0.  1.
<scales pt_clust_3="44.21624" pt_clust_4="43.87291" pt_clust_5="123.66041" pt_clust_6="14000.00000"></scales>
<clustering>
<clus scale="   44.216">  1  3  2 -1</clus>
<clus scale="   43.873">  1  4  2 -1</clus>
<clus scale="  123.660">  2  5  1 -1</clus>
<clus scale="  123.660">  2  3  1 -1</clus>
</clustering>
</event>
<event>
 6    0  0.1622933E+002  0.2652729E+03  0.7546771E-02  0.1104016E+00
         21   -1    0    0  503  502  0.00000000000E+00  0.00000000000E+00  0.12005271967E+04  0.12005271967E+04  0.00000000000E+00 0.  1.
          2   -1    0    0  504    0 -0.00000000000E+00 -0.00000000000E+00 -0.47872759887E+03  0.47872759887E+03  0.00000000000E+00 0.  1.
         21    1    1    2  503  501 -0.76653136205E+02  0.12279285531E+03  0.80069518288E+02  0.16542344563E+03  0.00000000000E+00 0.  1.
         21    1    1    2  504  505  0.29279211277E+03  0.44340551481E+02 -0.27615104052E+03  0.40491073459E+03  0.00000000000E+00 0.  1.
         21    1    1    2  505  502 -0.21615476039E+02 -0.80959444982E+02  0.89047180737E+03  0.89440578054E+03  0.00000000000E+00 0.  1.
          2    1    1    2  501    0 -0.19452350052E+03 -0.86173961812E+02  0.27409312744E+02  0.21451483486E+03  0.00000000000E+00 0.  1.
<scales pt_clust_3="124.36709" pt_clust_4="265.27295" pt_clust_5="83.79535" pt_clust_6="14000.00000"></scales>
<clustering>
<clus scale="   83.795">  1  5  2 -1</clus>
<clus scale="  124.367">  1  3  2 -1</clus>
<clus scale="  265.273">  2  4  1 -1</clus>
<clus scale="   83.795">  1  3  2 -1</clus>
</clustering>
</event>
<event>
 6    0  0.1622933E+002  0.1221958E+03  0.7546771E-02  0.1239518E+00
         21   -1    0    0  504  502  0.00000000000E+00  0.00000000000E+00  0.24441527394E+03  0.24441527394E+03  0.00000000000E+00 0. -1.
          2   -1    0    0  505    0 -0.00000000000E+00 -0.00000000000E+00 -0.26891241163E+03  0.26891241163E+03  0.00000000000E+00 0.  1.
         21    1    1    2  503  502  0.51369036196E+02 -0.18575183488E+01 -0.19430343112E+02  0.54952402018E+02  0.00000000000E+00 0. -1.
         21    1    1    2  504  501  0.53426863003E+02  0.10954109595E+03  0.17265373096E+03  0.21133620656E+03  0.00000000000E+00 0. -1.
         21    1    1    2  505  503 -0.45687976825E+02  0.20734507999E+01 -0.61198247411E+02  0.76399711457E+02  0.00000000000E+00 0. -1.
          2    1    1    2  501    0 -0.59107922375E+02 -0.10975702840E+03 -0.11652227812E+03  0.17063936553E+03  0.00000000000E+00 0.  1.
<scales pt_clust_3="42.90312" pt_clust_4="122.19582" pt_clust_5="45.73500" pt_clust_6="14000.00000"></scales>
<clustering>
<clus scale="   45.735">  2  5  1 -1</clus>
<clus scale="   42.903">  2  3  1 -1</clus>
<clus scale="  122.196">  1  4  2 -1</clus>
<clus scale="  122.196">  1  3  2 -1</clus>
</clustering>
</event>
<event>
 6    0  0.1622933E+002  0.1664770E+03  0.7546771E-02  0.1181572E+00
          2   -1    0    0  503    0 -0.00000000000E+00  0.00000000000E+00  0.64183658031E+03  0.64183658031E+03  0.00000000000E+00 0.  1.
         21   -1    0    0  505  502  0.00000000000E+00 -0.00000000000E+00 -0.98807086537E+03  0.98807086537E+03  0.00000000000E+00 0.  1.
         21    1    1    2  503  504  0.29808006529E+02 -0.36681347537E+02  0.94466575695E+02  0.10563130423E+03  0.00000000000E+00 0.  1.
         21    1    1    2  504  502 -0.56408208955E+01  0.14677414031E+03  0.75079411141E+02  0.16495873757E+03  0.00000000000E+00 0.  1.
         21    1    1    2  505  501  0.12574354403E+03 -0.11512675962E+03 -0.91609518436E+03  0.93182401582E+03  0.00000000000E+00 0.  1.
          2    1    1    2  501    0 -0.14991072966E+03  0.50339668415E+01  0.40031491247E+03  0.42749338806E+03  0.00000000000E+00 0.  1.
<scales pt_clust_3="47.26562" pt_clust_4="166.47704" pt_clust_5="14000.00000" pt_clust_6="129.20032"></scales>
<clustering>
<clus scale="   47.266">  1  3  2 -1</clus>
<clus scale="  129.200">  1  6  2 -1</clus>
<clus scale="  166.477">  1  4  2 -1</clus>
<clus scale="  166.477">  2  3  1 -1</clus>
</clustering>
</event>
<event>
 6    0  0.1622933E+002  0.7694808E+02  0.7546771E-02  0.1337942E+00
         21   -1    0    0  501  502  0.00000000000E+00  0.00000000000E+00  0.62886243026E+02  0.62886243026E+02  0.00000000000E+00 0. -1.
          3   -1    0    0  503    0 -0.00000000000E+00 -0.00000000000E+00 -0.72626340360E+03  0.72626340360E+03  0.00000000000E+00 0. -1.
         21    1    1    2  503  504 -0.27846359367E+02  0.69844520273E+02 -0.24729591856E+03  0.25847426966E+03  0.00000000000E+00 0. -1.
         21    1    1    2  504  505  0.21488905913E+02 -0.89159244221E+02 -0.14291827260E+03  0.16981394687E+03  0.00000000000E+00 0. -1.
         21    1    1    2  505  502  0.51830709352E+02  0.53139802634E+02  0.74301049911E+01  0.74602061071E+02  0.00000000000E+00 0. -1.
          3    1    1    2  501    0 -0.45473255898E+02 -0.33825078686E+02 -0.28059307440E+03  0.28625936902E+03  0.00000000000E+00 0. -1.
<scales pt_clust_3="14000.00000" pt_clust_4="76.94808" pt_clust_5="69.98985" pt_clust_6="56.67409"></scales>
<clustering>
<clus scale="   56.674">  2  6  1 -1</clus>
<clus scale="   69.990">  1  5  2 -1</clus>
<clus scale="   76.948">  1  4  2 -1</clus>
<clus scale="   69.990">  1  3  2 -1</clus>
</clustering>
</event>
<event>
 6    0  0.1622933E+002  0.1591408E+03  0.7546771E-02  0.1189670E+00
         21   -1    0    0  501  502  0.00000000000E+00  0.00000000000E+00  0.12061077834E+04  0.12061077834E+04  0.00000000000E+00 0. -1.
          2   -1    0    0  503    0 -0.00000000000E+00 -0.00000000000E+00 -0.10507832235E+04  0.10507832235E+04  0.00000000000E+00 0.  1.
         21    1    1    2  503  504 -0.20164312748E+02 -0.37839917108E+02 -0.41662547503E+03  0.41882603224E+03  0.00000000000E+00 0.  1.
         21    1    1    2  504  505 -0.25563432621E+03  0.12207123424E+03 -0.35499181813E+03  0.45416900589E+03  0.00000000000E+00 0.  1.
         21    1    1    2  505  502  0.14575365170E+03 -0.59609878570E+02  0.11303234136E+04  0.11412398889E+04  0.00000000000E+00 0. -1.
          2    1    1    2  501    0  0.13004498727E+03 -0.24621438559E+02 -0.20338156054E+03  0.24265607991E+03  0.00000000000E+00 0.  1.
<scales pt_clust_3="42.87725" pt_clust_4="159.14083" pt_clust_5="14000.00000" pt_clust_6="128.66595"></scales>
<clustering>
<clus scale="   42.877">  2  3  1 -1</clus>
<clus scale="  128.666">  2  6  1 -1</clus>
<clus scale="  159.141">  2  4  1 -1</clus>
<clus scale="  159.141">  1  3  2 -1</clus>
</clustering>
</event>
<event>
 6    0  0.1622933E+002  0.1120172E+03  0.7546771E-02  0.1256879E+00
          2   -1    0    0  504    0 -0.00000000000E+00  0.00000000000E+00  0.93845780649E+03  0.93845780649E+03  0.00000000000E+00 0. -1.
         21   -1    0    0  501  502  0.00000000000E+00 -0.00000000000E+00 -0.60281293446E+02  0.60281293446E+02  0.00000000000E+00 0. -1.
         21    1    1    2  503  505  0.94184895550E+02  0.49438466744E+02  0.16201062845E+03  0.19381021716E+03  0.00000000000E+00 0. -1.
         21    1    1    2  504  503 -0.26453316642E+02  0.11762317733E+03  0.33568620600E+03  0.35667943410E+03  0.00000000000E+00 0. -1.
         21    1    1    2  505  502  0.26446798352E+02 -0.72609182379E+02  0.50451977931E+02  0.92287207055E+02  0.00000000000E+00 0. -1.
          2    1    1    2  501    0 -0.94178377259E+02 -0.94452461691E+02  0.33002770065E+03  0.35596224162E+03  0.00000000000E+00 0. -1.
<scales pt_clust_3="14000.00000" pt_clust_4="100.15840" pt_clust_5="77.27565" pt_clust_6="112.01717"></scales>
<clustering>
<clus scale="   77.276">  2  5  1 -1</clus>
<clus scale="  100.158">  1  4  2 -1</clus>
<clus scale="  112.017">  1  6  2 -1</clus>
<clus scale="   77.276">  2  3  1 -1</clus>
</clustering>
</event>
<event>
 6    0  0.1622933E+002  0.1162732E+03  0.7546771E-02  0.1249375E+00
         21   -1    0    0  504  502  0.00000000000E+00  0.00000000000E+00  0.15607804318E+03  0.15607804318E+03  0.00000000000E+00 0.  1.
         -3   -1    0    0    0  501 -0.00000000000E+00 -0.00000000000E+00 -0.74212397706E+03  0.74212397706E+03  0.00000000000E+00 0.  1.
         21    1    1    2  503  501  0.17816726233E+02 -0.24921799137E+02 -0.77032347227E+02  0.82900629221E+02  0.00000000000E+00 0. -1.
         21    1    1    2  504  503  0.17584747051E+02  0.40567915362E+02 -0.46942756128E+02  0.64487219188E+02  0.00000000000E+00 0. -1.
         21    1    1    2  505  502 -0.50317725964E+02 -0.10612850641E+03  0.11625760965E+03  0.16526029535E+03  0.00000000000E+00 0.  1.
         -3    1    1    2    0  505  0.14916252680E+02  0.90482390180E+02 -0.57832844018E+03  0.58555387647E+03  0.00000000000E+00 0.  1.
<scales pt_clust_3="30.63547" pt_clust_4="42.94425" pt_clust_5="116.27325" pt_clust_6="14000.00000"></scales>
<clustering>
<clus scale="   30.635">  2  3  1 -1</clus>
<clus scale="   42.944">  2  4  1 -1</clus>
<clus scale="  116.273">  1  5  2 -1</clus>
<clus scale="  116.273">  1  3  2 -1</clus>
</clustering>
</event>
<event>
 6    0  0.1622933E+002  0.1285581E+03  0.7546771E-02  0.1229611E+00
          2   -1    0    0  504    0 -0.00000000000E+00  0.00000000000E+00  0.23095698658E+04  0.23095698658E+04  0.00000000000E+00 0. -1.
         21   -1    0    0  503  502  0.00000000000E+00 -0.00000000000E+00 -0.58230220520E+03  0.58230220520E+03  0.00000000000E+00 0.  1.
         21    1    1    2  503  501  0.11369546144E+03 -0.89052861329E+01  0.21099878972E+03  0.23984672467E+03  0.00000000000E+00 0.  1.
         21    1    1    2  504  505 -0.32683004498E+02 -0.36519269444E+02  0.26759031129E+03  0.27204119269E+03  0.00000000000E+00 0. -1.
         21    1    1    2  505  502 -0.11753484191E+03 -0.54379880691E+02 -0.55665702486E+03  0.57152309998E+03  0.00000000000E+00 0.  1.
          2    1    1    2  501    0  0.36522384971E+02  0.99804436268E+02  0.18053355845E+04  0.18084610537E+04  0.00000000000E+00 0. -1.
<scales pt_clust_3="14000.00000" pt_clust_4="49.00853" pt_clust_5="128.55811" pt_clust_6="67.87765"></scales>
<clustering>
<clus scale="   49.009">  1  4  2 -1</clus>
<clus scale="   67.878">  1  6  2 -1</clus>
<clus scale="  128.558">  2  5  1 -1</clus>
<clus scale="  128.558">  2  3  1 -1</clus>
</clustering>
</event>
<event>
 6    0  0.1622933E+002  0.1766061E+03  0.7546771E-02  0.1171129E+00
          3   -1    0    0  505    0 -0.00000000000E+00  0.00000000000E+00  0.60542467787E+03  0.60542467787E+03  0.00000000000E+00 0.  1.
         21   -1    0    0  503  502  0.00000000000E+00 -0.00000000000E+00 -0.68732514100E+03  0.68732514100E+03  0.00000000000E+00 0. -1.
         21    1    1    2  503  501  0.14057023866E+03 -0.11094922152E+02  0.26675232750E+03  0.30172817820E+03  0.00000000000E+00 0. -1.
         21    1    1    2  504  502 -0.16634485304E+03  0.12321619234E+01 -0.64909196803E+03  0.67006903474E+03  0.00000000000E+00 0. -1.
         21    1    1    2  505  504 -0.41112178184E+02 -0.48394741999E+01  0.79337660554E+02  0.89487966161E+02  0.00000000000E+00 0.  1.
          3    1    1    2  501    0  0.66886792568E+02  0.14702234429E+02  0.22110151684E+03  0.23146463977E+03  0.00000000000E+00 0.  1.
<scales pt_clust_3="39.67927" pt_clust_4="167.17634" pt_clust_5="41.39603" pt_clust_6="39.67927"></scales>
<clustering>
<clus scale="   39.679">  3  6 -1 -1</clus>
<clus scale="   41.396">  1  5  2 -1</clus>
<clus scale="  167.176">  2  4  1 -1</clus>
<clus scale="  167.176">  2  3  1 -1</clus>
</clustering>
</event>
<event>
 6    0  0.1622933E+002  0.8437639E+02  0.7546771E-02  0.1317071E+00
          4   -1    0    0  504    0 -0.00000000000E+00  0.00000000000E+00  0.13786752762E+02  0.13786752762E+02  0.00000000000E+00 0.  1.
         21   -1    0    0  505  502  0.00000000000E+00 -0.00000000000E+00 -0.34238697396E+04  0.34238697396E+04  0.00000000000E+00 0.  1.
         21    1    1    2  503  501 -0.88854240299E+02  0.90118134527E+02 -0.85722330584E+03  0.86651494521E+03  0.00000000000E+00 0. -1.
         21    1    1    2  504  502  0.40772134163E+02 -0.80509057167E+01 -0.16071590500E+03  0.16600236783E+03  0.00000000000E+00 0. -1.
         21    1    1    2  505  503  0.41742489062E+02 -0.20617583821E+02 -0.22459076944E+04  0.22463901913E+04  0.00000000000E+00 0.  1.
          4    1    1    2  501    0  0.63396170752E+01 -0.61449644989E+02 -0.14623608168E+03  0.15874898803E+03  0.00000000000E+00 0.  1.
<scales pt_clust_3="84.37639" pt_clust_4="41.55940" pt_clust_5="47.42581" pt_clust_6="14000.00000"></scales>
<clustering>
<clus scale="   41.559">  1  4  2 -1</clus>
<clus scale="   47.426">  2  5  1 -1</clus>
<clus scale="   84.376">  2  3  1 -1</clus>
<clus scale="   47.426">  2  3  1 -1</clus>
</clustering>
</event>
<event>
 6    0  0.1622933E+002  0.1123876E+03  0.7546771E-02  0.1256211E+00
         21   -1    0    0  503  502  0.00000000000E+00  0.00000000000E+00  0.42661713817E+02  0.42661713817E+02  0.00000000000E+00 0.  1.
          1   -1    0    0  505    0 -0.00000000000E+00 -0.00000000000E+00 -0.18159903964E+04  0.18159903964E+04  0.00000000000E+00 0.  1.
         21    1    1    2  503  501  0.25850025928E+02 -0.25444496008E+02 -0.10697303569E+03  0.11295519723E+03  0.00000000000E+00 0. -1.
         21    1    1    2  504  502 -0.98083692728E+02  0.10265096558E+03 -0.11107053387E+03  0.18026174028E+03  0.00000000000E+00 0.  1.
         21    1    1    2  505  504  0.25177906514E+02  0.41038743591E+02 -0.55554202900E+03  0.55762447170E+03  0.00000000000E+00 0.  1.
          1    1    1    2  501    0  0.47055760286E+02 -0.11824521316E+03 -0.99974308405E+03  0.10078107010E+04  0.00000000000E+00 0.  1.
<scales pt_clust_3="36.27184" pt_clust_4="14000.00000" pt_clust_5="47.94125" pt_clust_6="112.38755"></scales>
<clustering>
<clus scale="   36.272">  1  3  2 -1</clus>
<clus scale="   47.941">  2  5  1 -1</clus>
<clus scale="  112.388">  2  6  1 -1</clus>
<clus scale="   36.272">  1  3  2 -1</clus>
</clustering>
</event>
<event>
 6    0  0.1622933E+002  0.2367421E+03  0.7546771E-02  0.1121982E+00
         21   -1    0    0  503  502  0.00000000000E+00  0.00000000000E+00  0.86446235854E+03  0.86446235854E+03  0.00000000000E+00 0. -1.
          1   -1    0    0  502    0 -0.00000000000E+00 -0.00000000000E+00 -0.30095907848E+03  0.30095907848E+03  0.00000000000E+00 0.  1.
         21    1    1    2  503  504  0.72861315175E+02  0.20509609786E+03  0.77621600364E+03  0.80615411982E+03  0.00000000000E+00 0. -1.
         21    1    1    2  504  505  0.20898123665E+02 -0.90709162310E+02 -0.19045445628E+02  0.95013750052E+02  0.00000000000E+00 0.  1.
         21    1    1    2  505  501 -0.76307261202E+02 -0.59490339530E+02 -0.48826950307E+02  0.10837882490E+03  0.00000000000E+00 0.  1.
          1    1    1    2  501    0 -0.17452177639E+02 -0.54896596017E+02 -0.14484032765E+03  0.15587474225E+03  0.00000000000E+00 0.  1.
<scales pt_clust_3="211.93157" pt_clust_4="100.96992" pt_clust_5="100.96992" pt_clust_6="57.60395"></scales>
<clustering>
<clus scale="   57.604">  2  6  1 -1</clus>
<clus scale="  100.970">  4  5 -1 -1</clus>
<clus scale="  211.932">  1  3  2 -1</clus>
<clus scale="  211.932">  1  3  2 -1</clus>
</clustering>
</event>
<event>
 6    0  0.1622933E+002  0.1734758E+03  0.7546771E-02  0.1174271E+00
         21   -1    0    0  504  502  0.00000000000E+00  0.00000000000E+00  0.98208803104E+03  0.98208803104E+03  0.00000000000E+00 0.  1.
          2   -1    0    0  502    0 -0.00000000000E+00 -0.00000000000E+00 -0.52995248528E+03  0.52995248528E+03  0.00000000000E+00 0. -1.
         21    1    1    2  503  501  0.77211055289E+02  0.59826011676E+01 -0.12615012073E+03  0.14802429373E+03  0.00000000000E+00 0. -1.
         21    1    1    2  504  505  0.53293305832E+02 -0.14460049113E+02  0.92610838476E+03  0.92775320522E+03  0.00000000000E+00 0.  1.
         21    1    1    2  505  503  0.57552744494E+02 -0.19521000134E+02 -0.34827387803E+02  0.70045233858E+02  0.00000000000E+00 0. -1.
          2    1    1    2  501    0 -0.18805710561E+03  0.27998448079E+02 -0.31299533046E+03  0.36621778351E+03  0.00000000000E+00 0. -1.
<scales pt_clust_3="50.85803" pt_clust_4="55.22019" pt_clust_5="50.85803" pt_clust_6="163.70056"></scales>
<clustering>
<clus scale="   50.858">  3  5 -1 -1</clus>
<clus scale="   55.220">  1  4  2 -1</clus>
<clus scale="  163.701">  2  6  1 -1</clus>
<clus scale="   55.220">  1  3  2 -1</clus>
</clustering>
</event>
<event>
 6    0  0.1622933E+002  0.8108814E+02  0.7546771E-02  0.1325991E+00
         21   -1    0    0  501  502  0.00000000000E+00  0.00000000000E+00  0.20386959218E+03  0.20386959218E+03  0.00000000000E+00 0.  1.
          4   -1    0    0  503    0 -0.00000000000E+00 -0.00000000000E+00 -0.17410334723E+03  0.17410334723E+03  0.00000000000E+00 0.  1.
         21    1    1    2  503  505  0.34314525279E+02 -0.24881733095E+02 -0.63059638961E+02  0.75980953882E+02  0.00000000000E+00 0. -1.
         21    1    1    2  504  502  0.57429116257E+02 -0.10261050107E+02  0.86022171018E+02  0.10393847435E+03  0.00000000000E+00 0.  1.
         21    1    1    2  505  504  0.20367283914E+00  0.88037255214E+02 -0.16190348847E+02  0.89513837947E+02  0.00000000000E+00 0. -1.
          4    1    1    2  501    0 -0.91947314375E+02 -0.52894472012E+02  0.22994061740E+02  0.10853967323E+03  0.00000000000E+00 0.  1.
<scales pt_clust_3="42.38617" pt_clust_4="61.62717" pt_clust_5="14000.00000" pt_clust_6="81.08814"></scales>
<clustering>
<clus scale="   42.386">  2  3  1 -1</clus>
<clus scale="   61.627">  1  4  2 -1</clus>
<clus scale="   81.088">  1  6  2 -1</clus>
<clus scale="   61.627">  1  3  2 -1</clus>
</clustering>
</event>
<event>
 6    0  0.1622933E+002  0.1889272E+03  0.7546771E-02  0.1159432E+00
          2   -1    0    0  503    0 -0.00000000000E+00  0.00000000000E+00  0.83470842842E+03  0.83470842842E+03  0.00000000000E+00 0.  1.
         21   -1    0    0  505  502  0.00000000000E+00 -0.00000000000E+00 -0.10539605047E+03  0.10539605047E+03  0.00000000000E+00 0.  1.
         21    1    1    2  503  504 -0.10517567632E+03 -0.12652463555E+03  0.45422114568E+03  0.48310170303E+03  0.00000000000E+00 0.  1.
         21    1    1    2  504  502 -0.10040646249E+03  0.57077661416E+00  0.22573358203E+02  0.10291423612E+03  0.00000000000E+00 0.  1.
         21    1    1    2  505  501  0.11811250740E+03  0.84421287996E+02  0.11163674810E+03  0.18314006060E+03  0.00000000000E+00 0.  1.
          2    1    1    2  501    0  0.87469631409E+02  0.41532570935E+02  0.14088112596E+03  0.17094847914E+03  0.00000000000E+00 0.  1.
<scales pt_clust_3="179.46717" pt_clust_4="100.40808" pt_clust_5="48.21158" pt_clust_6="48.21158"></scales>
<clustering>
<clus scale="   48.212">  5  6 -1 -1</clus>
<clus scale="  100.408">  2  4  1 -1</clus>
<clus scale="  179.467">  1  3  2 -1</clus>
<clus scale="  100.408">  2  3  1 -1</clus>
</clustering>
</event>
<event>
 6    0  0.1622933E+002  0.1387271E+03  0.7546771E-02  0.1215052E+00
          1   -1    0    0  503    0 -0.00000000000E+00  0.00000000000E+00  0.24753525059E+04  0.24753525059E+04  0.00000000000E+00 0.  1.
         21   -1    0    0  505  502  0.00000000000E+00 -0.00000000000E+00 -0.34485109031E+02  0.34485109031E+02  0.00000000000E+00 0. -1.
         21    1    1    2  503  502  0.41664144898E+02  0.69026578612E+02  0.80944986388E+03  0.81345537780E+03  0.00000000000E+00 0.  1.
         21    1    1    2  504  501  0.43972326721E+02 -0.37481027964E+02  0.98503695072E+03  0.98673004781E+03  0.00000000000E+00 0.  1.
         21    1    1    2  505  504 -0.13575374929E+03 -0.22825254030E+02  0.12545887064E+03  0.18625251915E+03  0.00000000000E+00 0. -1.
          1    1    1    2  501    0  0.50117277666E+02 -0.87202966172E+01  0.52092171160E+03  0.52339967015E+03  0.00000000000E+00 0.  1.
<scales pt_clust_3="80.62611" pt_clust_4="37.44864" pt_clust_5="132.86216" pt_clust_6="37.44864"></scales>
<clustering>
<clus scale="   37.449">  4  6 -1 -1</clus>
<clus scale="   80.626">  1  3  2 -1</clus>
<clus scale="  132.862">  2  5  1 -1</clus>
<clus scale="  132.862">  2  3  1 -1</clus>
</clustering>
</event>
<event>
 6    0  0.1622933E+002  0.7730968E+02  0.7546771E-02  0.1336864E+00
         21   -1    0    0  501  502  0.00000000000E+00  0.00000000000E+00  0.15178432317E+03  0.15178432317E+03  0.00000000000E+00 0.  1.
          2   -1    0    0  504    0 -0.00000000000E+00 -0.00000000000E+00 -0.31721108158E+03  0.31721108158E+03  0.00000000000E+00 0.  1.
         21    1    1    2  503  502 -0.32797012098E+02 -0.70422360504E+02  0.10617862584E+03  0.13156311583E+03  0.00000000000E+00 0.  1.
         21    1    1    2  504  505  0.24020465341E+01  0.39545609722E+02 -0.59572065153E+02  0.71543385595E+02  0.00000000000E+00 0.  1.
         21    1    1    2  505  503 -0.53832709402E+02 -0.73038233307E+01 -0.30861903971E+02  0.62480105262E+02  0.00000000000E+00 0.  1.
          2    1    1    2  501    0  0.84227674966E+02  0.38180574112E+02 -0.18117141513E+03  0.20340879806E+03  0.00000000000E+00 0.  1.
<scales pt_clust_3="14000.00000" pt_clust_4="39.61849" pt_clust_5="53.38724" pt_clust_6="77.30968"></scales>
<clustering>
<clus scale="   39.618">  2  4  1 -1</clus>
<clus scale="   53.387">  2  5  1 -1</clus>
<clus scale="   77.310">  2  6  1 -1</clus>
<clus scale="   77.310">  1  3  2 -1</clus>
</clustering>
</event>
<event>
 6    0  0.1622933E+002  0.7429203E+02  0.7546771E-02  0.1346078E+00
          1   -1    0    0  505    0 -0.00000000000E+00  0.00000000000E+00  0.37794456433E+03  0.37794456433E+03  0.00000000000E+00 0. -1.
         21   -1    0    0  503  502  0.00000000000E+00 -0.00000000000E+00 -0.38837190106E+03  0.38837190106E+03  0.00000000000E+00 0.  1.
         21    1    1    2  503  501 -0.72514834519E+02 -0.10356809144E+02 -0.33439411724E+03  0.34232307892E+03  0.00000000000E+00 0.  1.
         21    1    1    2  504  502 -0.50088046776E+02  0.33980362671E+02  0.27053657913E+03  0.27722467084E+03  0.00000000000E+00 0. -1.
         21    1    1    2  505  504  0.31414534232E+02 -0.46100571860E+01  0.42396810834E+02  0.52968057895E+02  0.00000000000E+00 0. -1.
          1    1    1    2  501    0  0.91188347064E+02 -0.19013496341E+02  0.11033390549E+02  0.93800657729E+02  0.00000000000E+00 0. -1.
<scales pt_clust_3="74.29203" pt_clust_4="38.56447" pt_clust_5="31.75099" pt_clust_6="14000.00000"></scales>
<clustering>
<clus scale="   31.751">  1  5  2 -1</clus>
<clus scale="   38.564">  1  4  2 -1</clus>
<clus scale="   74.292">  2  3  1 -1</clus>
<clus scale="   74.292">  2  3  1 -1</clus>
</clustering>
</event>
<event>
 6    0  0.1622933E+002  0.1547001E+03  0.7546771E-02  0.1194814E+00
          2   -1    0    0  503    0 -0.00000000000E+00  0.00000000000E+00  0.72225291296E+03  0.72225291296E+03  0.00000000000E+00 0.  1.
         21   -1    0    0  501  502  0.00000000000E+00 -0.00000000000E+00 -0.78090717738E+03  0.78090717738E+03  0.00000000000E+00 0.  1.
         21    1    1    2  503  505  0.87806967254E+01 -0.28819721393E+02  0.99935556590E+02  0.10437812245E+03  0.00000000000E+00 0. -1.
         21    1    1    2  504  502 -0.14086466022E+03  0.65899065292E+02 -0.75570126941E+03  0.77153739241E+03  0.00000000000E+00 0.  1.
         21    1    1    2  505  504  0.43306359036E+02 -0.45886682251E+00  0.31536329420E+02  0.53574166956E+02  0.00000000000E+00 0.  1.
          2    1    1    2  501    0  0.88777604460E+02 -0.36620477076E+02  0.56557511898E+03  0.57367040851E+03  0.00000000000E+00 0.  1.
<scales pt_clust_3="30.12768" pt_clust_4="14000.00000" pt_clust_5="43.97651" pt_clust_6="154.70010"></scales>
<clustering>
<clus scale="   30.128">  1  3  2 -1</clus>
<clus scale="   43.977">  1  5  2 -1</clus>
<clus scale="  154.700">  1  6  2 -1</clus>
<clus scale="  154.700">  2  3  1 -1</clus>
</clustering>
</event>
<event>
 6    0  0.1622933E+002  0.1658517E+03  0.7546771E-02  0.1182244E+00
         21   -1    0    0  504  502  0.00000000000E+00  0.00000000000E+00  0.23885779834E+03  0.23885779834E+03  0.00000000000E+00 0.  1.
          3   -1    0    0  503    0 -0.00000000000E+00 -0.00000000000E+00 -0.61134169273E+03  0.61134169273E+03  0.00000000000E+00 0.  1.
         21    1    1    2  503  505 -0.63244212814E+02  0.11592440136E+03 -0.12565084979E+02  0.13265058856E+03  0.00000000000E+00 0.  1.
         21    1    1    2  504  501  0.36351109578E+02 -0.80475286415E+01 -0.52075193615E+02  0.64015558069E+02  0.00000000000E+00 0.  1.
         21    1    1    2  505  502 -0.81595953132E+02 -0.42624771587E+02  0.15138233907E+03  0.17717613638E+03  0.00000000000E+00 0.  1.
          3    1    1    2  501    0  0.10848905637E+03 -0.65252101130E+02 -0.45922595486E+03  0.47635720806E+03  0.00000000000E+00 0.  1.
<scales pt_clust_3="152.59236" pt_clust_4="35.23816" pt_clust_5="92.05852" pt_clust_6="35.23816"></scales>
<clustering>
<clus scale="   35.238">  4  6 -1 -1</clus>
<clus scale="   92.059">  1  5  2 -1</clus>
<clus scale="  152.592">  1  3  2 -1</clus>
<clus scale="   92.059">  1  3  2 -1</clus>
</clustering>
</event>
<event>
 6    0  0.1622933E+002  0.2251794E+03  0.7546771E-02  0.1130079E+00
          1   -1    0    0  503    0 -0.00000000000E+00  0.00000000000E+00  0.15909991873E+04  0.15909991873E+04  0.00000000000E+00 0. -1.
         21   -1    0    0  505  502  0.00000000000E+00 -0.00000000000E+00 -0.99332647462E+02  0.99332647462E+02  0.00000000000E+00 0. -1.
         21    1    1    2  503  504  0.79166576898E+01  0.95296999579E+02  0.86360148258E+03  0.86887957296E+03  0.00000000000E+00 0. -1.
         21    1    1    2  504  502 -0.19327334794E+03 -0.13707921880E+03  0.25174306436E+03  0.34571645853E+03  0.00000000000E+00 0. -1.
         21    1    1    2  505  501 -0.34144039317E+02  0.18337354114E+02 -0.79013181789E+00  0.38764652521E+02  0.00000000000E+00 0. -1.
          1    1    1    2  501    0  0.21950072957E+03  0.23444865102E+02  0.37711212477E+03  0.43697115079E+03  0.00000000000E+00 0. -1.
<scales pt_clust_3="96.14493" pt_clust_4="225.17940" pt_clust_5="38.75660" pt_clust_6="14000.00000"></scales>
<clustering>
<clus scale="   38.757">  2  5  1 -1</clus>
<clus scale="   96.145">  1  3  2 -1</clus>
<clus scale="  225.179">  2  4  1 -1</clus>
<clus scale="   38.757">  2  3  1 -1</clus>
</clustering>
</event>
<event>
 6    0  0.1622933E+002  0.1617897E+03  0.7546771E-02  0.1186691E+00
         21   -1    0    0  504  502  0.00000000000E+00  0.00000000000E+00  0.50416687878E+03  0.50416687878E+03  0.00000000000E+00 0.  1.
         -1   -1    0    0    0  501 -0.00000000000E+00 -0.00000000000E+00 -0.82401548459E+03  0.82401548459E+03  0.00000000000E+00 0.  1.
         21    1    1    2  503  505  0.13193286835E+01 -0.10214290211E+03 -0.61009920913E+02  0.11898371120E+03  0.00000000000E+00 0. -1.
         21    1    1    2  504  501 -0.37821162839E+02 -0.73873992388E+00 -0.45728712938E+02  0.59347293806E+02  0.00000000000E+00 0.  1.
         21    1    1    2  505  502 -0.13870552704E+02  0.17184337093E+03  0.44967287925E+03  0.48158928009E+03  0.00000000000E+00 0.  1.
         -1    1    1    2    0  503  0.50372386859E+02 -0.68961728892E+02 -0.66278285121E+03  0.66826207828E+03  0.00000000000E+00 0.  1.
<scales pt_clust_3="161.78974" pt_clust_4="37.82838" pt_clust_5="14000.00000" pt_clust_6="71.82568"></scales>
<clustering>
<clus scale="   37.828">  2  4  1 -1</clus>
<clus scale="   71.826">  2  6  1 -1</clus>
<clus scale="  161.790">  2  3  1 -1</clus>
<clus scale="  161.790">  1  3  2 -1</clus>
</clustering>
</event>
<event>
 6    0  0.1622933E+002  0.1543681E+03  0.7546771E-02  0.1195206E+00
          1   -1    0    0  504    0 -0.00000000000E+00  0.00000000000E+00  0.35434687025E+03  0.35434687025E+03  0.00000000000E+00 0. -1.
         21   -1    0    0  501  502  0.00000000000E+00 -0.00000000000E+00 -0.28234433023E+03  0.28234433023E+03  0.00000000000E+00 0.  1.
         21    1    1    2  503  502 -0.41109813579E+02  0.70617664522E+02 -0.18976552937E+03  0.20661032756E+03  0.00000000000E+00 0.  1.
         21    1    1    2  504  505 -0.36836049407E+02  0.18668705990E+02  0.18560040044E+02  0.45275713199E+02  0.00000000000E+00 0. -1.
         21    1    1    2  505  503 -0.81791989890E+02  0.22620615722E+02  0.14110735074E+03  0.16465997176E+03  0.00000000000E+00 0.  1.
          1    1    1    2  501    0  0.15973785288E+03 -0.11190698624E+03  0.10210067861E+03  0.22014518796E+03  0.00000000000E+00 0. -1.
<scales pt_clust_3="81.71212" pt_clust_4="36.92547" pt_clust_5="36.92547" pt_clust_6="145.00902"></scales>
<clustering>
<clus scale="   36.925">  4  5 -1 -1</clus>
<clus scale="   81.712">  2  3  1 -1</clus>
<clus scale="  145.009">  2  6  1 -1</clus>
<clus scale="   81.712">  2  3  1 -1</clus>
</clustering>
</event>
<event>
 6    0  0.1622933E+002  0.7828893E+02  0.7546771E-02  0.1333979E+00
          4   -1    0    0  503    0 -0.00000000000E+00  0.00000000000E+00  0.32608153134E+03  0.32608153134E+03  0.00000000000E+00 0.  1.
         21   -1    0    0  505  502  0.00000000000E+00 -0.00000000000E+00 -0.21023058076E+04  0.21023058076E+04  0.00000000000E+00 0.  1.
         21    1    1    2  503  502  0.31970395340E+02  0.51127552476E+01 -0.20480278223E+04  0.20482837224E+04  0.00000000000E+00 0.  1.
         21    1    1    2  504  501  0.50090290286E+02 -0.77381929193E+02  0.13544723741E+03  0.16383819539E+03  0.00000000000E+00 0.  1.
         21    1    1    2  505  504 -0.24555618621E+02  0.73434119286E+02  0.10824081958E+02  0.78183815661E+02  0.00000000000E+00 0.  1.
          4    1    1    2  501    0 -0.57505067005E+02 -0.11649453401E+01  0.12553222670E+03  0.13808160547E+03  0.00000000000E+00 0.  1.
<scales pt_clust_3="32.37663" pt_clust_4="14000.00000" pt_clust_5="78.28893" pt_clust_6="53.80351"></scales>
<clustering>
<clus scale="   32.377">  2  3  1 -1</clus>
<clus scale="   53.804">  1  6  2 -1</clus>
<clus scale="   78.289">  2  5  1 -1</clus>
<clus scale="   32.377">  2  3  1 -1</clus>
</clustering>
</event>
<event>
 6    0  0.1622933E+002  0.9131486E+02  0.7546771E-02  0.1299698E+00
         21   -1    0    0  503  502  0.00000000000E+00  0.00000000000E+00  0.65207938146E+02  0.65207938146E+02  0.00000000000E+00 0.  1.
          2   -1    0    0  505    0 -0.00000000000E+00 -0.00000000000E+00 -0.18836435981E+04  0.18836435981E+04  0.00000000000E+00 0.  1.
         21    1    1    2  503  504  0.34433762554E+01  0.45469712619E+02  0.46059103740E+02  0.64813522070E+02  0.00000000000E+00 0.  1.
         21    1    1    2  504  501  0.33477038325E+02  0.62427953149E+02 -0.18511374177E+03  0.19820458830E+03  0.00000000000E+00 0. -1.
         21    1    1    2  505  502 -0.67027965862E+02 -0.61338017053E+02 -0.94243687549E+03  0.94680640304E+03  0.00000000000E+00 0.  1.
          2    1    1    2  501    0  0.30107551282E+02 -0.46559648715E+02 -0.73694414647E+03  0.73902702288E+03  0.00000000000E+00 0.  1.
<scales pt_clust_3="45.59991" pt_clust_4="14000.00000" pt_clust_5="91.31486" pt_clust_6="51.65966"></scales>
<clustering>
<clus scale="   45.600">  1  3  2 -1</clus>
<clus scale="   51.660">  2  6  1 -1</clus>
<clus scale="   91.315">  2  5  1 -1</clus>
<clus scale="   45.600">  1  3  2 -1</clus>
</clustering>
</event>
<event>
 6    0  0.1622933E+002  0.1211700E+03  0.7546771E-02  0.1241179E+00
          2   -1    0    0  504    0 -0.00000000000E+00  0.00000000000E+00  0.47436590488E+04  0.47436590488E+04  0.00000000000E+00 0. -1.
         21   -1    0    0  503  502  0.00000000000E+00 -0.00000000000E+00 -0.85779351792E+02  0.85779351792E+02  0.00000000000E+00 0. -1.
         21    1    1    2  503  501 -0.75889730362E+02  0.61238232378E+02  0.21347981919E+04  0.21370242611E+04  0.00000000000E+00 0. -1.
         21    1    1    2  504  505  0.39369593876E+01 -0.11684857109E+03  0.32718588605E+03  0.34744739493E+03  0.00000000000E+00 0. -1.
         21    1    1    2  505  502  0.52530770636E+02 -0.36436255198E+01 -0.64751581743E+02  0.83459722075E+02  0.00000000000E+00 0. -1.
          2    1    1    2  501    0  0.19422000339E+02  0.59253964234E+02  0.22606472007E+04  0.22615070225E+04  0.00000000000E+00 0. -1.
<scales pt_clust_3="121.16999" pt_clust_4="14000.00000" pt_clust_5="52.65698" pt_clust_6="62.85898"></scales>
<clustering>
<clus scale="   52.657">  2  5  1 -1</clus>
<clus scale="   62.859">  1  6  2 -1</clus>
<clus scale="  121.170">  1  3  2 -1</clus>
<clus scale="   52.657">  2  3  1 -1</clus>
</clustering>
</event>
<event>
 6    0  0.1622933E+002  0.9510320E+02  0.7546771E-02  0.1290944E+00
          1   -1    0    0  502    0 -0.00000000000E+00  0.00000000000E+00  0.14891365680E+04  0.14891365680E+04  0.00000000000E+00 0. -1.
         21   -1    0    0  503  502  0.00000000000E+00 -0.00000000000E+00 -0.10756702652E+03  0.10756702652E+03  0.00000000000E+00 0.  1.
         21    1    1    2  503  505 -0.32762482446E+02 -0.27674433299E+02 -0.87976618923E+02  0.97873081037E+02  0.00000000000E+00 0.  1.
         21    1    1    2  504  501 -0.24710586212E+02 -0.20241532949E+02  0.24263525589E+03  0.24472882978E+03  0.00000000000E+00 0. -1.
         21    1    1    2  505  504  0.10276431003E+03  0.70779014290E+02  0.28860189836E+03  0.31442205396E+03  0.00000000000E+00 0. -1.
          1    1    1    2  501    0 -0.45291241367E+02 -0.22863048042E+02  0.93830900616E+03  0.93967962974E+03  0.00000000000E+00 0. -1.
<scales pt_clust_3="42.88653" pt_clust_4="30.06615" pt_clust_5="87.22861" pt_clust_6="30.06615"></scales>
<clustering>
<clus scale="   30.066">  4  6 -1 -1</clus>
<clus scale="   42.887">  2  3  1 -1</clus>
<clus scale="   87.229">  2  5  1 -1</clus>
<clus scale="   42.887">  2  3  1 -1</clus>
</clustering>
</event>
<event>
 6    0  0.1622933E+002  0.6869464E+02  0.7546771E-02  0.1364589E+00
          2   -1    0    0  504    0 -0.00000000000E+00  0.00000000000E+00  0.23631781160E+03  0.23631781160E+03  0.00000000000E+00 0.  1.
         21   -1    0    0  501  502  0.00000000000E+00 -0.00000000000E+00 -0.12131852714E+04  0.12131852714E+04  0.00000000000E+00 0.  1.
         21    1    1    2  503  502  0.36817107833E+02  0.56750064190E+02 -0.10169683254E+04  0.10192157004E+04  0.00000000000E+00 0.  1.
         21    1    1    2  504  505  0.31599426008E+02  0.22937153974E+02  0.15750383184E+03  0.16227166667E+03  0.00000000000E+00 0.  1.
         21    1    1    2  505  503 -0.36668851691E+02  0.54942608239E+02 -0.11146296418E+03  0.12956576426E+03  0.00000000000E+00 0.  1.
          2    1    1    2  501    0 -0.31747682150E+02 -0.13462982640E+03 -0.59400020824E+01  0.13844995162E+03  0.00000000000E+00 0.  1.
<scales pt_clust_3="68.69464" pt_clust_4="39.04660" pt_clust_5="66.39820" pt_clust_6="14000.00000"></scales>
<clustering>
<clus scale="   39.047">  1  4  2 -1</clus>
<clus scale="   66.398">  1  5  2 -1</clus>
<clus scale="   68.695">  2  3  1 -1</clus>
<clus scale="   68.695">  2  3  1 -1</clus>
</clustering>
</event>
<event>
 6    0  0.1622933E+002  0.1294801E+03  0.7546771E-02  0.1228229E+00
         -1   -1    0    0    0  501 -0.00000000000E+00  0.00000000000E+00  0.11416202688E+04  0.11416202688E+04  0.00000000000E+00 0. -1.
         21   -1    0    0  505  502  0.00000000000E+00 -0.00000000000E+00 -0.80035035670E+02  0.80035035670E+02  0.00000000000E+00 0. -1.
         21    1    1    2  503  502  0.18023241343E+02 -0.27766551893E+02 -0.54055303433E+02  0.63386074668E+02  0.00000000000E+00 0. -1.
         21    1    1    2  504  503  0.66876166047E+02 -0.85174865875E+02  0.25973486161E+03  0.28140607260E+03  0.00000000000E+00 0. -1.
         21    1    1    2  505  501  0.33987297817E+02  0.18428814570E+02  0.17936497685E+03  0.18348447493E+03  0.00000000000E+00 0. -1.
         -1    1    1    2    0  504 -0.11888670521E+03  0.94512603199E+02  0.67654069813E+03  0.69337868230E+03  0.00000000000E+00 0. -1.
<scales pt_clust_3="33.10315" pt_clust_4="129.48013" pt_clust_5="39.04464" pt_clust_6="14000.00000"></scales>
<clustering>
<clus scale="   33.103">  2  3  1 -1</clus>
<clus scale="   39.045">  1  5  2 -1</clus>
<clus scale="  129.480">  2  4  1 -1</clus>
<clus scale="   33.103">  2  3  1 -1</clus>
</clustering>
</event>
<event>
 6    0  0.1622933E+002  0.1214954E+03  0.7546771E-02  0.1240650E+00
          1   -1    0    0  505    0 -0.00000000000E+00  0.00000000000E+00  0.11478126002E+03  0.11478126002E+03  0.00000000000E+00 0.  1.
         21   -1    0    0  501  502  0.00000000000E+00 -0.00000000000E+00 -0.11851304315E+04  0.11851304315E+04  0.00000000000E+00 0.  1.
         21    1    1    2  503  502  0.56024296807E+02 -0.34384718535E+02 -0.10045316617E+04  0.10066801329E+04  0.00000000000E+00 0.  1.
         21    1    1    2  504  503  0.19171695897E+02 -0.31158519328E+02 -0.82686088523E+02  0.90417899143E+02  0.00000000000E+00 0.  1.
         21    1    1    2  505  504 -0.26630647643E+01 -0.42137527347E+02 -0.42628556141E+02  0.59998807685E+02  0.00000000000E+00 0. -1.
          1    1    1    2  501    0 -0.72532927939E+02  0.10768076521E+03  0.59497134862E+02  0.14281485178E+03  0.00000000000E+00 0.  1.
<scales pt_clust_3="65.73455" pt_clust_4="33.25859" pt_clust_5="33.25859" pt_clust_6="116.12300"></scales>
<clustering>
<clus scale="   33.259">  4  5 -1 -1</clus>
<clus scale="   65.735">  2  3  1 -1</clus>
<clus scale="  116.123">  1  6  2 -1</clus>
<clus scale="   65.735">  2  3  1 -1</clus>
</clustering>
</event>
<event>
 6    0  0.1622933E+002  0.1268870E+03  0.7546771E-02  0.1232149E+00
          2   -1    0    0  503    0 -0.00000000000E+00  0.00000000000E+00  0.19183741097E+04  0.19183741097E+04  0.00000000000E+00 0. -1.
         21   -1    0    0  504  502  0.00000000000E+00 -0.00000000000E+00 -0.51280279146E+02  0.51280279146E+02  0.00000000000E+00 0. -1.
         21    1    1    2  503  505  0.14161777773E+03 -0.25162056328E+02  0.67636576411E+03  0.69149068750E+03  0.00000000000E+00 0.  1.
         21    1    1    2  504  501 -0.92193847189E+02  0.72286537463E+02  0.40844275533E+03  0.42491238314E+03  0.00000000000E+00 0.  1.
         21    1    1    2  505  502  0.67120015830E+02 -0.10576982104E+02  0.68917016217E+01  0.68296885923E+02  0.00000000000E+00 0. -1.
          2    1    1    2  501    0 -0.11654394637E+03 -0.36547499030E+02  0.77539360952E+03  0.78495443231E+03  0.00000000000E+00 0. -1.
<scales pt_clust_3="14000.00000" pt_clust_4="94.33879" pt_clust_5="67.94828" pt_clust_6="126.88695"></scales>
<clustering>
<clus scale="   67.948">  2  5  1 -1</clus>
<clus scale="   94.339">  2  4  1 -1</clus>
<clus scale="  126.887">  1  6  2 -1</clus>
<clus scale="   67.948">  2  3  1 -1</clus>
</clustering>
</event>
<event>
 6    0  0.1622933E+002  0.2614707E+03  0.7546771E-02  0.1106263E+00
         21   -1    0    0  503  502  0.00000000000E+00  0.00000000000E+00  0.13706506173E+03  0.13706506173E+03  0.00000000000E+00 0.  1.
          2   -1    0    0  505    0 -0.00000000000E+00 -0.00000000000E+00 -0.74117926840E+03  0.74117926840E+03  0.00000000000E+00 0.  1.
         21    1    1    2  503  501  0.46384617346E+02 -0.41770894106E+02 -0.41354766161E+02  0.74876945751E+02  0.00000000000E+00 0. -1.
         21    1    1    2  504  502 -0.18886096234E+03  0.14644123904E+03 -0.10350394983E+03  0.26043534172E+03  0.00000000000E+00 0.  1.
         21    1    1    2  505  504 -0.20580502256E+02  0.52753965273E+02 -0.14336693629E+03  0.15414479020E+03  0.00000000000E+00 0.  1.
          2    1    1    2  501    0  0.16305684725E+03 -0.15742431020E+03 -0.31588855439E+03  0.38878725246E+03  0.00000000000E+00 0.  1.
<scales pt_clust_3="32.42364" pt_clust_4="254.06629" pt_clust_5="56.62630" pt_clust_6="32.42364"></scales>
<clustering>
<clus scale="   32.424">  3  6 -1 -1</clus>
<clus scale="   56.626">  2  5  1 -1</clus>
<clus scale="  254.066">  1  4  2 -1</clus>
<clus scale="  254.066">  1  3  2 -1</clus>
</clustering>
</event>
<event>
 6    0  0.1622933E+002  0.2440021E+03  0.7546771E-02  0.1117155E+00
          2   -1    0    0  505    0 -0.00000000000E+00  0.00000000000E+00  0.62558281515E+03  0.62558281515E+03  0.00000000000E+00 0.  1.
         21   -1    0    0  503  502  0.00000000000E+00 -0.00000000000E+00 -0.24570254728E+03  0.24570254728E+03  0.00000000000E+00 0. -1.
         21    1    1    2  503  504 -0.10818831108E+03  0.20902296858E+03 -0.14578063611E+03  0.27685249847E+03  0.00000000000E+00 0. -1.
         21    1    1    2  504  501  0.36714807312E+02 -0.51458262306E+02  0.46655522537E+02  0.78566326239E+02  0.00000000000E+00 0.  1.
         21    1    1    2  505  502 -0.48201650449E+01 -0.32653893975E+02  0.17949871741E+03  0.18250835689E+03  0.00000000000E+00 0. -1.
          2    1    1    2  501    0  0.76293668812E+02 -0.12491081230E+03  0.29950666402E+03  0.33335818083E+03  0.00000000000E+00 0.  1.
<scales pt_clust_3="231.43130" pt_clust_4="49.11585" pt_clust_5="33.00774" pt_clust_6="49.11585"></scales>
<clustering>
<clus scale="   33.008">  1  5  2 -1</clus>
<clus scale="   49.116">  4  6 -1 -1</clus>
<clus scale="  231.431">  2  3  1 -1</clus>
<clus scale="  231.431">  2  3  1 -1</clus>
</clustering>
</event>
<event>
 6    0  0.1622933E+002  0.2589341E+03  0.7546771E-02  0.1107785E+00
         21   -1    0    0  504  502  0.00000000000E+00  0.00000000000E+00  0.88180706651E+03  0.88180706651E+03  0.00000000000E+00 0.  1.
          1   -1    0    0  505    0 -0.00000000000E+00 -0.00000000000E+00 -0.15873590295E+04  0.15873590295E+04  0.00000000000E+00 0.  1.
         21    1    1    2  503  501  0.60022718393E+02  0.92504027058E+01 -0.20665147283E+03  0.21539064023E+03  0.00000000000E+00 0.  1.
         21    1    1    2  504  503 -0.23035881143E+03  0.86911861507E+02  0.84449018864E+03  0.87964909617E+03  0.00000000000E+00 0.  1.
         21    1    1    2  505  502 -0.48908708797E+02  0.89493757073E+00 -0.20426754853E+03  0.21004307675E+03  0.00000000000E+00 0.  1.
          1    1    1    2  501    0  0.21924480183E+03 -0.97057201783E+02 -0.11391231303E+04  0.11640832829E+04  0.00000000000E+00 0.  1.
<scales pt_clust_3="39.43188" pt_clust_4="246.79592" pt_clust_5="48.91690" pt_clust_6="39.43188"></scales>
<clustering>
<clus scale="   39.432">  3  6 -1 -1</clus>
<clus scale="   48.917">  2  5  1 -1</clus>
<clus scale="  246.796">  1  4  2 -1</clus>
<clus scale="  246.796">  1  3  2 -1</clus>
</clustering>
</event>
<event>
 6    0  0.1622933E+002  0.1776339E+03  0.7546771E-02  0.1170113E+00
          1   -1    0    0  504    0 -0.00000000000E+00  0.00000000000E+00  0.21216188506E+04  0.21216188506E+04  0.00000000000E+00 0. -1.
         21   -1    0    0  503  502  0.00000000000E+00 -0.00000000000E+00 -0.48716571845E+03  0.48716571845E+03  0.00000000000E+00 0. -1.
         21    1    1    2  503  505  0.82103946697E+02 -0.19229346708E+03  0.25818885684E+03  0.33223383533E+03  0.00000000000E+00 0. -1.
         21    1    1    2  504  502  0.63119236753E+01  0.64371006064E+02 -0.44368967435E+03  0.44837929694E+03  0.00000000000E+00 0. -1.
         21    1    1    2  505  501 -0.65621036580E+02  0.38371054135E+02  0.10371973309E+04  0.10399792121E+04  0.00000000000E+00 0. -1.
          1    1    1    2  501    0 -0.22794833792E+02  0.89551406880E+02  0.78275661871E+03  0.78819222469E+03  0.00000000000E+00 0. -1.
<scales pt_clust_3="160.48962" pt_clust_4="64.67972" pt_clust_5="68.01399" pt_clust_6="68.01399"></scales>
<clustering>
<clus scale="   64.680">  2  4  1 -1</clus>
<clus scale="   68.014">  5  6 -1 -1</clus>
<clus scale="  160.490">  2  3  1 -1</clus>
<clus scale="   64.680">  2  3  1 -1</clus>
</clustering>
</event>
<event>
 6    0  0.1622933E+002  0.1230553E+03  0.7546771E-02  0.1238140E+00
          2   -1    0    0  505    0 -0.00000000000E+00  0.00000000000E+00  0.34589529937E+04  0.34589529937E+04  0.00000000000E+00 0. -1.
         21   -1    0    0  504  502  0.00000000000E+00 -0.00000000000E+00 -0.95996541451E+02  0.95996541451E+02  0.00000000000E+00 0. -1.
         21    1    1    2  503  501 -0.19800693372E+01 -0.52614302178E+02  0.17854063613E+04  0.17861825383E+04  0.00000000000E+00 0. -1.
         21    1    1    2  504  503 -0.26053474411E+02  0.22193992834E+02 -0.70400113992E+02  0.78278559625E+02  0.00000000000E+00 0. -1.
         21    1    1    2  505  502  0.64302970125E+02  0.88392919086E+02  0.12519518914E+03  0.16619872291E+03  0.00000000000E+00 0.  1.
          2    1    1    2  501    0 -0.36269426378E+02 -0.57972609742E+02  0.15227550159E+04  0.15242897143E+04  0.00000000000E+00 0. -1.
<scales pt_clust_3="35.04087" pt_clust_4="34.22509" pt_clust_5="116.36266" pt_clust_6="35.04087"></scales>
<clustering>
<clus scale="   34.225">  2  4  1 -1</clus>
<clus scale="   35.041">  3  6 -1 -1</clus>
<clus scale="  116.363">  2  5  1 -1</clus>
<clus scale="   34.225">  2  3  1 -1</clus>
</clustering>
</event>
<event>
 6    0  0.1622933E+002  0.1095520E+03  0.7546771E-02  0.1261402E+00
          2   -1    0    0  503    0 -0.00000000000E+00  0.00000000000E+00  0.25047438663E+04  0.25047438663E+04  0.00000000000E+00 0. -1.
         21   -1    0    0  504  502  0.00000000000E+00 -0.00000000000E+00 -0.15066477284E+02  0.15066477284E+02  0.00000000000E+00 0. -1.
         21    1    1    2  503  505  0.27483263054E+02  0.38941854514E+02  0.11986791523E+04  0.11996264035E+04  0.00000000000E+00 0. -1.
         21    1    1    2  504  501 -0.86837143305E+02 -0.85391730911E+02  0.32224643700E+03  0.34449267528E+03  0.00000000000E+00 0. -1.
         21    1    1    2  505  502  0.18946411457E+02 -0.24788010064E+02  0.17842662852E+03  0.18113385579E+03  0.00000000000E+00 0. -1.
          2    1    1    2  501    0  0.40407468794E+02  0.71237886461E+02  0.79032517115E+03  0.79455740898E+03  0.00000000000E+00 0. -1.
<scales pt_clust_3="47.35238" pt_clust_4="14000.00000" pt_clust_5="31.19955" pt_clust_6="109.55199"></scales>
<clustering>
<clus scale="   31.200">  2  5  1 -1</clus>
<clus scale="   47.352">  1  3  2 -1</clus>
<clus scale="  109.552">  1  6  2 -1</clus>
<clus scale="   31.200">  2  3  1 -1</clus>
</clustering>
</event>
<event>
 6    0  0.1622933E+002  0.1223987E+03  0.7546771E-02  0.1239192E+00
          1   -1    0    0  505    0 -0.00000000000E+00  0.00000000000E+00  0.14914968149E+04  0.14914968149E+04  0.00000000000E+00 0.  1.
         21   -1    0    0  503  502  0.00000000000E+00 -0.00000000000E+00 -0.13479253975E+03  0.13479253975E+03  0.00000000000E+00 0. -1.
         21    1    1    2  503  501  0.10179726147E+03  0.69373500702E+02 -0.96848114900E+02  0.15670010339E+03  0.00000000000E+00 0. -1.
         21    1    1    2  504  502 -0.22628679591E+02  0.30459506705E+02  0.79492355946E+02  0.88084467090E+02  0.00000000000E+00 0.  1.
         21    1    1    2  505  504 -0.33989643981E+02 -0.16598719979E+01  0.26059112829E+03  0.26280370472E+03  0.00000000000E+00 0.  1.
          1    1    1    2  501    0 -0.45178937903E+02 -0.98173135409E+02  0.11134689059E+04  0.11187010795E+04  0.00000000000E+00 0.  1.
<scales pt_clust_3="14000.00000" pt_clust_4="39.28270" pt_clust_5="34.03015" pt_clust_6="122.39873"></scales>
<clustering>
<clus scale="   34.030">  1  5  2 -1</clus>
<clus scale="   39.283">  1  4  2 -1</clus>
<clus scale="  122.399">  1  6  2 -1</clus>
<clus scale="  122.399">  2  3  1 -1</clus>
</clustering>
</event>
<event>
 6    0  0.1622933E+002  0.1312235E+03  0.7546771E-02  0.1225651E+00
          1   -1    0    0  505    0 -0.00000000000E+00  0.00000000000E+00  0.34184107815E+03  0.34184107815E+03  0.00000000000E+00 0.  1.
         21   -1    0    0  503  502  0.00000000000E+00 -0.00000000000E+00 -0.99531134481E+03  0.99531134481E+03  0.00000000000E+00 0. -1.
         21    1    1    2  503  501  0.23197157693E+02 -0.78469262264E+02  0.92375562809E+02  0.12340493446E+03  0.00000000000E+00 0.  1.
         21    1    1    2  504  502 -0.20848466755E+02  0.12048062125E+03 -0.94924577235E+03  0.95708817514E+03  0.00000000000E+00 0. -1.
         21    1    1    2  505  504  0.10821073598E+02  0.53979505195E+02  0.45591688375E+02  0.71480659369E+02  0.00000000000E+00 0. -1.
          1    1    1    2  501    0 -0.13169764536E+02 -0.95990864178E+02  0.15780825451E+03  0.18517865399E+03  0.00000000000E+00 0.  1.
<scales pt_clust_3="42.06289" pt_clust_4="122.98212" pt_clust_5="55.05345" pt_clust_6="42.06289"></scales>
<clustering>
<clus scale="   42.063">  3  6 -1 -1</clus>
<clus scale="   55.053">  1  5  2 -1</clus>
<clus scale="  122.982">  2  4  1 -1</clus>
<clus scale="  122.982">  2  3  1 -1</clus>
</clustering>
</event>
<event>
 6    0  0.1622933E+002  0.9277651E+02  0.7546771E-02  0.1296264E+00
         21   -1    0    0  503  502  0.00000000000E+00  0.00000000000E+00  0.17674132541E+03  0.17674132541E+03  0.00000000000E+00 0. -1.
          2   -1    0    0  505    0 -0.00000000000E+00 -0.00000000000E+00 -0.14197145181E+04  0.14197145181E+04  0.00000000000E+00 0. -1.
         21    1    1    2  503  501 -0.27949490021E+01  0.48433768400E+02  0.12678382325E+03  0.13574895764E+03  0.00000000000E+00 0. -1.
         21    1    1    2  504  502 -0.73731277009E+02  0.84781985481E+01  0.31260083369E+01  0.74282925280E+02  0.00000000000E+00 0.  1.
         21    1    1    2  505  504 -0.34354577203E+02  0.92833206284E+01 -0.85919844725E+02  0.92998046937E+02  0.00000000000E+00 0.  1.
          2    1    1    2  501    0  0.11088080321E+03 -0.66195287577E+02 -0.12869631796E+04  0.12934259137E+04  0.00000000000E+00 0. -1.
<scales pt_clust_3="48.55238" pt_clust_4="92.77651" pt_clust_5="35.58675" pt_clust_6="14000.00000"></scales>
<clustering>
<clus scale="   35.587">  2  5  1 -1</clus>
<clus scale="   48.552">  1  3  2 -1</clus>
<clus scale="   92.777">  1  4  2 -1</clus>
<clus scale="   48.552">  1  3  2 -1</clus>
</clustering>
</event>
<event>
 6    0  0.1622933E+002  0.6458117E+02  0.7546771E-02  0.1379554E+00
         21   -1    0    0  503  502  0.00000000000E+00  0.00000000000E+00  0.31492264433E+03  0.31492264433E+03  0.00000000000E+00 0.  1.
          1   -1    0    0  505    0 -0.00000000000E+00 -0.00000000000E+00 -0.20452653112E+03  0.20452653112E+03  0.00000000000E+00 0.  1.
         21    1    1    2  503  501 -0.15676718454E+02 -0.62669940686E+02  0.25125323322E+03  0.25942526509E+03  0.00000000000E+00 0.  1.
         21    1    1    2  504  502 -0.64095953727E+02  0.29075939107E+02  0.16113863674E+01  0.70400980711E+02  0.00000000000E+00 0. -1.
         21    1    1    2  505  504  0.41742558858E+02 -0.22695923182E+02 -0.24415802164E+02  0.53419823515E+02  0.00000000000E+00 0. -1.
          1    1    1    2  501    0  0.38030113323E+02  0.56289924762E+02 -0.11805270421E+03  0.13620310613E+03  0.00000000000E+00 0.  1.
<scales pt_clust_3="64.58117" pt_clust_4="60.54440" pt_clust_5="47.51364" pt_clust_6="14000.00000"></scales>
<clustering>
<clus scale="   47.514">  2  5  1 -1</clus>
<clus scale="   60.544">  2  4  1 -1</clus>
<clus scale="   64.581">  1  3  2 -1</clus>
<clus scale="   64.581">  1  3  2 -1</clus>
</clustering>
</event>
<event>
 6    0  0.1622933E+002  0.1271177E+03  0.7546771E-02  0.1231796E+00
          2   -1    0    0  504    0 -0.00000000000E+00  0.00000000000E+00  0.15091679620E+04  0.15091679620E+04  0.00000000000E+00 0.  1.
         21   -1    0    0  503  502  0.00000000000E+00 -0.00000000000E+00 -0.19107343998E+03  0.19107343998E+03  0.00000000000E+00 0. -1.
         21    1    1    2  503  505 -0.23689050135E+02  0.35340827607E+02 -0.16174033511E+03  0.16724258188E+03  0.00000000000E+00 0. -1.
         21    1    1    2  504  502  0.96621867108E+02 -0.90306357184E+02  0.26676865288E+03  0.29775247692E+03  0.00000000000E+00 0.  1.
         21    1    1    2  505  501 -0.18051419747E+02 -0.60296217370E+02  0.12739132652E+03  0.14209165231E+03  0.00000000000E+00 0.  1.
          2    1    1    2  501    0 -0.54881397225E+02  0.11526174695E+03  0.10856748778E+04  0.10931546909E+04  0.00000000000E+00 0.  1.
<scales pt_clust_3="42.54580" pt_clust_4="127.11769" pt_clust_5="56.19548" pt_clust_6="14000.00000"></scales>
<clustering>
<clus scale="   42.546">  2  3  1 -1</clus>
<clus scale="   56.195">  2  5  1 -1</clus>
<clus scale="  127.118">  2  4  1 -1</clus>
<clus scale="   42.546">  2  3  1 -1</clus>
</clustering>
</event>
<event>
 6    0  0.1622933E+002  0.1696908E+03  0.7546771E-02  0.1178171E+00
          1   -1    0    0  503    0 -0.00000000000E+00  0.00000000000E+00  0.79605819336E+03  0.79605819336E+03  0.00000000000E+00 0. -1.
         21   -1    0    0  504  502  0.00000000000E+00 -0.00000000000E+00 -0.46040537168E+03  0.46040537168E+03  0.00000000000E+00 0. -1.
         21    1    1    2  503  505  0.85106843256E+02 -0.11241104222E+03  0.13605464312E+03  0.19593438467E+03  0.00000000000E+00 0.  1.
         21    1    1    2  504  501 -0.73079176987E+02  0.72260836213E+01  0.23910492715E+03  0.25012786447E+03  0.00000000000E+00 0. -1.
         21    1    1    2  505  502  0.83145717186E+02  0.14347905347E+03 -0.40136955836E+03  0.43427752814E+03  0.00000000000E+00 0. -1.
          1    1    1    2  501    0 -0.95173383456E+02 -0.38294094865E+02  0.36186280977E+03  0.37612378775E+03  0.00000000000E+00 0. -1.
<scales pt_clust_3="140.99439" pt_clust_4="35.44160" pt_clust_5="164.43906" pt_clust_6="35.44160"></scales>
<clustering>
<clus scale="   35.442">  4  6 -1 -1</clus>
<clus scale="  140.994">  1  3  2 -1</clus>
<clus scale="  164.439">  2  5  1 -1</clus>
<clus scale="  164.439">  2  3  1 -1</clus>
</clustering>
</event>
<event>
 6    0  0.1622933E+002  0.2059959E+03  0.7546771E-02  0.1144777E+00
         -4   -1    0    0    0  501 -0.00000000000E+00  0.00000000000E+00  0.30949175211E+03  0.30949175211E+03  0.00000000000E+00 0. -1.
         21   -1    0    0  504  502  0.00000000000E+00 -0.00000000000E+00 -0.58230302717E+03  0.58230302717E+03  0.00000000000E+00 0.  1.
         21    1    1    2  503  501 -0.26101647937E+01  0.31900975305E+02 -0.30794798820E+01  0.32155378741E+02  0.00000000000E+00 0. -1.
         21    1    1    2  504  505 -0.19807040093E+03  0.59314913010E+01 -0.41001571106E+03  0.45538988749E+03  0.00000000000E+00 0.  1.
         21    1    1    2  505  503 -0.80951395579E+02 -0.48266264307E+02  0.13466175154E+02  0.95205559657E+02  0.00000000000E+00 0. -1.
         -4    1    1    2    0  502  0.28163196130E+03  0.10433797702E+02  0.12681774073E+03  0.30904395339E+03  0.00000000000E+00 0. -1.
<scales pt_clust_3="32.00758" pt_clust_4="205.99590" pt_clust_5="91.80458" pt_clust_6="14000.00000"></scales>
<clustering>
<clus scale="   32.008">  1  3  2 -1</clus>
<clus scale="   91.805">  1  5  2 -1</clus>
<clus scale="  205.996">  2  4  1 -1</clus>
<clus scale="  205.996">  2  3  1 -1</clus>
</clustering>
</event>
<event>
 6    0  0.1622933E+002  0.9502352E+02  0.7546771E-02  0.1291123E+00
         -2   -1    0    0    0  501 -0.00000000000E+00  0.00000000000E+00  0.15104585180E+03  0.15104585180E+03  0.00000000000E+00 0. -1.
         21   -1    0    0  505  502  0.00000000000E+00 -0.00000000000E+00 -0.18127765715E+03  0.18127765715E+03  0.00000000000E+00 0.  1.
         21    1    1    2  503  501  0.27347341951E+02 -0.26427053910E+02 -0.28584062389E+01  0.38137078761E+02  0.00000000000E+00 0. -1.
         21    1    1    2  504  502  0.85747268685E+02  0.12325106927E+02 -0.59527415864E+02  0.10510954090E+03  0.00000000000E+00 0.  1.
         21    1    1    2  505  503 -0.17231139445E+02  0.63585775293E+02 -0.20549522800E+02  0.69009752017E+02  0.00000000000E+00 0.  1.
         -2    1    1    2    0  504 -0.95863471191E+02 -0.49483828310E+02  0.52703539553E+02  0.12006713728E+03  0.00000000000E+00 0. -1.
<scales pt_clust_3="38.02981" pt_clust_4="95.02352" pt_clust_5="60.05160" pt_clust_6="14000.00000"></scales>
<clustering>
<clus scale="   38.030">  1  3  2 -1</clus>
<clus scale="   60.052">  2  5  1 -1</clus>
<clus scale="   95.024">  2  4  1 -1</clus>
<clus scale="   60.052">  2  3  1 -1</clus>
</clustering>
</event>
<event>
 6    0  0.1622933E+002  0.1522244E+03  0.7546771E-02  0.1197766E+00
         21   -1    0    0  504  502  0.00000000000E+00  0.00000000000E+00  0.95377254245E+03  0.95377254245E+03  0.00000000000E+00 0. -1.
          2   -1    0    0  503    0 -0.00000000000E+00 -0.00000000000E+00 -0.29200772366E+04  0.29200772366E+04  0.00000000000E+00 0.  1.
         21    1    1    2  503  505 -0.16525611950E+03  0.20998137192E+02 -0.45945502408E+03  0.48872223803E+03  0.00000000000E+00 0.  1.
         21    1    1    2  504  501  0.15133701307E+02  0.39631070425E+02 -0.10703333629E+03  0.11513377322E+03  0.00000000000E+00 0.  1.
         21    1    1    2  505  502  0.15080946259E+03 -0.19282083618E+02  0.92872394727E+03  0.94108632069E+03  0.00000000000E+00 0. -1.
          2    1    1    2  501    0 -0.68704439263E+00 -0.41347123999E+02 -0.23285402810E+04  0.23289074471E+04  0.00000000000E+00 0.  1.
<scales pt_clust_3="152.22437" pt_clust_4="35.22023" pt_clust_5="14000.00000" pt_clust_6="41.35283"></scales>
<clustering>
<clus scale="   41.353">  2  6  1 -1</clus>
<clus scale="   35.220">  2  4  1 -1</clus>
<clus scale="  152.224">  2  3  1 -1</clus>
<clus scale="  152.224">  1  3  2 -1</clus>
</clustering>
</event>
<event>
 6    0  0.1622933E+002  0.1052655E+03  0.7546771E-02  0.1269597E+00
         21   -1    0    0  504  502  0.00000000000E+00  0.00000000000E+00  0.21068462593E+03  0.21068462593E+03  0.00000000000E+00 0.  1.
         -3   -1    0    0    0  501 -0.00000000000E+00 -0.00000000000E+00 -0.14653656618E+03  0.14653656618E+03  0.00000000000E+00 0. -1.
         21    1    1    2  503  501  0.12777954318E+01  0.71644028353E+02 -0.32710463095E+02  0.78768483264E+02  0.00000000000E+00 0. -1.
         21    1    1    2  504  503 -0.10042851211E+02  0.50235683654E+02  0.12892844504E+03  0.13873365386E+03  0.00000000000E+00 0.  1.
         21    1    1    2  505  502  0.27848111831E+02 -0.72669634779E+02  0.26107689625E+00  0.77823269737E+02  0.00000000000E+00 0. -1.
         -3    1    1    2    0  505 -0.19083056052E+02 -0.49210077229E+02 -0.32330999093E+02  0.61895785249E+02  0.00000000000E+00 0. -1.
<scales pt_clust_3="86.71433" pt_clust_4="51.22971" pt_clust_5="49.14698" pt_clust_6="49.14698"></scales>
<clustering>
<clus scale="   49.147">  5  6 -1 -1</clus>
<clus scale="   51.230">  1  4  2 -1</clus>
<clus scale="   86.714">  2  3  1 -1</clus>
<clus scale="   51.230">  1  3  2 -1</clus>
</clustering>
</event>
<event>
 6    0  0.1622933E+002  0.1838771E+03  0.7546771E-02  0.1164103E+00
         21   -1    0    0  504  502  0.00000000000E+00  0.00000000000E+00  0.47617139595E+02  0.47617139595E+02  0.00000000000E+00 0. -1.
         -1   -1    0    0    0  501 -0.00000000000E+00 -0.00000000000E+00 -0.11005746190E+04  0.11005746190E+04  0.00000000000E+00 0. -1.
         21    1    1    2  503  502 -0.43243702635E+01  0.31661508786E+02  0.44879091220E+01  0.32269066380E+02  0.00000000000E+00 0. -1.
         21    1    1    2  504  501  0.16471720030E+03 -0.60606162653E+02 -0.59850044191E+03  0.62370477150E+03  0.00000000000E+00 0. -1.
         21    1    1    2  505  503 -0.47787866343E+02  0.32670291421E+02 -0.95146594679E+02  0.11137280903E+03  0.00000000000E+00 0.  1.
         -1    1    1    2    0  505 -0.11260496370E+03 -0.37256375535E+01 -0.36379835197E+03  0.38084511172E+03  0.00000000000E+00 0. -1.
<scales pt_clust_3="31.95546" pt_clust_4="169.48873" pt_clust_5="53.49957" pt_clust_6="53.49957"></scales>
<clustering>
<clus scale="   31.955">  1  3  2 -1</clus>
<clus scale="   53.500">  5  6 -1 -1</clus>
<clus scale="  169.489">  2  4  1 -1</clus>
<clus scale="   31.955">  1  3  2 -1</clus>
</clustering>
</event>
<event>
 6    0  0.1622933E+002  0.7985058E+02  0.7546771E-02  0.1329476E+00
          2   -1    0    0  503    0 -0.00000000000E+00  0.00000000000E+00  0.16404799480E+04  0.16404799480E+04  0.00000000000E+00 0.  1.
         21   -1    0    0  501  502  0.00000000000E+00 -0.00000000000E+00 -0.50722571508E+02  0.50722571508E+02  0.00000000000E+00 0. -1.
         21    1    1    2  503  504  0.25359776460E+02 -0.17106068232E+02  0.68491790816E+03  0.68560066857E+03  0.00000000000E+00 0. -1.
         21    1    1    2  504  505 -0.59993416064E+02 -0.13087282316E+02  0.27488688414E+03  0.28166165164E+03  0.00000000000E+00 0. -1.
         21    1    1    2  505  502 -0.10389229596E+02 -0.77278671151E+02 -0.52387944328E+01  0.78149690170E+02  0.00000000000E+00 0. -1.
          2    1    1    2  501    0  0.45022869200E+02  0.10747202170E+03  0.63519137859E+03  0.64579050909E+03  0.00000000000E+00 0.  1.
<scales pt_clust_3="30.58980" pt_clust_4="55.62282" pt_clust_5="14000.00000" pt_clust_6="79.85058"></scales>
<clustering>
<clus scale="   30.590">  1  3  2 -1</clus>
<clus scale="   55.623">  1  4  2 -1</clus>
<clus scale="   79.851">  1  6  2 -1</clus>
<clus scale="   79.851">  2  3  1 -1</clus>
</clustering>
</event>
<event>
 6    0  0.1622933E+002  0.1018737E+03  0.7546771E-02  0.1276404E+00
          2   -1    0    0  503    0 -0.00000000000E+00  0.00000000000E+00  0.21612417795E+04  0.21612417795E+04  0.00000000000E+00 0. -1.
         21   -1    0    0  504  502  0.00000000000E+00 -0.00000000000E+00 -0.72341566900E+03  0.72341566900E+03  0.00000000000E+00 0. -1.
         21    1    1    2  503  505 -0.33398487519E+02  0.87836275116E+01  0.20316017232E+03  0.20607442029E+03  0.00000000000E+00 0. -1.
         21    1    1    2  504  501 -0.63555300829E+02 -0.79647022129E+02 -0.70999549713E+03  0.71727019341E+03  0.00000000000E+00 0. -1.
         21    1    1    2  505  502 -0.35025850803E+02  0.60030480344E+02  0.20190289066E+03  0.21353043355E+03  0.00000000000E+00 0. -1.
          2    1    1    2  501    0  0.13197963915E+03  0.10832914274E+02  0.17427585446E+04  0.17477824012E+04  0.00000000000E+00 0. -1.
<scales pt_clust_3="34.53420" pt_clust_4="101.87373" pt_clust_5="72.14041" pt_clust_6="14000.00000"></scales>
<clustering>
<clus scale="   34.534">  1  3  2 -1</clus>
<clus scale="   72.140">  1  5  2 -1</clus>
<clus scale="  101.874">  2  4  1 -1</clus>
<clus scale="  101.874">  2  3  1 -1</clus>
</clustering>
</event>
<event>
 6    0  0.1622933E+002  0.1999649E+03  0.7546771E-02  0.1149769E+00
          1   -1    0    0  503    0 -0.00000000000E+00  0.00000000000E+00  0.73317195057E+03  0.73317195057E+03  0.00000000000E+00 0.  1.
         21   -1    0    0  501  502  0.00000000000E+00 -0.00000000000E+00 -0.39476636938E+03  0.39476636938E+03  0.00000000000E+00 0.  1.
         21    1    1    2  503  504 -0.80342648352E+00  0.53059192297E+02  0.87921148208E+02  0.10269397102E+03  0.00000000000E+00 0.  1.
         21    1    1    2  504  505 -0.15550781581E+03  0.75353184000E+02  0.57899536009E+03  0.60423208300E+03  0.00000000000E+00 0.  1.
         21    1    1    2  505  502 -0.34096470599E+02 -0.41643313104E+02 -0.74672217006E+02  0.92047133721E+02  0.00000000000E+00 0.  1.
          1    1    1    2  501    0  0.19040771289E+03 -0.86769063192E+02 -0.25383871011E+03  0.32896513220E+03  0.00000000000E+00 0.  1.
<scales pt_clust_3="53.06527" pt_clust_4="14000.00000" pt_clust_5="53.27116" pt_clust_6="199.96485"></scales>
<clustering>
<clus scale="   53.065">  1  3  2 -1</clus>
<clus scale="   53.271">  2  5  1 -1</clus>
<clus scale="  199.965">  2  6  1 -1</clus>
<clus scale="   53.271">  2  3  1 -1</clus>
</clustering>
</event>
<event>
 6    0  0.1622933E+002  0.8288847E+02  0.7546771E-02  0.1321049E+00
          1   -1    0    0  503    0 -0.00000000000E+00  0.00000000000E+00  0.12220854975E+04  0.12220854975E+04  0.00000000000E+00 0.  1.
         21   -1    0    0  501  502  0.00000000000E+00 -0.00000000000E+00 -0.82517113398E+02  0.82517113398E+02  0.00000000000E+00 0.  1.
         21    1    1    2  503  505  0.81884343204E+02 -0.21737275244E+02  0.62485352595E+03  0.63057076026E+03  0.00000000000E+00 0.  1.
         21    1    1    2  504  502  0.34362554588E+02  0.14614901872E+01 -0.67214907418E+02  0.75503409794E+02  0.00000000000E+00 0.  1.
         21    1    1    2  505  504 -0.83920011698E+02 -0.21174810403E+02  0.32899188469E+03  0.34018612722E+03  0.00000000000E+00 0.  1.
          1    1    1    2  501    0 -0.32326886095E+02  0.41450595460E+02  0.25293788087E+03  0.25834231363E+03  0.00000000000E+00 0.  1.
<scales pt_clust_3="82.88847" pt_clust_4="34.39362" pt_clust_5="14000.00000" pt_clust_6="48.20643"></scales>
<clustering>
<clus scale="   34.394">  2  4  1 -1</clus>
<clus scale="   48.206">  2  6  1 -1</clus>
<clus scale="   82.888">  1  3  2 -1</clus>
<clus scale="   34.394">  2  3  1 -1</clus>
</clustering>
</event>
<event>
 6    0  0.1622933E+002  0.3739564E+03  0.7546771E-02  0.1053190E+00
          1   -1    0    0  503    0 -0.00000000000E+00  0.00000000000E+00  0.19195726569E+03  0.19195726569E+03  0.00000000000E+00 0. -1.
         21   -1    0    0  505  502  0.00000000000E+00 -0.00000000000E+00 -0.85061217986E+03  0.85061217986E+03  0.00000000000E+00 0.  1.
         21    1    1    2  503  502 -0.28707924210E+02  0.28109505190E+02 -0.18054764025E+02  0.44048424472E+02  0.00000000000E+00 0.  1.
         21    1    1    2  504  501  0.40036470821E+02  0.10889564255E+02 -0.14020902076E+02  0.43795973565E+02  0.00000000000E+00 0.  1.
         21    1    1    2  505  504  0.25378352485E+03  0.19747994954E+03 -0.46276121029E+03  0.56351783087E+03  0.00000000000E+00 0.  1.
          1    1    1    2  501    0 -0.26511207146E+03 -0.23647901899E+03 -0.16381803778E+03  0.39120721665E+03  0.00000000000E+00 0. -1.
<scales pt_clust_3="40.17822" pt_clust_4="38.95481" pt_clust_5="38.95481" pt_clust_6="357.88620"></scales>
<clustering>
<clus scale="   38.955">  4  5 -1 -1</clus>
<clus scale="   40.178">  1  3  2 -1</clus>
<clus scale="  357.886">  1  6  2 -1</clus>
<clus scale="  373.956">  2  3  1 -1</clus>
</clustering>
</event>
<event>
 6    0  0.1622933E+002  0.1315418E+03  0.7546771E-02  0.1225186E+00
         21   -1    0    0  501  502  0.00000000000E+00  0.00000000000E+00  0.29902802263E+03  0.29902802263E+03  0.00000000000E+00 0.  1.
          2   -1    0    0  503    0 -0.00000000000E+00 -0.00000000000E+00 -0.57947399835E+03  0.57947399835E+03  0.00000000000E+00 0.  1.
         21    1    1    2  503  504 -0.31284207882E+02 -0.15708442030E+02 -0.10583893004E+03  0.11147796162E+03  0.00000000000E+00 0.  1.
         21    1    1    2  504  505  0.65132141456E+02 -0.66402395414E+02 -0.23383531183E+02  0.95907577896E+02  0.00000000000E+00 0.  1.
         21    1    1    2  505  502  0.74628958414E+01 -0.65641887227E+02  0.24103387795E+03  0.24992375336E+03  0.00000000000E+00 0.  1.
          2    1    1    2  501    0 -0.41310829416E+02  0.14775272467E+03 -0.39225739245E+03  0.42119272810E+03  0.00000000000E+00 0.  1.
<scales pt_clust_3="35.00653" pt_clust_4="131.54180" pt_clust_5="66.17947" pt_clust_6="14000.00000"></scales>
<clustering>
<clus scale="   35.007">  2  3  1 -1</clus>
<clus scale="   66.179">  1  5  2 -1</clus>
<clus scale="  131.542">  1  4  2 -1</clus>
<clus scale="   66.179">  1  3  2 -1</clus>
</clustering>
</event>
<event>
 6    0  0.1622933E+002  0.1272650E+03  0.7546771E-02  0.1231571E+00
         21   -1    0    0  504  502  0.00000000000E+00  0.00000000000E+00  0.12901515509E+04  0.12901515509E+04  0.00000000000E+00 0.  1.
          4   -1    0    0  503    0 -0.00000000000E+00 -0.00000000000E+00 -0.16067485662E+03  0.16067485662E+03  0.00000000000E+00 0.  1.
         21    1    1    2  503  505  0.19127896067E+02 -0.24393967547E+02 -0.94863315801E+00  0.31013577115E+02  0.00000000000E+00 0.  1.
         21    1    1    2  504  501 -0.29552307450E+02  0.80038702071E+02  0.47990964454E+02  0.97891089350E+02  0.00000000000E+00 0. -1.
         21    1    1    2  505  502 -0.24179376896E+02 -0.13326795356E+03  0.11827303525E+04  0.11904604472E+04  0.00000000000E+00 0.  1.
          4    1    1    2  501    0  0.34603788279E+02  0.77623219031E+02 -0.10029598944E+03  0.13146129390E+03  0.00000000000E+00 0.  1.
<scales pt_clust_3="30.99907" pt_clust_4="14000.00000" pt_clust_5="127.26497" pt_clust_6="76.59226"></scales>
<clustering>
<clus scale="   30.999">  2  3  1 -1</clus>
<clus scale="   76.592">  2  6  1 -1</clus>
<clus scale="  127.265">  1  5  2 -1</clus>
<clus scale="  127.265">  1  3  2 -1</clus>
</clustering>
</event>
<event>
 6    0  0.1622933E+002  0.1428489E+03  0.7546771E-02  0.1209546E+00
          2   -1    0    0  503    0 -0.00000000000E+00  0.00000000000E+00  0.47495780699E+03  0.47495780699E+03  0.00000000000E+00 0.  1.
         21   -1    0    0  501  502  0.00000000000E+00 -0.00000000000E+00 -0.35686554514E+03  0.35686554514E+03  0.00000000000E+00 0.  1.
         21    1    1    2  503  504  0.46333395080E+02  0.14214625382E+03  0.39662233477E+03  0.42386509341E+03  0.00000000000E+00 0.  1.
         21    1    1    2  504  505 -0.35275151181E+02 -0.10100934131E+03 -0.34410913010E+02  0.11238920881E+03  0.00000000000E+00 0. -1.
         21    1    1    2  505  502 -0.21703819158E+02  0.58413396323E+02 -0.62952111610E+02  0.88578490573E+02  0.00000000000E+00 0. -1.
          2    1    1    2  501    0  0.10645575259E+02 -0.99550308836E+02 -0.18116704830E+03  0.20699055933E+03  0.00000000000E+00 0.  1.
<scales pt_clust_3="14000.00000" pt_clust_4="142.84889" pt_clust_5="62.31517" pt_clust_6="59.37897"></scales>
<clustering>
<clus scale="   62.315">  2  5  1 -1</clus>
<clus scale="   59.379">  2  6  1 -1</clus>
<clus scale="  142.849">  2  4  1 -1</clus>
<clus scale="   62.315">  2  3  1 -1</clus>
</clustering>
</event>
<event>
 6    0  0.1622933E+002  0.7186996E+02  0.7546771E-02  0.1353847E+00
         21   -1    0    0  504  502  0.00000000000E+00  0.00000000000E+00  0.12185587505E+03  0.12185587505E+03  0.00000000000E+00 0.  1.
          2   -1    0    0  503    0 -0.00000000000E+00 -0.00000000000E+00 -0.40785512912E+04  0.40785512912E+04  0.00000000000E+00 0.  1.
         21    1    1    2  503  505 -0.31952937699E+02 -0.11160093102E+02 -0.14351205844E+03  0.14744913978E+03  0.00000000000E+00 0. -1.
         21    1    1    2  504  501 -0.33076874199E+02 -0.63792116960E+02  0.10703177195E+03  0.12891591834E+03  0.00000000000E+00 0.  1.
         21    1    1    2  505  502 -0.34758809115E+02  0.41778178362E+02 -0.69842900997E+03  0.70054027219E+03  0.00000000000E+00 0.  1.
          2    1    1    2  501    0  0.99788621014E+02  0.33174031701E+02 -0.32217861197E+04  0.32235018359E+04  0.00000000000E+00 0.  1.
<scales pt_clust_3="33.84580" pt_clust_4="71.86996" pt_clust_5="56.73652" pt_clust_6="14000.00000"></scales>
<clustering>
<clus scale="   33.846">  2  3  1 -1</clus>
<clus scale="   56.737">  2  5  1 -1</clus>
<clus scale="   71.870">  1  4  2 -1</clus>
<clus scale="   71.870">  1  3  2 -1</clus>
</clustering>
</event>
<event>
 6    0  0.1622933E+002  0.1833795E+03  0.7546771E-02  0.1164572E+00
         21   -1    0    0  503  502  0.00000000000E+00  0.00000000000E+00  0.10209162548E+04  0.10209162548E+04  0.00000000000E+00 0.  1.
         -3   -1    0    0    0  501 -0.00000000000E+00 -0.00000000000E+00 -0.58070874435E+02  0.58070874435E+02  0.00000000000E+00 0. -1.
         21    1    1    2  503  501 -0.13515803039E+03 -0.13869668108E+03  0.69723235345E+03  0.72362795497E+03  0.00000000000E+00 0.  1.
         21    1    1    2  504  502 -0.83156300273E+01  0.46783504490E+02  0.10254612357E+03  0.11302014623E+03  0.00000000000E+00 0. -1.
         21    1    1    2  505  504  0.75369305501E+02  0.60029062730E+02  0.12566379199E+03  0.15835216829E+03  0.00000000000E+00 0. -1.
         -3    1    1    2    0  505  0.68104354912E+02  0.31884113861E+02  0.37403111398E+02  0.83986859787E+02  0.00000000000E+00 0. -1.
<scales pt_clust_3="174.70943" pt_clust_4="47.51680" pt_clust_5="48.57906" pt_clust_6="48.57906"></scales>
<clustering>
<clus scale="   47.517">  1  4  2 -1</clus>
<clus scale="   48.579">  5  6 -1 -1</clus>
<clus scale="  174.709">  1  3  2 -1</clus>
<clus scale="   47.517">  1  3  2 -1</clus>
</clustering>
</event>
<event>
 6    0  0.1622933E+002  0.8625101E+02  0.7546771E-02  0.1312193E+00
          2   -1    0    0  503    0 -0.00000000000E+00  0.00000000000E+00  0.20546504528E+04  0.20546504528E+04  0.00000000000E+00 0.  1.
         21   -1    0    0  505  502  0.00000000000E+00 -0.00000000000E+00 -0.80763879919E+03  0.80763879919E+03  0.00000000000E+00 0.  1.
         21    1    1    2  503  504  0.35190516578E+02  0.26863302718E+02  0.17759647998E+03  0.18303147049E+03  0.00000000000E+00 0.  1.
         21    1    1    2  504  502 -0.44148084024E+02  0.19897066500E+02  0.40903881200E+03  0.41189524919E+03  0.00000000000E+00 0.  1.
         21    1    1    2  505  501 -0.72535920563E+02  0.46570497318E+02 -0.79854768797E+03  0.80318657917E+03  0.00000000000E+00 0.  1.
          2    1    1    2  501    0  0.81493488009E+02 -0.93330866536E+02  0.14589240496E+04  0.14641759532E+04  0.00000000000E+00 0.  1.
<scales pt_clust_3="44.27199" pt_clust_4="44.63850" pt_clust_5="14000.00000" pt_clust_6="86.25101"></scales>
<clustering>
<clus scale="   44.272">  1  3  2 -1</clus>
<clus scale="   44.639">  1  4  2 -1</clus>
<clus scale="   86.251">  1  6  2 -1</clus>
<clus scale="   86.251">  2  3  1 -1</clus>
</clustering>
</event>
<event>
 6    0  0.1622933E+002  0.6734137E+02  0.7546771E-02  0.1369375E+00
          2   -1    0    0  504    0 -0.00000000000E+00  0.00000000000E+00  0.18228321516E+04  0.18228321516E+04  0.00000000000E+00 0. -1.
         21   -1    0    0  503  502  0.00000000000E+00 -0.00000000000E+00 -0.34875448351E+02  0.34875448351E+02  0.00000000000E+00 0. -1.
         21    1    1    2  503  505  0.51065342353E+02  0.36959973600E+02  0.15978242325E+02  0.65030862412E+02  0.00000000000E+00 0. -1.
         21    1    1    2  504  502 -0.99747054941E+02 -0.36609682680E+02  0.32653216735E+03  0.34338462422E+03  0.00000000000E+00 0. -1.
         21    1    1    2  505  501  0.49140072623E+02  0.32330454699E+02  0.52847085886E+03  0.53173438266E+03  0.00000000000E+00 0. -1.
          2    1    1    2  501    0 -0.45836003585E+00 -0.32680745618E+02  0.91697543469E+03  0.91755773064E+03  0.00000000000E+00 0. -1.
<scales pt_clust_3="14000.00000" pt_clust_4="67.34137" pt_clust_5="50.62293" pt_clust_6="32.68396"></scales>
<clustering>
<clus scale="   32.684">  1  6  2 -1</clus>
<clus scale="   50.623">  1  5  2 -1</clus>
<clus scale="   67.341">  1  4  2 -1</clus>
<clus scale="   67.341">  2  3  1 -1</clus>
</clustering>
</event>
<event>
 6    0  0.1622933E+002  0.3580463E+03  0.7546771E-02  0.1059360E+00
          1   -1    0    0  505    0 -0.00000000000E+00  0.00000000000E+00  0.46791684051E+03  0.46791684051E+03  0.00000000000E+00 0. -1.
         21   -1    0    0  504  502  0.00000000000E+00 -0.00000000000E+00 -0.11505570678E+04  0.11505570678E+04  0.00000000000E+00 0.  1.
         21    1    1    2  503  501 -0.83299721827E+02  0.11522819001E+03  0.31955895439E+02  0.14573111776E+03  0.00000000000E+00 0. -1.
         21    1    1    2  504  503  0.28188947444E+03 -0.16226600698E+03 -0.10058620379E+04  0.10571425505E+04  0.00000000000E+00 0.  1.
         21    1    1    2  505  502  0.23591365560E+02 -0.42794399649E+02  0.90977985965E+02  0.10327103708E+03  0.00000000000E+00 0.  1.
          1    1    1    2  501    0 -0.22218111817E+03  0.89832216620E+02  0.20028792922E+03  0.31232920293E+03  0.00000000000E+00 0. -1.
<scales pt_clust_3="111.74359" pt_clust_4="328.15154" pt_clust_5="48.86628" pt_clust_6="111.74359"></scales>
<clustering>
<clus scale="   48.866">  1  5  2 -1</clus>
<clus scale="  111.744">  3  6 -1 -1</clus>
<clus scale="  328.152">  2  4  1 -1</clus>
<clus scale="  328.152">  2  3  1 -1</clus>
</clustering>
</event>
<event>
 6    0  0.1622933E+002  0.1297543E+03  0.7546771E-02  0.1227821E+00
         21   -1    0    0  504  502  0.00000000000E+00  0.00000000000E+00  0.50528537730E+03  0.50528537730E+03  0.00000000000E+00 0.  1.
          2   -1    0    0  505    0 -0.00000000000E+00 -0.00000000000E+00 -0.89024978489E+02  0.89024978489E+02  0.00000000000E+00 0.  1.
         21    1    1    2  503  502 -0.98621199062E+02 -0.62320264767E+02  0.29190739805E+03  0.31435630317E+03  0.00000000000E+00 0.  1.
         21    1    1    2  504  501 -0.30078593292E+02  0.39310253473E+02  0.54294592429E+02  0.73470542189E+02  0.00000000000E+00 0. -1.
         21    1    1    2  505  503 -0.22713438423E+02  0.24425705677E+02 -0.10499701428E+02  0.34967972673E+02  0.00000000000E+00 0.  1.
          2    1    1    2  501    0  0.15141323078E+03 -0.14156943821E+01  0.80558109761E+02  0.17151553776E+03  0.00000000000E+00 0.  1.
<scales pt_clust_3="14000.00000" pt_clust_4="54.30162" pt_clust_5="33.35439" pt_clust_6="129.75426"></scales>
<clustering>
<clus scale="   33.354">  2  5  1 -1</clus>
<clus scale="   54.302">  1  4  2 -1</clus>
<clus scale="  129.754">  2  6  1 -1</clus>
<clus scale="   54.302">  1  3  2 -1</clus>
</clustering>
</event>
<event>
 6    0  0.1622933E+002  0.1277577E+03  0.7546771E-02  0.1230821E+00
         21   -1    0    0  504  502  0.00000000000E+00  0.00000000000E+00  0.68491470115E+03  0.68491470115E+03  0.00000000000E+00 0.  1.
          2   -1    0    0  503    0 -0.00000000000E+00 -0.00000000000E+00 -0.22045006964E+04  0.22045006964E+04  0.00000000000E+00 0. -1.
         21    1    1    2  503  502 -0.95823749725E+02  0.14904449393E+03 -0.53830438895E+03  0.56671691993E+03  0.00000000000E+00 0. -1.
         21    1    1    2  504  505 -0.13259900127E+02 -0.35125639678E+02  0.66358255023E+03  0.66464384183E+03  0.00000000000E+00 0.  1.
         21    1    1    2  505  501  0.64875822052E+01 -0.48819048044E+02 -0.14221431996E+03  0.15050016936E+03  0.00000000000E+00 0. -1.
          2    1    1    2  501    0  0.10259606765E+03 -0.65099806206E+02 -0.15026498366E+04  0.15075544664E+04  0.00000000000E+00 0. -1.
<scales pt_clust_3="14000.00000" pt_clust_4="37.54511" pt_clust_5="55.94723" pt_clust_6="127.75765"></scales>
<clustering>
<clus scale="   37.545">  1  4  2 -1</clus>
<clus scale="   55.947">  1  5  2 -1</clus>
<clus scale="  127.758">  2  6  1 -1</clus>
<clus scale="   37.545">  1  3  2 -1</clus>
</clustering>
</event>
<event>
 6    0  0.1622933E+002  0.1835694E+03  0.7546771E-02  0.1164393E+00
         21   -1    0    0  501  502  0.00000000000E+00  0.00000000000E+00  0.32869328781E+03  0.32869328781E+03  0.00000000000E+00 0. -1.
          1   -1    0    0  504    0 -0.00000000000E+00 -0.00000000000E+00 -0.65670188701E+03  0.65670188701E+03  0.00000000000E+00 0. -1.
         21    1    1    2  503  505 -0.47014296457E+01  0.11703948320E+03 -0.98570266579E+02  0.15308965191E+03  0.00000000000E+00 0. -1.
         21    1    1    2  504  503  0.52177846731E+02 -0.84112533100E+02 -0.37341789213E+02  0.10579156458E+03  0.00000000000E+00 0.  1.
         21    1    1    2  505  502 -0.10368868930E+03 -0.15630725778E+03  0.22208974735E+03  0.29070115067E+03  0.00000000000E+00 0. -1.
          1    1    1    2  501    0  0.56212272210E+02  0.12338030768E+03 -0.41418629076E+03  0.43581280767E+03  0.00000000000E+00 0. -1.
<scales pt_clust_3="99.16608" pt_clust_4="98.98205" pt_clust_5="183.56943" pt_clust_6="14000.00000"></scales>
<clustering>
<clus scale="   98.982">  2  4  1 -1</clus>
<clus scale="   99.166">  2  3  1 -1</clus>
<clus scale="  183.569">  1  5  2 -1</clus>
<clus scale="  183.569">  1  3  2 -1</clus>
</clustering>
</event>
<event>
 6    0  0.1622933E+002  0.1439539E+03  0.7546771E-02  0.1208106E+00
         21   -1    0    0  501  502  0.00000000000E+00  0.00000000000E+00  0.26451182650E+03  0.26451182650E+03  0.00000000000E+00 0. -1.
          3   -1    0    0  505    0 -0.00000000000E+00 -0.00000000000E+00 -0.10564803641E+04  0.10564803641E+04  0.00000000000E+00 0.  1.
         21    1    1    2  503  502  0.72122291415E+02 -0.12763318840E+03  0.23221917599E+03  0.27462265273E+03  0.00000000000E+00 0. -1.
         21    1    1    2  504  503 -0.56004335666E+02  0.49098242620E+01 -0.41669427075E+03  0.42046962704E+03  0.00000000000E+00 0.  1.
         21    1    1    2  505  504 -0.22665967241E+02  0.32236661952E+02 -0.66083412698E+02  0.76941314510E+02  0.00000000000E+00 0. -1.
          3    1    1    2  501    0  0.65480114920E+01  0.90486702181E+02 -0.54141003011E+03  0.54895859628E+03  0.00000000000E+00 0.  1.
<scales pt_clust_3="143.95390" pt_clust_4="68.22380" pt_clust_5="39.40747" pt_clust_6="14000.00000"></scales>
<clustering>
<clus scale="   39.407">  2  5  1 -1</clus>
<clus scale="   68.224">  2  4  1 -1</clus>
<clus scale="  143.954">  1  3  2 -1</clus>
<clus scale="  143.954">  1  3  2 -1</clus>
</clustering>
</event>
<event>
 6    0  0.1622933E+002  0.1062581E+03  0.7546771E-02  0.1267661E+00
         21   -1    0    0  503  502  0.00000000000E+00  0.00000000000E+00  0.43682078210E+03  0.43682078210E+03  0.00000000000E+00 0.  1.
         -1   -1    0    0    0  501 -0.00000000000E+00 -0.00000000000E+00 -0.30711159610E+03  0.30711159610E+03  0.00000000000E+00 0.  1.
         21    1    1    2  503  501  0.58044883773E+02  0.35929159536E+02 -0.97429421316E+02  0.11896472240E+03  0.00000000000E+00 0.  1.
         21    1    1    2  504  502  0.37955353983E+02  0.85113753929E+02  0.38667586585E+03  0.39774764013E+03  0.00000000000E+00 0.  1.
         21    1    1    2  505  504 -0.56318356343E+02 -0.51600118857E+02 -0.48878553967E+02  0.90683198914E+02  0.00000000000E+00 0.  1.
         -1    1    1    2    0  505 -0.39681881413E+02 -0.69442794607E+02 -0.11065870456E+03  0.13653681676E+03  0.00000000000E+00 0.  1.
<scales pt_clust_3="68.26502" pt_clust_4="94.77031" pt_clust_5="46.96246" pt_clust_6="46.96246"></scales>
<clustering>
<clus scale="   46.962">  5  6 -1 -1</clus>
<clus scale="   68.265">  2  3  1 -1</clus>
<clus scale="   94.770">  1  4  2 -1</clus>
<clus scale="   94.770">  1  3  2 -1</clus>
</clustering>
</event>
<event>
 6    0  0.1622933E+002  0.8244979E+02  0.7546771E-02  0.1322240E+00
         21   -1    0    0  501  502  0.00000000000E+00  0.00000000000E+00  0.61327531470E+03  0.61327531470E+03  0.00000000000E+00 0.  1.
          1   -1    0    0  503    0 -0.00000000000E+00 -0.00000000000E+00 -0.23395068006E+03  0.23395068006E+03  0.00000000000E+00 0. -1.
         21    1    1    2  503  505 -0.33488477728E+02  0.77030954199E+01 -0.20267189685E+01  0.34422716473E+02  0.00000000000E+00 0. -1.
         21    1    1    2  504  502  0.24342184585E+00 -0.82477530125E+02  0.56724672006E+03  0.57321151737E+03  0.00000000000E+00 0.  1.
         21    1    1    2  505  504  0.52146207396E+02 -0.59648466803E+01 -0.24036900205E+02  0.57728493079E+02  0.00000000000E+00 0.  1.
          1    1    1    2  501    0 -0.18901151514E+02  0.80739281386E+02 -0.16185846625E+03  0.18186326782E+03  0.00000000000E+00 0. -1.
<scales pt_clust_3="34.36300" pt_clust_4="82.44979" pt_clust_5="46.02076" pt_clust_6="14000.00000"></scales>
<clustering>
<clus scale="   34.363">  2  3  1 -1</clus>
<clus scale="   46.021">  2  5  1 -1</clus>
<clus scale="   82.450">  1  4  2 -1</clus>
<clus scale="   82.450">  1  3  2 -1</clus>
</clustering>
</event>
<event>
 6    0  0.1622933E+002  0.1506233E+03  0.7546771E-02  0.1199709E+00
          2   -1    0    0  503    0 -0.00000000000E+00  0.00000000000E+00  0.18460872610E+04  0.18460872610E+04  0.00000000000E+00 0. -1.
         21   -1    0    0  505  502  0.00000000000E+00 -0.00000000000E+00 -0.23285087574E+02  0.23285087574E+02  0.00000000000E+00 0. -1.
         21    1    1    2  503  504  0.17848710986E+01  0.30394890740E+02  0.77842351100E+03  0.77901874023E+03  0.00000000000E+00 0.  1.
         21    1    1    2  504  502 -0.92643935304E+02  0.10043483671E+03  0.33270270987E+03  0.35966810858E+03  0.00000000000E+00 0. -1.
         21    1    1    2  505  501  0.44594308459E+02 -0.79779296789E+02  0.31185905810E+03  0.32497609244E+03  0.00000000000E+00 0. -1.
          2    1    1    2  501    0  0.46264755746E+02 -0.51050430664E+02  0.39981689444E+03  0.40570940730E+03  0.00000000000E+00 0. -1.
<scales pt_clust_3="30.44725" pt_clust_4="143.66808" pt_clust_5="38.70651" pt_clust_6="38.70651"></scales>
<clustering>
<clus scale="   30.447">  1  3  2 -1</clus>
<clus scale="   38.707">  5  6 -1 -1</clus>
<clus scale="  143.668">  2  4  1 -1</clus>
<clus scale="  143.668">  2  3  1 -1</clus>
</clustering>
</event>
<event>
 6    0  0.1622933E+002  0.2445292E+03  0.7546771E-02  0.1116812E+00
          1   -1    0    0  504    0 -0.00000000000E+00  0.00000000000E+00  0.15091257180E+04  0.15091257180E+04  0.00000000000E+00 0. -1.
         21   -1    0    0  505  502  0.00000000000E+00 -0.00000000000E+00 -0.92265331165E+03  0.92265331165E+03  0.00000000000E+00 0. -1.
         21    1    1    2  503  501  0.69472107871E+02 -0.13353079290E+03  0.45658618063E+03  0.48075751348E+03  0.00000000000E+00 0. -1.
         21    1    1    2  504  502  0.10003948291E+02  0.30983767141E+02  0.17269872437E+02  0.36855410751E+02  0.00000000000E+00 0.  1.
         21    1    1    2  505  503 -0.11480687065E+02  0.24822846229E+03 -0.87702605135E+03  0.91155025665E+03  0.00000000000E+00 0. -1.
          1    1    1    2  501    0 -0.67995369096E+02 -0.14568143653E+03  0.98964240461E+03  0.10026158488E+04  0.00000000000E+00 0. -1.
<scales pt_clust_3="14000.00000" pt_clust_4="32.55876" pt_clust_5="244.52919" pt_clust_6="139.08036"></scales>
<clustering>
<clus scale="   32.559">  1  4  2 -1</clus>
<clus scale="  139.080">  1  6  2 -1</clus>
<clus scale="  244.529">  2  5  1 -1</clus>
<clus scale="  244.529">  2  3  1 -1</clus>
</clustering>
</event>
<event>
 6    0  0.1622933E+002  0.5072195E+03  0.7546771E-02  0.1011912E+00
          2   -1    0    0  503    0 -0.00000000000E+00  0.00000000000E+00  0.10656308371E+04  0.10656308371E+04  0.00000000000E+00 0. -1.
         21   -1    0    0  504  502  0.00000000000E+00 -0.00000000000E+00 -0.10887715287E+04  0.10887715287E+04  0.00000000000E+00 0. -1.
         21    1    1    2  503  502  0.82967371892E+02  0.23406410975E+02  0.47278978612E+03  0.48058467176E+03  0.00000000000E+00 0. -1.
         21    1    1    2  504  505 -0.20438738243E+03 -0.44927858990E+03 -0.92067657736E+03  0.10446390829E+04  0.00000000000E+00 0. -1.
         21    1    1    2  505  501  0.83087726703E+02  0.97832804598E+02  0.77431973319E+02  0.14990176275E+03  0.00000000000E+00 0.  1.
          2    1    1    2  501    0  0.38332283837E+02  0.32803937433E+03  0.34731412633E+03  0.47927684843E+03  0.00000000000E+00 0. -1.
<scales pt_clust_3="86.20583" pt_clust_4="487.77563" pt_clust_5="87.77528" pt_clust_6="87.77528"></scales>
<clustering>
<clus scale="   86.206">  1  3  2 -1</clus>
<clus scale="   87.775">  5  6 -1 -1</clus>
<clus scale="  487.776">  2  4  1 -1</clus>
<clus scale="  487.776">  2  3  1 -1</clus>
</clustering>
</event>
<event>
 6    0  0.1622933E+002  0.1532521E+03  0.7546771E-02  0.1196533E+00
          2   -1    0    0  505    0 -0.00000000000E+00  0.00000000000E+00  0.69928676906E+03  0.69928676906E+03  0.00000000000E+00 0. -1.
         21   -1    0    0  503  502  0.00000000000E+00 -0.00000000000E+00 -0.11697128633E+03  0.11697128633E+03  0.00000000000E+00 0.  1.
         21    1    1    2  503  504  0.12978469097E+03 -0.57264060511E+01 -0.28187976056E+02  0.13293389233E+03  0.00000000000E+00 0.  1.
         21    1    1    2  504  501 -0.23870469541E+02 -0.36661413848E+02  0.10045980443E+03  0.10957203515E+03  0.00000000000E+00 0. -1.
         21    1    1    2  505  502  0.59391938287E+02  0.62594912759E+02  0.10564827844E+03  0.13640778634E+03  0.00000000000E+00 0.  1.
          2    1    1    2  501    0 -0.16530615971E+03 -0.20207092859E+02  0.40439537591E+03  0.43734434156E+03  0.00000000000E+00 0. -1.
<scales pt_clust_3="135.16384" pt_clust_4="37.01952" pt_clust_5="86.28746" pt_clust_6="37.01952"></scales>
<clustering>
<clus scale="   37.020">  4  6 -1 -1</clus>
<clus scale="   86.287">  1  5  2 -1</clus>
<clus scale="  135.164">  2  3  1 -1</clus>
<clus scale="  135.164">  2  3  1 -1</clus>
</clustering>
</event>
<event>
 6    0  0.1622933E+002  0.6960211E+02  0.7546771E-02  0.1361451E+00
         21   -1    0    0  501  502  0.00000000000E+00  0.00000000000E+00  0.10450402746E+03  0.10450402746E+03  0.00000000000E+00 0. -1.
          2   -1    0    0  505    0 -0.00000000000E+00 -0.00000000000E+00 -0.13694776929E+04  0.13694776929E+04  0.00000000000E+00 0.  1.
         21    1    1    2  503  502 -0.66781415809E+02  0.20320796134E+02  0.77377369051E+02  0.10421108144E+03  0.00000000000E+00 0. -1.
         21    1    1    2  504  503 -0.11146952935E+02 -0.10511041245E+03 -0.93113051644E+03  0.93711071491E+03  0.00000000000E+00 0.  1.
         21    1    1    2  505  504 -0.66735133371E+00  0.47513631214E+02 -0.14640871076E+03  0.15392693428E+03  0.00000000000E+00 0. -1.
          2    1    1    2  501    0  0.78595720078E+02  0.37275985106E+02 -0.26481180728E+03  0.27873298972E+03  0.00000000000E+00 0.  1.
<scales pt_clust_3="69.60211" pt_clust_4="69.69196" pt_clust_5="47.51832" pt_clust_6="14000.00000"></scales>
<clustering>
<clus scale="   47.518">  2  5  1 -1</clus>
<clus scale="   69.692">  2  4  1 -1</clus>
<clus scale="   69.602">  1  3  2 -1</clus>
<clus scale="   69.602">  1  3  2 -1</clus>
</clustering>
</event>
<event>
 6    0  0.1622933E+002  0.1085832E+03  0.7546771E-02  0.1263216E+00
          2   -1    0    0  504    0 -0.00000000000E+00  0.00000000000E+00  0.20796145991E+04  0.20796145991E+04  0.00000000000E+00 0.  1.
         21   -1    0    0  503  502  0.00000000000E+00 -0.00000000000E+00 -0.11421179312E+03  0.11421179312E+03  0.00000000000E+00 0.  1.
         21    1    1    2  503  505 -0.43575153516E+02  0.49088256226E+02 -0.93856364009E+02  0.11453151517E+03  0.00000000000E+00 0.  1.
         21    1    1    2  504  502 -0.65017815912E+01  0.29361244568E+02  0.33386228889E+03  0.33521393734E+03  0.00000000000E+00 0. -1.
         21    1    1    2  505  501 -0.37950461506E+02  0.50363534133E+02  0.17803567699E+03  0.18887409928E+03  0.00000000000E+00 0. -1.
          2    1    1    2  501    0  0.88027396613E+02 -0.12881303493E+03  0.15473612041E+04  0.15552068404E+04  0.00000000000E+00 0.  1.
<scales pt_clust_3="65.79449" pt_clust_4="30.07251" pt_clust_5="14000.00000" pt_clust_6="108.58323"></scales>
<clustering>
<clus scale="   30.073">  1  4  2 -1</clus>
<clus scale="   65.794">  2  3  1 -1</clus>
<clus scale="  108.583">  1  6  2 -1</clus>
<clus scale="   65.794">  2  3  1 -1</clus>
</clustering>
</event>
<event>
 6    0  0.1622933E+002  0.8008800E+02  0.7546771E-02  0.1328802E+00
          2   -1    0    0  505    0 -0.00000000000E+00  0.00000000000E+00  0.24492882112E+04  0.24492882112E+04  0.00000000000E+00 0.  1.
         21   -1    0    0  504  502  0.00000000000E+00 -0.00000000000E+00 -0.18674210673E+02  0.18674210673E+02  0.00000000000E+00 0.  1.
         21    1    1    2  503  502  0.30740658174E+02  0.36245555030E+02  0.17490096043E+03  0.18124313583E+03  0.00000000000E+00 0.  1.
         21    1    1    2  504  501  0.16484366842E+02 -0.36738077684E+02  0.28943692609E+02  0.49589898608E+02  0.00000000000E+00 0.  1.
         21    1    1    2  505  503 -0.75622610987E+02 -0.70747880233E+02  0.62467757242E+03  0.63320305695E+03  0.00000000000E+00 0.  1.
          2    1    1    2  501    0  0.28397585972E+02  0.71240402886E+02  0.16020917750E+04  0.16039263304E+04  0.00000000000E+00 0.  1.
<scales pt_clust_3="43.19827" pt_clust_4="40.26687" pt_clust_5="80.08800" pt_clust_6="14000.00000"></scales>
<clustering>
<clus scale="   40.267">  2  4  1 -1</clus>
<clus scale="   43.198">  2  3  1 -1</clus>
<clus scale="   80.088">  2  5  1 -1</clus>
<clus scale="   40.267">  2  3  1 -1</clus>
</clustering>
</event>
<event>
 6    0  0.1622933E+002  0.2096224E+03  0.7546771E-02  0.1141865E+00
         21   -1    0    0  505  502  0.00000000000E+00  0.00000000000E+00  0.36627971950E+03  0.36627971950E+03  0.00000000000E+00 0.  1.
          2   -1    0    0  503    0 -0.00000000000E+00 -0.00000000000E+00 -0.25519685962E+03  0.25519685962E+03  0.00000000000E+00 0.  1.
         21    1    1    2  503  502 -0.17514413185E+03  0.48770918378E+02 -0.27426103429E+02  0.18386478877E+03  0.00000000000E+00 0.  1.
         21    1    1    2  504  501  0.82203180918E+02 -0.41192068378E+02 -0.35540844127E+02  0.98576371670E+02  0.00000000000E+00 0.  1.
         21    1    1    2  505  504 -0.41474061422E+02  0.51625693467E+02  0.18024892788E+03  0.19202860724E+03  0.00000000000E+00 0.  1.
          2    1    1    2  501    0  0.13441501236E+03 -0.59204543468E+02 -0.61991204383E+01  0.14700681143E+03  0.00000000000E+00 0.  1.
<scales pt_clust_3="205.85334" pt_clust_4="31.30988" pt_clust_5="66.22167" pt_clust_6="31.30988"></scales>
<clustering>
<clus scale="   31.310">  4  6 -1 -1</clus>
<clus scale="   66.222">  1  5  2 -1</clus>
<clus scale="  205.853">  2  3  1 -1</clus>
<clus scale="   66.222">  1  3  2 -1</clus>
</clustering>
</event>
<event>
 6    0  0.1622933E+002  0.1104332E+03  0.7546771E-02  0.1259770E+00
          2   -1    0    0  503    0 -0.00000000000E+00  0.00000000000E+00  0.31262030093E+03  0.31262030093E+03  0.00000000000E+00 0.  1.
         21   -1    0    0  504  502  0.00000000000E+00 -0.00000000000E+00 -0.95444317396E+02  0.95444317396E+02  0.00000000000E+00 0.  1.
         21    1    1    2  503  502 -0.30910465312E+02 -0.14109829104E+03  0.11522551936E+03  0.18477311739E+03  0.00000000000E+00 0.  1.
         21    1    1    2  504  505 -0.39015213394E+01  0.29998343899E+02 -0.21104804043E+02  0.36885434241E+02  0.00000000000E+00 0.  1.
         21    1    1    2  505  501  0.36389573556E+02  0.16807977584E+02  0.14541522849E+02  0.42639946773E+02  0.00000000000E+00 0.  1.
          2    1    1    2  501    0 -0.15775869043E+01  0.94291969554E+02  0.10851374537E+03  0.14376611992E+03  0.00000000000E+00 0.  1.
<scales pt_clust_3="14000.00000" pt_clust_4="30.25099" pt_clust_5="42.43572" pt_clust_6="110.43316"></scales>
<clustering>
<clus scale="   30.251">  2  4  1 -1</clus>
<clus scale="   42.436">  2  5  1 -1</clus>
<clus scale="  110.433">  1  6  2 -1</clus>
<clus scale="   30.251">  2  3  1 -1</clus>
</clustering>
</event>
<event>
 6    0  0.1622933E+002  0.7454504E+02  0.7546771E-02  0.1345286E+00
          4   -1    0    0  503    0 -0.00000000000E+00  0.00000000000E+00  0.42834390077E+03  0.42834390077E+03  0.00000000000E+00 0.  1.
         21   -1    0    0  504  502  0.00000000000E+00 -0.00000000000E+00 -0.65803472260E+03  0.65803472260E+03  0.00000000000E+00 0. -1.
         21    1    1    2  503  505  0.41506358875E+02 -0.58055536723E+02  0.34749399534E+03  0.35474681107E+03  0.00000000000E+00 0.  1.
         21    1    1    2  504  501  0.20419371402E+02 -0.36672358414E+02 -0.54767247775E+03  0.54927857730E+03  0.00000000000E+00 0. -1.
         21    1    1    2  505  502 -0.10495299125E+02 -0.30925453427E+02 -0.33148253886E+02  0.46533232309E+02  0.00000000000E+00 0. -1.
          4    1    1    2  501    0 -0.51430431151E+02  0.12565334856E+03  0.36359144708E+01  0.13582000268E+03  0.00000000000E+00 0.  1.
<scales pt_clust_3="74.54504" pt_clust_4="65.06526" pt_clust_5="32.65785" pt_clust_6="14000.00000"></scales>
<clustering>
<clus scale="   32.658">  2  5  1 -1</clus>
<clus scale="   65.065">  2  4  1 -1</clus>
<clus scale="   74.545">  1  3  2 -1</clus>
<clus scale="   32.658">  2  3  1 -1</clus>
</clustering>
</event>
<event>
 6    0  0.1622933E+002  0.1590182E+03  0.7546771E-02  0.1189810E+00
          2   -1    0    0  504    0 -0.00000000000E+00  0.00000000000E+00  0.10567475139E+04  0.10567475139E+04  0.00000000000E+00 0. -1.
         21   -1    0    0  505  502  0.00000000000E+00 -0.00000000000E+00 -0.23149747692E+03  0.23149747692E+03  0.00000000000E+00 0.  1.
         21    1    1    2  503  502 -0.15359049902E+03 -0.10380503057E+02 -0.18759949937E+03  0.24267543839E+03  0.00000000000E+00 0.  1.
         21    1    1    2  504  503  0.43044902891E+02 -0.29846881000E+02  0.76021312558E+03  0.76201554858E+03  0.00000000000E+00 0. -1.
         21    1    1    2  505  501  0.85256499507E+02  0.11227117953E+02  0.13767493769E+03  0.16232408125E+03  0.00000000000E+00 0.  1.
          2    1    1    2  501    0  0.25289096620E+02  0.29000266104E+02  0.11496147307E+03  0.12122992259E+03  0.00000000000E+00 0. -1.
<scales pt_clust_3="150.15875" pt_clust_4="52.38034" pt_clust_5="35.00928" pt_clust_6="35.00928"></scales>
<clustering>
<clus scale="   35.009">  5  6 -1 -1</clus>
<clus scale="   52.380">  1  4  2 -1</clus>
<clus scale="  150.159">  2  3  1 -1</clus>
<clus scale="  150.159">  2  3  1 -1</clus>
</clustering>
</event>
<event>
 6    0  0.1622933E+002  0.2113330E+03  0.7546771E-02  0.1140515E+00
          3   -1    0    0  504    0 -0.00000000000E+00  0.00000000000E+00  0.54799905450E+03  0.54799905450E+03  0.00000000000E+00 0.  1.
         21   -1    0    0  503  502  0.00000000000E+00 -0.00000000000E+00 -0.15111137791E+03  0.15111137791E+03  0.00000000000E+00 0.  1.
         21    1    1    2  503  505  0.19539291506E+03  0.75921046396E+01  0.32193897850E+01  0.19556685757E+03  0.00000000000E+00 0.  1.
         21    1    1    2  504  502  0.21382659996E+02  0.31932609924E+02  0.20053789415E+03  0.20418706305E+03  0.00000000000E+00 0. -1.
         21    1    1    2  505  501 -0.50973641378E+02  0.11413713311E+02  0.66690505204E+02  0.84712504692E+02  0.00000000000E+00 0. -1.
          3    1    1    2  501    0 -0.16580193368E+03 -0.50938427874E+02  0.12643988745E+03  0.21464400710E+03  0.00000000000E+00 0.  1.
<scales pt_clust_3="202.23873" pt_clust_4="38.43058" pt_clust_5="33.65545" pt_clust_6="33.65545"></scales>
<clustering>
<clus scale="   33.655">  5  6 -1 -1</clus>
<clus scale="   38.431">  1  4  2 -1</clus>
<clus scale="  202.239">  2  3  1 -1</clus>
<clus scale="  202.239">  2  3  1 -1</clus>
</clustering>
</event>
<event>
 6    0  0.1622933E+002  0.1353590E+03  0.7546771E-02  0.1219714E+00
         21   -1    0    0  501  502  0.00000000000E+00  0.00000000000E+00  0.18358074655E+04  0.18358074655E+04  0.00000000000E+00 0.  1.
          4   -1    0    0  505    0 -0.00000000000E+00 -0.00000000000E+00 -0.16978727320E+03  0.16978727320E+03  0.00000000000E+00 0. -1.
         21    1    1    2  503  504  0.56390457670E+02  0.19944466818E+02  0.17260169781E+02  0.62254147925E+02  0.00000000000E+00 0. -1.
         21    1    1    2  504  502  0.30064240481E+01 -0.13665712450E+03  0.17456780677E+04  0.17510214517E+04  0.00000000000E+00 0.  1.
         21    1    1    2  505  503 -0.19333667144E+02  0.45559456569E+02  0.16848344945E+02  0.52281177258E+02  0.00000000000E+00 0.  1.
          4    1    1    2  501    0 -0.40063214574E+02  0.71153201116E+02 -0.11376639019E+03  0.14003796174E+03  0.00000000000E+00 0. -1.
<scales pt_clust_3="59.81262" pt_clust_4="135.35902" pt_clust_5="49.49197" pt_clust_6="14000.00000"></scales>
<clustering>
<clus scale="   49.492">  2  5  1 -1</clus>
<clus scale="   59.813">  2  3  1 -1</clus>
<clus scale="  135.359">  1  4  2 -1</clus>
<clus scale="  135.359">  1  3  2 -1</clus>
</clustering>
</event>
<event>
 6    0  0.1622933E+002  0.1308631E+03  0.7546771E-02  0.1226181E+00
          2   -1    0    0  505    0 -0.00000000000E+00  0.00000000000E+00  0.26206176293E+04  0.26206176293E+04  0.00000000000E+00 0.  1.
         21   -1    0    0  503  502  0.00000000000E+00 -0.00000000000E+00 -0.22981451570E+02  0.22981451570E+02  0.00000000000E+00 0.  1.
         21    1    1    2  503  501  0.14632053056E+03  0.50441024599E+02  0.41176271016E+03  0.43988921799E+03  0.00000000000E+00 0.  1.
         21    1    1    2  504  502 -0.46822031876E+02  0.12382803162E+02  0.12072892401E+03  0.13008116534E+03  0.00000000000E+00 0.  1.
         21    1    1    2  505  504  0.38213967533E+02 -0.73310548568E+01  0.43411335356E+03  0.43585370874E+03  0.00000000000E+00 0.  1.
          2    1    1    2  501    0 -0.13771246622E+03 -0.55492772904E+02  0.16310311900E+04  0.16377749888E+04  0.00000000000E+00 0.  1.
<scales pt_clust_3="14000.00000" pt_clust_4="46.20476" pt_clust_5="38.91082" pt_clust_6="130.86309"></scales>
<clustering>
<clus scale="   38.911">  1  5  2 -1</clus>
<clus scale="   46.205">  2  4  1 -1</clus>
<clus scale="  130.863">  1  6  2 -1</clus>
<clus scale="   46.205">  2  3  1 -1</clus>
</clustering>
</event>
<event>
 6    0  0.1622933E+002  0.1742941E+03  0.7546771E-02  0.1173442E+00
         21   -1    0    0  503  502  0.00000000000E+00  0.00000000000E+00  0.10663096015E+03  0.10663096015E+03  0.00000000000E+00 0.  1.
          2   -1    0    0  504    0 -0.00000000000E+00 -0.00000000000E+00 -0.14095915706E+04  0.14095915706E+04  0.00000000000E+00 0. -1.
         21    1    1    2  503  505  0.15877121335E+03 -0.77526449793E+02 -0.25478328822E+02  0.17851552831E+03  0.00000000000E+00 0.  1.
         21    1    1    2  504  502 -0.27125060553E+02  0.12838569150E+02 -0.12930752578E+03  0.13274424278E+03  0.00000000000E+00 0. -1.
         21    1    1    2  505  501 -0.13496584625E+03 -0.11402438373E+03 -0.43011651148E+03  0.46499199261E+03  0.00000000000E+00 0. -1.
          2    1    1    2  501    0  0.33196934452E+01  0.17871226437E+03 -0.71805824439E+03  0.73997076708E+03  0.00000000000E+00 0. -1.
<scales pt_clust_3="174.29415" pt_clust_4="30.00996" pt_clust_5="163.35357" pt_clust_6="14000.00000"></scales>
<clustering>
<clus scale="   30.010">  2  4  1 -1</clus>
<clus scale="  174.294">  1  3  2 -1</clus>
<clus scale="  163.354">  1  5  2 -1</clus>
<clus scale="  174.294">  1  3  2 -1</clus>
</clustering>
</event>
<event>
 6    0  0.1622933E+002  0.1179947E+03  0.7546771E-02  0.1246442E+00
         21   -1    0    0  505  502  0.00000000000E+00  0.00000000000E+00  0.51957542247E+02  0.51957542247E+02  0.00000000000E+00 0.  1.
         -2   -1    0    0    0  501 -0.00000000000E+00 -0.00000000000E+00 -0.45342756323E+03  0.45342756323E+03  0.00000000000E+00 0.  1.
         21    1    1    2  503  501  0.30863601753E+02  0.10310007675E+03 -0.25521343757E+03  0.27697668938E+03  0.00000000000E+00 0.  1.
         21    1    1    2  504  502  0.64202368813E+01 -0.72935089416E+02 -0.43594790813E+02  0.85212983141E+02  0.00000000000E+00 0.  1.
         21    1    1    2  505  503 -0.22613529642E+02  0.30169381602E+02 -0.37053977374E+02  0.52863603248E+02  0.00000000000E+00 0.  1.
         -2    1    1    2    0  504 -0.14670308992E+02 -0.60334368938E+02 -0.65607815225E+02  0.90331829715E+02  0.00000000000E+00 0.  1.
<scales pt_clust_3="113.40539" pt_clust_4="30.01004" pt_clust_5="37.70362" pt_clust_6="30.01004"></scales>
<clustering>
<clus scale="   30.010">  4  6 -1 -1</clus>
<clus scale="   37.704">  1  5  2 -1</clus>
<clus scale="  113.405">  2  3  1 -1</clus>
<clus scale="   37.704">  1  3  2 -1</clus>
</clustering>
</event>
<event>
 6    0  0.1622934E+002  0.9525262E+02  0.7546771E-02  0.1290608E+00
         -1   -1    0    0    0  501 -0.00000000000E+00  0.00000000000E+00  0.17200629936E+04  0.17200629936E+04  0.00000000000E+00 0. -1.
         21   -1    0    0  504  502  0.00000000000E+00 -0.00000000000E+00 -0.22481976280E+03  0.22481976280E+03  0.00000000000E+00 0. -1.
         21    1    1    2  503  505 -0.76096803267E+02 -0.16388210917E+01  0.12029556478E+03  0.14235319493E+03  0.00000000000E+00 0. -1.
         21    1    1    2  504  503 -0.23502905519E+02 -0.37067479197E+02 -0.20687841666E+03  0.21148301081E+03  0.00000000000E+00 0. -1.
         21    1    1    2  505  501  0.26026961938E+02 -0.25875975610E+02  0.10985310573E+03  0.11582173241E+03  0.00000000000E+00 0. -1.
         -1    1    1    2    0  502  0.73572746847E+02  0.64582275899E+02  0.14719729769E+04  0.14752248182E+04  0.00000000000E+00 0. -1.
<scales pt_clust_3="95.25262" pt_clust_4="43.90197" pt_clust_5="36.70107" pt_clust_6="14000.00000"></scales>
<clustering>
<clus scale="   36.701">  1  5  2 -1</clus>
<clus scale="   43.902">  2  4  1 -1</clus>
<clus scale="   95.253">  2  3  1 -1</clus>
<clus scale="   43.902">  2  3  1 -1</clus>
</clustering>
</event>
<event>
 6    0  0.1622933E+002  0.8713713E+02  0.7546771E-02  0.1309936E+00
         21   -1    0    0  504  502  0.00000000000E+00  0.00000000000E+00  0.72629027605E+03  0.72629027605E+03  0.00000000000E+00 0.  1.
          2   -1    0    0  505    0 -0.00000000000E+00 -0.00000000000E+00 -0.48346822589E+03  0.48346822589E+03  0.00000000000E+00 0.  1.
         21    1    1    2  503  502  0.37392173530E+02 -0.32429625385E+01  0.69433780184E+03  0.69535147552E+03  0.00000000000E+00 0.  1.
         21    1    1    2  504  501  0.46330702940E+02 -0.36130079409E+02 -0.65490526485E+02  0.87982530836E+02  0.00000000000E+00 0. -1.
         21    1    1    2  505  503  0.33991854256E+02  0.30917967265E+02 -0.40326824167E+02  0.61136074482E+02  0.00000000000E+00 0. -1.
          2    1    1    2  501    0 -0.11771473073E+03  0.84550746828E+01 -0.34569840102E+03  0.36528842110E+03  0.00000000000E+00 0.  1.
<scales pt_clust_3="37.53254" pt_clust_4="14000.00000" pt_clust_5="55.13933" pt_clust_6="87.13713"></scales>
<clustering>
<clus scale="   37.533">  1  3  2 -1</clus>
<clus scale="   55.139">  1  5  2 -1</clus>
<clus scale="   87.137">  2  6  1 -1</clus>
<clus scale="   37.533">  1  3  2 -1</clus>
</clustering>
</event>
<event>
 6    0  0.1622933E+002  0.8275341E+02  0.7546771E-02  0.1321414E+00
         21   -1    0    0  505  502  0.00000000000E+00  0.00000000000E+00  0.30891547271E+03  0.30891547271E+03  0.00000000000E+00 0. -1.
          4   -1    0    0  504    0 -0.00000000000E+00 -0.00000000000E+00 -0.62243298284E+03  0.62243298284E+03  0.00000000000E+00 0. -1.
         21    1    1    2  503  502 -0.46006996292E+02 -0.30599273917E+01 -0.14040685634E+02  0.48199042693E+02  0.00000000000E+00 0.  1.
         21    1    1    2  504  503 -0.66660021321E+02 -0.28584115416E+01 -0.51637126734E+03  0.52066401325E+03  0.00000000000E+00 0. -1.
         21    1    1    2  505  501  0.65538957222E+02 -0.79051985591E+02  0.24135284647E+03  0.26228947337E+03  0.00000000000E+00 0. -1.
          4    1    1    2  501    0  0.47128060390E+02  0.84970324525E+02 -0.24458403631E+02  0.10019592624E+03  0.00000000000E+00 0. -1.
<scales pt_clust_3="46.10864" pt_clust_4="67.06030" pt_clust_5="82.75341" pt_clust_6="14000.00000"></scales>
<clustering>
<clus scale="   46.109">  1  3  2 -1</clus>
<clus scale="   67.060">  2  4  1 -1</clus>
<clus scale="   82.753">  1  5  2 -1</clus>
<clus scale="   46.109">  1  3  2 -1</clus>
</clustering>
</event>
<event>
 6    0  0.1622933E+002  0.1080763E+03  0.7546771E-02  0.1264174E+00
         21   -1    0    0  505  502  0.00000000000E+00  0.00000000000E+00  0.92069116462E+02  0.92069116462E+02  0.00000000000E+00 0. -1.
          2   -1    0    0  503    0 -0.00000000000E+00 -0.00000000000E+00 -0.15487562233E+04  0.15487562233E+04  0.00000000000E+00 0. -1.
         21    1    1    2  503  504  0.25508155943E+02  0.11126882936E+03 -0.19132406127E+03  0.22279208879E+03  0.00000000000E+00 0. -1.
         21    1    1    2  504  502  0.34166021575E+02  0.19706532520E+01  0.51745667763E+02  0.62038815565E+02  0.00000000000E+00 0.  1.
         21    1    1    2  505  501 -0.83331700840E+02 -0.72299108341E+01 -0.85518295148E+02  0.11962367149E+03  0.00000000000E+00 0. -1.
          2    1    1    2  501    0  0.23657523322E+02 -0.10600957177E+03 -0.12315904182E+04  0.12363707639E+04  0.00000000000E+00 0. -1.
<scales pt_clust_3="108.07635" pt_clust_4="34.22281" pt_clust_5="67.06322" pt_clust_6="14000.00000"></scales>
<clustering>
<clus scale="   34.223">  1  4  2 -1</clus>
<clus scale="   67.063">  1  5  2 -1</clus>
<clus scale="  108.076">  1  3  2 -1</clus>
<clus scale="   34.223">  1  3  2 -1</clus>
</clustering>
</event>
<event>
 6    0  0.1815607E+002  0.9509193E+02  0.7546771E-02  0.1290969E+00
         21   -1    0    0  504  502  0.00000000000E+00  0.00000000000E+00  0.79628527552E+03  0.79628527552E+03  0.00000000000E+00 0.  1.
          1   -1    0    0  503    0 -0.00000000000E+00 -0.00000000000E+00 -0.55603696154E+03  0.55603696154E+03  0.00000000000E+00 0.  1.
         21    1    1    2  503  505  0.33298521196E+02 -0.12813764082E+02 -0.33796567979E+02  0.49144603681E+02  0.00000000000E+00 0.  1.
         21    1    1    2  504  501  0.53903599341E+02  0.24356686305E+02  0.74229712433E+03  0.74465016415E+03  0.00000000000E+00 0.  1.
         21    1    1    2  505  502  0.67154246574E+01  0.49326366901E+02  0.22892397071E+02  0.54792784595E+02  0.00000000000E+00 0. -1.
          1    1    1    2  501    0 -0.93917545195E+02 -0.60869289124E+02 -0.49114463944E+03  0.50373468463E+03  0.00000000000E+00 0.  1.
<scales pt_clust_3="35.67890" pt_clust_4="95.09193" pt_clust_5="49.53877" pt_clust_6="14000.00000"></scales>
<clustering>
<clus scale="   35.679">  2  3  1 -1</clus>
<clus scale="   49.539">  1  5  2 -1</clus>
<clus scale="   95.092">  1  4  2 -1</clus>
<clus scale="   49.539">  1  3  2 -1</clus>
</clustering>
</event>
<event>
 6    0  0.1622933E+002  0.1060797E+03  0.7546771E-02  0.1268007E+00
         21   -1    0    0  503  502  0.00000000000E+00  0.00000000000E+00  0.99880863145E+03  0.99880863145E+03  0.00000000000E+00 0.  1.
         -3   -1    0    0    0  501 -0.00000000000E+00 -0.00000000000E+00 -0.43322800931E+02  0.43322800931E+02  0.00000000000E+00 0.  1.
         21    1    1    2  503  504  0.95186887670E+02  0.46680967926E+02  0.76200645651E+03  0.76934614844E+03  0.00000000000E+00 0.  1.
         21    1    1    2  504  505  0.32119357110E+02 -0.17875967904E+02  0.63363334726E+02  0.73253774765E+02  0.00000000000E+00 0.  1.
         21    1    1    2  505  501 -0.31343874790E+02  0.17601397198E+02  0.65959676457E+02  0.75119415523E+02  0.00000000000E+00 0.  1.
         -3    1    1    2    0  502 -0.95962369990E+02 -0.46406397220E+02  0.64156362824E+02  0.12441209366E+03  0.00000000000E+00 0.  1.
<scales pt_clust_3="106.07974" pt_clust_4="32.17031" pt_clust_5="35.94785" pt_clust_6="14000.00000"></scales>
<clustering>
<clus scale="   35.948">  2  5  1 -1</clus>
<clus scale="   32.170">  2  4  1 -1</clus>
<clus scale="  106.080">  1  3  2 -1</clus>
<clus scale="  106.080">  1  3  2 -1</clus>
</clustering>
</event>
<event>
 6    0  0.1622933E+002  0.1894068E+03  0.7546771E-02  0.1158997E+00
          1   -1    0    0  503    0 -0.00000000000E+00  0.00000000000E+00  0.22476862948E+04  0.22476862948E+04  0.00000000000E+00 0. -1.
         21   -1    0    0  505  502  0.00000000000E+00 -0.00000000000E+00 -0.81054439316E+02  0.81054439316E+02  0.00000000000E+00 0.  1.
         21    1    1    2  503  502 -0.48929212540E+02  0.39260962694E+02  0.43229580423E+03  0.43682393866E+03  0.00000000000E+00 0. -1.
         21    1    1    2  504  501  0.64750860754E+02 -0.13555887196E+03  0.87509853543E+02  0.17385872484E+03  0.00000000000E+00 0.  1.
         21    1    1    2  505  504 -0.36639129016E+02 -0.66427181379E+02  0.14161615934E+02  0.77172194260E+02  0.00000000000E+00 0.  1.
          1    1    1    2  501    0  0.20817480802E+02  0.16272509065E+03  0.16326645818E+04  0.16408858763E+04  0.00000000000E+00 0. -1.
<scales pt_clust_3="62.73349" pt_clust_4="14000.00000" pt_clust_5="75.60704" pt_clust_6="189.40677"></scales>
<clustering>
<clus scale="   62.733">  1  3  2 -1</clus>
<clus scale="   75.607">  2  5  1 -1</clus>
<clus scale="  189.407">  1  6  2 -1</clus>
<clus scale="   75.607">  2  3  1 -1</clus>
</clustering>
</event>
<event>
 6    0  0.1622933E+002  0.1066300E+03  0.7546771E-02  0.1266941E+00
          2   -1    0    0  505    0 -0.00000000000E+00  0.00000000000E+00  0.87886628543E+03  0.87886628543E+03  0.00000000000E+00 0.  1.
         21   -1    0    0  501  502  0.00000000000E+00 -0.00000000000E+00 -0.69270005316E+02  0.69270005316E+02  0.00000000000E+00 0.  1.
         21    1    1    2  503  504 -0.21020441383E+02  0.63576752516E+02 -0.28871392734E+02  0.72920639978E+02  0.00000000000E+00 0.  1.
         21    1    1    2  504  502 -0.33725554953E+02  0.43729033484E+02  0.49774162015E+02  0.74344526569E+02  0.00000000000E+00 0.  1.
         21    1    1    2  505  503 -0.32773000493E+01 -0.37727381317E+02  0.39862454597E+03  0.40041931103E+03  0.00000000000E+00 0.  1.
          2    1    1    2  501    0  0.58023296386E+02 -0.69578404683E+02  0.39006896486E+03  0.40045181317E+03  0.00000000000E+00 0.  1.
<scales pt_clust_3="14000.00000" pt_clust_4="51.72150" pt_clust_5="37.86946" pt_clust_6="106.63002"></scales>
<clustering>
<clus scale="   37.869">  1  5  2 -1</clus>
<clus scale="   51.722">  2  4  1 -1</clus>
<clus scale="  106.630">  1  6  2 -1</clus>
<clus scale="   51.722">  2  3  1 -1</clus>
</clustering>
</event>
<event>
 6    0  0.1838928E+002  0.9770892E+02  0.7546771E-02  0.1285189E+00
         21   -1    0    0  501  502  0.00000000000E+00  0.00000000000E+00  0.43724996758E+03  0.43724996758E+03  0.00000000000E+00 0.  1.
          1   -1    0    0  503    0 -0.00000000000E+00 -0.00000000000E+00 -0.14123470496E+04  0.14123470496E+04  0.00000000000E+00 0. -1.
         21    1    1    2  503  505  0.72042838390E+02  0.35348970776E+02 -0.89813841644E+02  0.12044187996E+03  0.00000000000E+00 0.  1.
         21    1    1    2  504  502 -0.86558658002E+02 -0.45544091787E+02  0.39922687216E+03  0.41103377115E+03  0.00000000000E+00 0.  1.
         21    1    1    2  505  504 -0.78029179276E+02  0.19973565632E+02 -0.93198644367E+02  0.12318069432E+03  0.00000000000E+00 0.  1.
          1    1    1    2  501    0  0.92544998888E+02 -0.97784446207E+01 -0.11913114682E+04  0.11949406718E+04  0.00000000000E+00 0. -1.
<scales pt_clust_3="80.24787" pt_clust_4="97.70892" pt_clust_5="75.61731" pt_clust_6="14000.00000"></scales>
<clustering>
<clus scale="   80.248">  2  3  1 -1</clus>
<clus scale="   75.617">  2  5  1 -1</clus>
<clus scale="   97.709">  1  4  2 -1</clus>
<clus scale="   97.709">  1  3  2 -1</clus>
</clustering>
</event>
<event>
 6    0  0.1622933E+002  0.8633721E+02  0.7546771E-02  0.1311972E+00
         21   -1    0    0  504  502  0.00000000000E+00  0.00000000000E+00  0.19977003264E+03  0.19977003264E+03  0.00000000000E+00 0. -1.
          1   -1    0    0  503    0 -0.00000000000E+00 -0.00000000000E+00 -0.27338256985E+03  0.27338256985E+03  0.00000000000E+00 0. -1.
         21    1    1    2  503  505 -0.26351049062E+01  0.43645906118E+02 -0.15431239488E+02  0.46368438090E+02  0.00000000000E+00 0.  1.
         21    1    1    2  504  501 -0.61568136706E+02 -0.61339861148E+02  0.14502512087E+03  0.16907246880E+03  0.00000000000E+00 0. -1.
         21    1    1    2  505  502 -0.44391941882E+02  0.19265997662E+02 -0.47000899268E+02  0.67460415816E+02  0.00000000000E+00 0. -1.
          1    1    1    2  501    0  0.10859518349E+03 -0.15720426327E+01 -0.15620551931E+03  0.19025127979E+03  0.00000000000E+00 0. -1.
<scales pt_clust_3="43.72538" pt_clust_4="86.33721" pt_clust_5="53.85604" pt_clust_6="14000.00000"></scales>
<clustering>
<clus scale="   43.725">  2  3  1 -1</clus>
<clus scale="   53.856">  2  5  1 -1</clus>
<clus scale="   86.337">  1  4  2 -1</clus>
<clus scale="   86.337">  1  3  2 -1</clus>
</clustering>
</event>
<event>
 6    0  0.1622933E+002  0.1126437E+03  0.7546771E-02  0.1255751E+00
         21   -1    0    0  503  502  0.00000000000E+00  0.00000000000E+00  0.10486027181E+03  0.10486027181E+03  0.00000000000E+00 0. -1.
          2   -1    0    0  504    0 -0.00000000000E+00 -0.00000000000E+00 -0.32596925443E+03  0.32596925443E+03  0.00000000000E+00 0. -1.
         21    1    1    2  503  501  0.97177531993E+01  0.79413084857E+02 -0.62786046000E+02  0.10170034585E+03  0.00000000000E+00 0. -1.
         21    1    1    2  504  505  0.54622926707E+01 -0.92452484383E+02 -0.12866979317E+03  0.15853458356E+03  0.00000000000E+00 0. -1.
         21    1    1    2  505  502 -0.20266987022E+02 -0.35722168110E+02  0.57462448959E+02  0.70631134054E+02  0.00000000000E+00 0. -1.
          2    1    1    2  501    0  0.50869411518E+01  0.48761567635E+02 -0.87115592417E+02  0.99963462779E+02  0.00000000000E+00 0. -1.
<scales pt_clust_3="30.81782" pt_clust_4="105.54019" pt_clust_5="41.07096" pt_clust_6="30.81782"></scales>
<clustering>
<clus scale="   30.818">  3  6 -1 -1</clus>
<clus scale="   41.071">  1  5  2 -1</clus>
<clus scale="  105.540">  2  4  1 -1</clus>
<clus scale="   41.071">  1  3  2 -1</clus>
</clustering>
</event>
<event>
 6    0  0.1719715E+002  0.1105374E+03  0.7546771E-02  0.1259578E+00
         21   -1    0    0  505  502  0.00000000000E+00  0.00000000000E+00  0.16021942308E+03  0.16021942308E+03  0.00000000000E+00 0.  1.
          2   -1    0    0  503    0 -0.00000000000E+00 -0.00000000000E+00 -0.22873050526E+04  0.22873050526E+04  0.00000000000E+00 0. -1.
         21    1    1    2  503  502 -0.30256525570E+02 -0.18149718475E+02 -0.19070869564E+03  0.19394503400E+03  0.00000000000E+00 0. -1.
         21    1    1    2  504  501 -0.24143708427E+02  0.77116910784E+02 -0.36639539611E+03  0.37520064349E+03  0.00000000000E+00 0. -1.
         21    1    1    2  505  504  0.47185088394E+02 -0.10181091902E+03  0.13346984771E+03  0.17437343847E+03  0.00000000000E+00 0.  1.
          2    1    1    2  501    0  0.72151456035E+01  0.42843726712E+02 -0.17034513855E+04  0.17040053597E+04  0.00000000000E+00 0. -1.
<scales pt_clust_3="35.28271" pt_clust_4="14000.00000" pt_clust_5="110.53736" pt_clust_6="33.03221"></scales>
<clustering>
<clus scale="   35.283">  2  3  1 -1</clus>
<clus scale="   33.032">  2  6  1 -1</clus>
<clus scale="  110.537">  1  5  2 -1</clus>
<clus scale="  110.537">  1  3  2 -1</clus>
</clustering>
</event>
<event>
 6    0  0.1622933E+002  0.1096249E+03  0.7546771E-02  0.1261266E+00
         21   -1    0    0  503  502  0.00000000000E+00  0.00000000000E+00  0.16751184043E+03  0.16751184043E+03  0.00000000000E+00 0. -1.
         -2   -1    0    0    0  501 -0.00000000000E+00 -0.00000000000E+00 -0.19706923481E+04  0.19706923481E+04  0.00000000000E+00 0.  1.
         21    1    1    2  503  501  0.21137670413E+02  0.31010646999E+02 -0.32518646313E+03  0.32734492075E+03  0.00000000000E+00 0.  1.
         21    1    1    2  504  505  0.22273151151E+02  0.72914697703E+02 -0.12320219042E+03  0.14488418178E+03  0.00000000000E+00 0.  1.
         21    1    1    2  505  502  0.31215537166E+02  0.29481586830E+02  0.14867831101E+03  0.15475404320E+03  0.00000000000E+00 0. -1.
         -2    1    1    2    0  504 -0.74626358729E+02 -0.13340693153E+03 -0.15034701651E+04  0.15112210428E+04  0.00000000000E+00 0.  1.
<scales pt_clust_3="37.52947" pt_clust_4="14000.00000" pt_clust_5="43.00458" pt_clust_6="109.62493"></scales>
<clustering>
<clus scale="   37.529">  2  3  1 -1</clus>
<clus scale="   43.005">  1  5  2 -1</clus>
<clus scale="  109.625">  2  6  1 -1</clus>
<clus scale="   43.005">  1  3  2 -1</clus>
</clustering>
</event>
<event>
 6    0  0.1622933E+002  0.2026882E+03  0.7546771E-02  0.1147491E+00
         21   -1    0    0  504  502  0.00000000000E+00  0.00000000000E+00  0.67257925508E+03  0.67257925508E+03  0.00000000000E+00 0. -1.
          2   -1    0    0  503    0 -0.00000000000E+00 -0.00000000000E+00 -0.99997333762E+03  0.99997333762E+03  0.00000000000E+00 0. -1.
         21    1    1    2  503  505  0.63653111034E+01 -0.31184717374E+02 -0.55685304322E+03  0.55776188066E+03  0.00000000000E+00 0. -1.
         21    1    1    2  504  501 -0.12887607925E+03 -0.15596360991E+03  0.60798238217E+03  0.64076225579E+03  0.00000000000E+00 0. -1.
         21    1    1    2  505  502  0.33858207568E+02 -0.13947142868E+02 -0.33347119512E+00  0.36619833655E+02  0.00000000000E+00 0. -1.
          2    1    1    2  501    0  0.88652560584E+02  0.20109547015E+03 -0.37818995029E+03  0.43740862259E+03  0.00000000000E+00 0. -1.
<scales pt_clust_3="31.82772" pt_clust_4="202.68819" pt_clust_5="37.37600" pt_clust_6="14000.00000"></scales>
<clustering>
<clus scale="   31.828">  2  3  1 -1</clus>
<clus scale="   37.376">  2  5  1 -1</clus>
<clus scale="  202.688">  1  4  2 -1</clus>
<clus scale="  202.688">  1  3  2 -1</clus>
</clustering>
</event>
<event>
 6    0  0.1622933E+002  0.7989350E+02  0.7546771E-02  0.1329354E+00
         -1   -1    0    0    0  501 -0.00000000000E+00  0.00000000000E+00  0.62535968985E+03  0.62535968985E+03  0.00000000000E+00 0.  1.
         21   -1    0    0  505  502  0.00000000000E+00 -0.00000000000E+00 -0.17002724726E+04  0.17002724726E+04  0.00000000000E+00 0.  1.
         21    1    1    2  503  502 -0.57041528545E+02 -0.55543717696E+02 -0.16309298742E+04  0.16328720388E+04  0.00000000000E+00 0.  1.
         21    1    1    2  504  503 -0.50748600673E+02 -0.16440120534E+02 -0.25578492081E+02  0.59160436870E+02  0.00000000000E+00 0.  1.
         21    1    1    2  505  501  0.79131062360E+02  0.95161185950E+02  0.12635664613E+03  0.17687107837E+03  0.00000000000E+00 0. -1.
         -1    1    1    2    0  504  0.28659066858E+02 -0.23177347720E+02  0.45523893743E+03  0.45672860838E+03  0.00000000000E+00 0.  1.
<scales pt_clust_3="14000.00000" pt_clust_4="51.44156" pt_clust_5="79.89350" pt_clust_6="36.85826"></scales>
<clustering>
<clus scale="   36.858">  1  6  2 -1</clus>
<clus scale="   51.442">  1  4  2 -1</clus>
<clus scale="   79.893">  1  5  2 -1</clus>
<clus scale="   79.893">  2  3  1 -1</clus>
</clustering>
</event>
<event>
 6    0  0.1622933E+002  0.3141012E+03  0.7546771E-02  0.1078397E+00
         21   -1    0    0  505  502  0.00000000000E+00  0.00000000000E+00  0.24511022965E+03  0.24511022965E+03  0.00000000000E+00 0.  1.
          2   -1    0    0  504    0 -0.00000000000E+00 -0.00000000000E+00 -0.15362975246E+04  0.15362975246E+04  0.00000000000E+00 0. -1.
         21    1    1    2  503  502 -0.90804581691E+02  0.25852806616E+03  0.94625208589E+02  0.28988991557E+03  0.00000000000E+00 0.  1.
         21    1    1    2  504  503  0.31345976268E+02 -0.66920552396E+02 -0.84236242710E+02  0.11205657119E+03  0.00000000000E+00 0. -1.
         21    1    1    2  505  501  0.58366332228E+02  0.72195639634E+02 -0.60856768064E+02  0.11100624009E+03  0.00000000000E+00 0. -1.
          2    1    1    2  501    0  0.10922731949E+01 -0.26380315340E+03 -0.12407194927E+04  0.12684550274E+04  0.00000000000E+00 0. -1.
<scales pt_clust_3="314.10116" pt_clust_4="73.89811" pt_clust_5="90.99236" pt_clust_6="14000.00000"></scales>
<clustering>
<clus scale="   73.898">  2  4  1 -1</clus>
<clus scale="   90.992">  1  5  2 -1</clus>
<clus scale="  314.101">  1  3  2 -1</clus>
<clus scale="   90.992">  1  3  2 -1</clus>
</clustering>
</event>
<event>
 6    0  0.1622933E+002  0.2198925E+03  0.7546771E-02  0.1133963E+00
          2   -1    0    0  503    0 -0.00000000000E+00  0.00000000000E+00  0.21403074658E+04  0.21403074658E+04  0.00000000000E+00 0. -1.
         21   -1    0    0  505  502  0.00000000000E+00 -0.00000000000E+00 -0.12885500814E+04  0.12885500814E+04  0.00000000000E+00 0.  1.
         21    1    1    2  503  502 -0.19315924087E+03 -0.50826050502E+02 -0.12677650343E+04  0.12834024942E+04  0.00000000000E+00 0.  1.
         21    1    1    2  504  501  0.63440742180E+02  0.13720464148E+02  0.46722617800E+03  0.47171313350E+03  0.00000000000E+00 0. -1.
         21    1    1    2  505  504  0.95051743921E+02  0.59189730769E+02  0.29061941683E+03  0.31144486460E+03  0.00000000000E+00 0. -1.
          2    1    1    2  501    0  0.34666754765E+02 -0.22084144414E+02  0.13616768239E+04  0.13622970550E+04  0.00000000000E+00 0. -1.
<scales pt_clust_3="199.45417" pt_clust_4="77.71498" pt_clust_5="77.71498" pt_clust_6="41.10345"></scales>
<clustering>
<clus scale="   41.103">  1  6  2 -1</clus>
<clus scale="   77.715">  4  5 -1 -1</clus>
<clus scale="  199.454">  2  3  1 -1</clus>
<clus scale="  199.454">  2  3  1 -1</clus>
</clustering>
</event>
<event>
 6    0  0.1622933E+002  0.9076386E+02  0.7546771E-02  0.1301012E+00
         21   -1    0    0  503  502  0.00000000000E+00  0.00000000000E+00  0.20708681891E+03  0.20708681891E+03  0.00000000000E+00 0.  1.
          2   -1    0    0  505    0 -0.00000000000E+00 -0.00000000000E+00 -0.26541653117E+03  0.26541653117E+03  0.00000000000E+00 0.  1.
         21    1    1    2  503  501  0.31684876453E+02 -0.41205419257E+02  0.14806158086E+03  0.15692052032E+03  0.00000000000E+00 0.  1.
         21    1    1    2  504  502 -0.24862711313E+02 -0.73708684255E+02 -0.94979045308E+01  0.78366668546E+02  0.00000000000E+00 0.  1.
         21    1    1    2  505  504  0.15921201827E+02  0.33806936630E+02 -0.22695191486E+02  0.43720308193E+02  0.00000000000E+00 0.  1.
          2    1    1    2  501    0 -0.22743366967E+02  0.81107166882E+02 -0.17419819711E+03  0.19349585302E+03  0.00000000000E+00 0.  1.
<scales pt_clust_3="51.65682" pt_clust_4="14000.00000" pt_clust_5="37.36835" pt_clust_6="90.76386"></scales>
<clustering>
<clus scale="   37.368">  2  5  1 -1</clus>
<clus scale="   51.657">  1  3  2 -1</clus>
<clus scale="   90.764">  2  6  1 -1</clus>
<clus scale="   51.657">  1  3  2 -1</clus>
</clustering>
</event>
<event>
 6    0  0.1622933E+002  0.9033176E+02  0.7546771E-02  0.1302050E+00
          2   -1    0    0  505    0 -0.00000000000E+00  0.00000000000E+00  0.27417155045E+04  0.27417155045E+04  0.00000000000E+00 0. -1.
         21   -1    0    0  503  502  0.00000000000E+00 -0.00000000000E+00 -0.11535317747E+02  0.11535317747E+02  0.00000000000E+00 0. -1.
         21    1    1    2  503  501  0.29229554034E+02 -0.36371316660E+02  0.11105467295E+03  0.12045903822E+03  0.00000000000E+00 0. -1.
         21    1    1    2  504  502 -0.93417987218E+02  0.22108595635E+02  0.87039101447E+03  0.87566901761E+03  0.00000000000E+00 0. -1.
         21    1    1    2  505  504  0.73865037069E+02 -0.50386239390E+02  0.13595100721E+04  0.13624472295E+04  0.00000000000E+00 0. -1.
          2    1    1    2  501    0 -0.96766038854E+01  0.64648960415E+02  0.38922442724E+03  0.39467553699E+03  0.00000000000E+00 0. -1.
<scales pt_clust_3="46.66090" pt_clust_4="14000.00000" pt_clust_5="90.33176" pt_clust_6="50.18058"></scales>
<clustering>
<clus scale="   46.661">  2  3  1 -1</clus>
<clus scale="   50.181">  2  6  1 -1</clus>
<clus scale="   90.332">  1  5  2 -1</clus>
<clus scale="   46.661">  2  3  1 -1</clus>
</clustering>
</event>
<event>
 6    0  0.1622933E+002  0.1033910E+03  0.7546771E-02  0.1273322E+00
         21   -1    0    0  504  502  0.00000000000E+00  0.00000000000E+00  0.59096480970E+02  0.59096480970E+02  0.00000000000E+00 0. -1.
          2   -1    0    0  505    0 -0.00000000000E+00 -0.00000000000E+00 -0.17849224288E+04  0.17849224288E+04  0.00000000000E+00 0.  1.
         21    1    1    2  503  501 -0.53010562687E+02 -0.78807516854E+02 -0.23865692940E+03  0.25686158611E+03  0.00000000000E+00 0. -1.
         21    1    1    2  504  503  0.50372920066E+02  0.54415788978E+02  0.41484721903E+01  0.74267886650E+02  0.00000000000E+00 0. -1.
         21    1    1    2  505  502  0.91252369396E+02 -0.33083202419E+02 -0.26827220070E+03  0.28529189766E+03  0.00000000000E+00 0. -1.
          2    1    1    2  501    0 -0.88614726775E+02  0.57474930295E+02 -0.12230452899E+04  0.12275975394E+04  0.00000000000E+00 0.  1.
<scales pt_clust_3="61.66767" pt_clust_4="74.15193" pt_clust_5="103.39105" pt_clust_6="14000.00000"></scales>
<clustering>
<clus scale="   74.152">  1  4  2 -1</clus>
<clus scale="   61.668">  1  3  2 -1</clus>
<clus scale="  103.391">  1  5  2 -1</clus>
<clus scale="   74.152">  1  3  2 -1</clus>
</clustering>
</event>
<event>
 6    0  0.1622933E+002  0.1226104E+03  0.7546771E-02  0.1238852E+00
         21   -1    0    0  505  502  0.00000000000E+00  0.00000000000E+00  0.98143137857E+02  0.98143137857E+02  0.00000000000E+00 0.  1.
          2   -1    0    0  503    0 -0.00000000000E+00 -0.00000000000E+00 -0.71847620091E+03  0.71847620091E+03  0.00000000000E+00 0.  1.
         21    1    1    2  503  504  0.67952563908E+02 -0.21650603887E+02 -0.15024954151E+03  0.16631663872E+03  0.00000000000E+00 0.  1.
         21    1    1    2  504  502  0.88402779422E+02  0.87567846626E+01 -0.41360615318E+03  0.42303874839E+03  0.00000000000E+00 0.  1.
         21    1    1    2  505  501 -0.12333392579E+03  0.31087219237E+02  0.31942992096E+02  0.13114124902E+03  0.00000000000E+00 0.  1.
          2    1    1    2  501    0 -0.33021417545E+02 -0.18193400013E+02 -0.88420360459E+02  0.96122702648E+02  0.00000000000E+00 0.  1.
<scales pt_clust_3="65.12976" pt_clust_4="122.61037" pt_clust_5="14000.00000" pt_clust_6="37.70164"></scales>
<clustering>
<clus scale="   37.702">  2  6  1 -1</clus>
<clus scale="   65.130">  2  3  1 -1</clus>
<clus scale="  122.610">  2  4  1 -1</clus>
<clus scale="  122.610">  1  3  2 -1</clus>
</clustering>
</event>
<event>
 6    0  0.1926129E+002  0.8023457E+02  0.7546771E-02  0.1328387E+00
          2   -1    0    0  504    0 -0.00000000000E+00  0.00000000000E+00  0.35159477062E+04  0.35159477062E+04  0.00000000000E+00 0. -1.
         21   -1    0    0  501  502  0.00000000000E+00 -0.00000000000E+00 -0.23693514779E+03  0.23693514779E+03  0.00000000000E+00 0.  1.
         21    1    1    2  503  502 -0.54935232801E+02  0.58468511816E+02 -0.22251318326E+03  0.23653448670E+03  0.00000000000E+00 0.  1.
         21    1    1    2  504  505 -0.34960916546E+02  0.51695818931E+01  0.13437078645E+03  0.13894062945E+03  0.00000000000E+00 0.  1.
         21    1    1    2  505  503  0.59290683303E+02  0.22052765961E+02  0.21939295407E+03  0.22833085186E+03  0.00000000000E+00 0. -1.
          2    1    1    2  501    0  0.30605466045E+02 -0.85690859670E+02  0.31477620011E+04  0.31490768860E+04  0.00000000000E+00 0. -1.
<scales pt_clust_3="80.23457" pt_clust_4="35.34106" pt_clust_5="61.21815" pt_clust_6="14000.00000"></scales>
<clustering>
<clus scale="   35.341">  1  4  2 -1</clus>
<clus scale="   61.218">  1  5  2 -1</clus>
<clus scale="   80.235">  2  3  1 -1</clus>
<clus scale="   80.235">  2  3  1 -1</clus>
</clustering>
</event>
<event>
 6    0  0.1622933E+002  0.4981425E+03  0.7546771E-02  0.1014265E+00
         21   -1    0    0  503  502  0.00000000000E+00  0.00000000000E+00  0.46645677431E+03  0.46645677431E+03  0.00000000000E+00 0.  1.
          2   -1    0    0  504    0 -0.00000000000E+00 -0.00000000000E+00 -0.11770856454E+04  0.11770856454E+04  0.00000000000E+00 0. -1.
         21    1    1    2  503  501 -0.31501324774E+03  0.42549910648E+03  0.76830407645E+02  0.53496331408E+03  0.00000000000E+00 0.  1.
         21    1    1    2  504  505  0.78859109345E+02  0.42279053164E+02 -0.80769287622E+02  0.12054026417E+03  0.00000000000E+00 0. -1.
         21    1    1    2  505  502  0.17563170982E+02 -0.33008252030E+02  0.65432213918E+02  0.75361689838E+02  0.00000000000E+00 0. -1.
          2    1    1    2  501    0  0.21859096742E+03 -0.43476990762E+03 -0.77212220505E+03  0.91267715165E+03  0.00000000000E+00 0. -1.
<scales pt_clust_3="14000.00000" pt_clust_4="89.49158" pt_clust_5="37.38997" pt_clust_6="498.14254"></scales>
<clustering>
<clus scale="   37.390">  1  5  2 -1</clus>
<clus scale="   89.492">  2  4  1 -1</clus>
<clus scale="  498.143">  2  6  1 -1</clus>
<clus scale="   37.390">  1  3  2 -1</clus>
</clustering>
</event>
<event>
 6    0  0.1622933E+002  0.1002638E+03  0.7546771E-02  0.1279742E+00
          2   -1    0    0  505    0 -0.00000000000E+00  0.00000000000E+00  0.18559666258E+03  0.18559666258E+03  0.00000000000E+00 0. -1.
         21   -1    0    0  504  502  0.00000000000E+00 -0.00000000000E+00 -0.10391023114E+04  0.10391023114E+04  0.00000000000E+00 0. -1.
         21    1    1    2  503  502 -0.22179827790E+02 -0.10380235362E+03 -0.10560698706E+03  0.14973212446E+03  0.00000000000E+00 0. -1.
         21    1    1    2  504  501 -0.90894036860E+01  0.41740854283E+02 -0.81711103683E+03  0.81822696282E+03  0.00000000000E+00 0. -1.
         21    1    1    2  505  503  0.10103564166E+03  0.33833185092E+02  0.12411836354E+03  0.16357950198E+03  0.00000000000E+00 0. -1.
          2    1    1    2  501    0 -0.69766410181E+02  0.28228314241E+02 -0.54905988483E+02  0.93160384744E+02  0.00000000000E+00 0. -1.
<scales pt_clust_3="100.26380" pt_clust_4="42.71904" pt_clust_5="14000.00000" pt_clust_6="84.14326"></scales>
<clustering>
<clus scale="   42.719">  2  4  1 -1</clus>
<clus scale="   84.143">  2  6  1 -1</clus>
<clus scale="  100.264">  2  3  1 -1</clus>
<clus scale="   42.719">  2  3  1 -1</clus>
</clustering>
</event>
<event>
 6    0  0.1622933E+002  0.1025619E+03  0.7546771E-02  0.1274999E+00
         21   -1    0    0  503  502  0.00000000000E+00  0.00000000000E+00  0.81637290877E+03  0.81637290877E+03  0.00000000000E+00 0.  1.
         -3   -1    0    0    0  501 -0.00000000000E+00 -0.00000000000E+00 -0.77252131481E+03  0.77252131481E+03  0.00000000000E+00 0. -1.
         21    1    1    2  503  504  0.85970628848E+01  0.81875075511E+02 -0.40489007088E+02  0.91743104238E+02  0.00000000000E+00 0. -1.
         21    1    1    2  504  501 -0.10046135135E+02 -0.31661848181E+02 -0.53666285751E+02  0.63114718471E+02  0.00000000000E+00 0. -1.
         21    1    1    2  505  502 -0.86666425866E+02 -0.55093025862E+02  0.77963405794E+03  0.78636860007E+03  0.00000000000E+00 0.  1.
         -3    1    1    2    0  505  0.88115498116E+02  0.48797985329E+01 -0.64162717115E+03  0.64766780080E+03  0.00000000000E+00 0. -1.
<scales pt_clust_3="79.31517" pt_clust_4="33.21743" pt_clust_5="102.56186" pt_clust_6="14000.00000"></scales>
<clustering>
<clus scale="   33.217">  2  4  1 -1</clus>
<clus scale="   79.315">  2  3  1 -1</clus>
<clus scale="  102.562">  1  5  2 -1</clus>
<clus scale="  102.562">  1  3  2 -1</clus>
</clustering>
</event>
<event>
 6    0  0.1622933E+002  0.9378791E+02  0.7546771E-02  0.1293930E+00
         21   -1    0    0  503  502  0.00000000000E+00  0.00000000000E+00  0.62838074386E+03  0.62838074386E+03  0.00000000000E+00 0.  1.
          1   -1    0    0  504    0 -0.00000000000E+00 -0.00000000000E+00 -0.14648552563E+03  0.14648552563E+03  0.00000000000E+00 0.  1.
         21    1    1    2  503  505 -0.77812518497E+01  0.47287536318E+02  0.35985790443E+03  0.36303494370E+03  0.00000000000E+00 0.  1.
         21    1    1    2  504  502 -0.50576527270E+02  0.98030957033E+02 -0.32046793781E+02  0.11486971158E+03  0.00000000000E+00 0.  1.
         21    1    1    2  505  501  0.51041094460E+02 -0.60229887579E+02  0.18890069788E+03  0.20473472188E+03  0.00000000000E+00 0.  1.
          1    1    1    2  501    0  0.73166846600E+01 -0.85088605772E+02 -0.34816590304E+02  0.92226892320E+02  0.00000000000E+00 0.  1.
<scales pt_clust_3="47.92347" pt_clust_4="93.78791" pt_clust_5="51.92053" pt_clust_6="14000.00000"></scales>
<clustering>
<clus scale="   47.923">  1  3  2 -1</clus>
<clus scale="   51.921">  1  5  2 -1</clus>
<clus scale="   93.788">  1  4  2 -1</clus>
<clus scale="   47.923">  1  3  2 -1</clus>
</clustering>
</event>
<event>
 6    0  0.1622933E+002  0.1797732E+03  0.7546771E-02  0.1168023E+00
          1   -1    0    0  504    0 -0.00000000000E+00  0.00000000000E+00  0.11589982420E+04  0.11589982420E+04  0.00000000000E+00 0.  1.
         21   -1    0    0  503  502  0.00000000000E+00 -0.00000000000E+00 -0.70856518658E+02  0.70856518658E+02  0.00000000000E+00 0.  1.
         21    1    1    2  503  505 -0.12159167011E+03 -0.70108783375E+01  0.55648962326E+02  0.13390479328E+03  0.00000000000E+00 0.  1.
         21    1    1    2  504  502 -0.75185503153E+02 -0.10072642113E+03  0.26248374657E+03  0.29102644040E+03  0.00000000000E+00 0. -1.
         21    1    1    2  505  501  0.65940407573E+02  0.25153978594E+01  0.19202606608E+03  0.20304796141E+03  0.00000000000E+00 0.  1.
          1    1    1    2  501    0  0.13083676568E+03  0.10522190161E+03  0.57798294838E+03  0.60187556559E+03  0.00000000000E+00 0.  1.
<scales pt_clust_3="121.79362" pt_clust_4="166.30995" pt_clust_5="42.79334" pt_clust_6="42.79334"></scales>
<clustering>
<clus scale="   42.793">  5  6 -1 -1</clus>
<clus scale="  121.794">  2  3  1 -1</clus>
<clus scale="  166.310">  1  4  2 -1</clus>
<clus scale="  121.794">  2  3  1 -1</clus>
</clustering>
</event>
<event>
 6    0  0.1622933E+002  0.6874257E+02  0.7546771E-02  0.1364422E+00
         21   -1    0    0  503  502  0.00000000000E+00  0.00000000000E+00  0.63435225936E+02  0.63435225936E+02  0.00000000000E+00 0.  1.
          2   -1    0    0  505    0 -0.00000000000E+00 -0.00000000000E+00 -0.19919348509E+04  0.19919348509E+04  0.00000000000E+00 0.  1.
         21    1    1    2  503  501  0.43834819493E+02 -0.43725085660E+02  0.33403625957E+02  0.70350385522E+02  0.00000000000E+00 0.  1.
         21    1    1    2  504  502 -0.75426362773E+02 -0.43350932033E+01 -0.20405586196E+03  0.21759302386E+03  0.00000000000E+00 0.  1.
         21    1    1    2  505  504 -0.35181958207E+02 -0.37287241317E+02 -0.10578188290E+04  0.10590603305E+04  0.00000000000E+00 0.  1.
          2    1    1    2  501    0  0.66773501487E+02  0.85347420181E+02 -0.70002855992E+03  0.70836633696E+03  0.00000000000E+00 0.  1.
<scales pt_clust_3="61.95074" pt_clust_4="68.74257" pt_clust_5="51.26508" pt_clust_6="14000.00000"></scales>
<clustering>
<clus scale="   51.265">  2  5  1 -1</clus>
<clus scale="   61.951">  1  3  2 -1</clus>
<clus scale="   68.743">  1  4  2 -1</clus>
<clus scale="   61.951">  1  3  2 -1</clus>
</clustering>
</event>
<event>
 6    0  0.1622933E+002  0.1183380E+03  0.7546771E-02  0.1245864E+00
          1   -1    0    0  505    0 -0.00000000000E+00  0.00000000000E+00  0.10112955681E+04  0.10112955681E+04  0.00000000000E+00 0.  1.
         21   -1    0    0  503  502  0.00000000000E+00 -0.00000000000E+00 -0.10106423761E+03  0.10106423761E+03  0.00000000000E+00 0. -1.
         21    1    1    2  503  501  0.48598673429E+02  0.45695246224E+02 -0.55025666643E+02  0.86473756574E+02  0.00000000000E+00 0. -1.
         21    1    1    2  504  502  0.62888506110E+02  0.37670338421E+01  0.36242043420E+02  0.72681775267E+02  0.00000000000E+00 0. -1.
         21    1    1    2  505  504  0.34024527717E+02  0.20758993716E+02  0.85221126899E+02  0.94081054290E+02  0.00000000000E+00 0. -1.
          1    1    1    2  501    0 -0.14551170726E+03 -0.70221273782E+02  0.84379382681E+03  0.85912321957E+03  0.00000000000E+00 0.  1.
<scales pt_clust_3="118.33795" pt_clust_4="65.09093" pt_clust_5="39.85730" pt_clust_6="14000.00000"></scales>
<clustering>
<clus scale="   39.857">  1  5  2 -1</clus>
<clus scale="   65.091">  2  4  1 -1</clus>
<clus scale="  118.338">  2  3  1 -1</clus>
<clus scale="   65.091">  2  3  1 -1</clus>
</clustering>
</event>
<event>
 6    0  0.1622933E+002  0.1172989E+03  0.7546771E-02  0.1247621E+00
         21   -1    0    0  505  502  0.00000000000E+00  0.00000000000E+00  0.80271116522E+02  0.80271116522E+02  0.00000000000E+00 0. -1.
          2   -1    0    0  504    0 -0.00000000000E+00 -0.00000000000E+00 -0.30034289958E+04  0.30034289958E+04  0.00000000000E+00 0.  1.
         21    1    1    2  503  502 -0.10722594624E+03 -0.13252393356E+02  0.39773823350E+02  0.11513030227E+03  0.00000000000E+00 0. -1.
         21    1    1    2  504  503  0.15492048242E+02  0.44508645517E+02 -0.31960132722E+03  0.32305731913E+03  0.00000000000E+00 0.  1.
         21    1    1    2  505  501  0.57774466368E+02 -0.21872563390E+02 -0.10658763702E+04  0.10676650854E+04  0.00000000000E+00 0.  1.
          2    1    1    2  501    0  0.33959431632E+02 -0.93836887712E+01 -0.15774540052E+04  0.15778474055E+04  0.00000000000E+00 0.  1.
<scales pt_clust_3="107.75075" pt_clust_4="47.12773" pt_clust_5="35.00715" pt_clust_6="35.00715"></scales>
<clustering>
<clus scale="   35.007">  5  6 -1 -1</clus>
<clus scale="   47.128">  2  4  1 -1</clus>
<clus scale="  107.751">  1  3  2 -1</clus>
<clus scale="  107.751">  1  3  2 -1</clus>
</clustering>
</event>
<event>
 6    0  0.1622933E+002  0.1103105E+03  0.7546771E-02  0.1259996E+00
          2   -1    0    0  505    0 -0.00000000000E+00  0.00000000000E+00  0.79309716755E+03  0.79309716755E+03  0.00000000000E+00 0. -1.
         21   -1    0    0  504  502  0.00000000000E+00 -0.00000000000E+00 -0.74658849096E+02  0.74658849096E+02  0.00000000000E+00 0. -1.
         21    1    1    2  503  501 -0.38761397442E+02 -0.12736076003E+02  0.27392268962E+02  0.49142547375E+02  0.00000000000E+00 0.  1.
         21    1    1    2  504  503  0.85479601017E+02  0.19744266975E+02  0.15783512877E+02  0.89138754463E+02  0.00000000000E+00 0. -1.
         21    1    1    2  505  502  0.43114113158E+02 -0.57122868097E+02  0.59423465544E+03  0.59852875832E+03  0.00000000000E+00 0. -1.
          2    1    1    2  501    0 -0.89832316733E+02  0.50114677124E+02  0.81027881185E+02  0.13094595649E+03  0.00000000000E+00 0. -1.
<scales pt_clust_3="32.98705" pt_clust_4="97.08234" pt_clust_5="71.56709" pt_clust_6="32.98705"></scales>
<clustering>
<clus scale="   32.987">  3  6 -1 -1</clus>
<clus scale="   71.567">  1  5  2 -1</clus>
<clus scale="   97.082">  2  4  1 -1</clus>
<clus scale="   97.082">  2  3  1 -1</clus>
</clustering>
</event>
<event>
 6    0  0.1622933E+002  0.1604587E+03  0.7546771E-02  0.1188180E+00
         21   -1    0    0  504  502  0.00000000000E+00  0.00000000000E+00  0.17575604787E+02  0.17575604787E+02  0.00000000000E+00 0.  1.
          2   -1    0    0  505    0 -0.00000000000E+00 -0.00000000000E+00 -0.29373771855E+04  0.29373771855E+04  0.00000000000E+00 0. -1.
         21    1    1    2  503  501 -0.13611377901E+02  0.54227041893E+02 -0.45345325858E+03  0.45688696566E+03  0.00000000000E+00 0.  1.
         21    1    1    2  504  503  0.74295627456E+01  0.38431098986E+02 -0.30917377004E+02  0.49880176149E+02  0.00000000000E+00 0.  1.
         21    1    1    2  505  502  0.96733814184E+02 -0.12079495759E+03 -0.15068749674E+04  0.15148006535E+04  0.00000000000E+00 0.  1.
          2    1    1    2  501    0 -0.90551999028E+02  0.28136816716E+02 -0.92855597772E+03  0.93338499492E+03  0.00000000000E+00 0. -1.
<scales pt_clust_3="58.82402" pt_clust_4="39.14266" pt_clust_5="143.08809" pt_clust_6="58.82402"></scales>
<clustering>
<clus scale="   39.143">  1  4  2 -1</clus>
<clus scale="   58.824">  3  6 -1 -1</clus>
<clus scale="  143.088">  1  5  2 -1</clus>
<clus scale="   39.143">  1  3  2 -1</clus>
</clustering>
</event>
<event>
 6    0  0.1622933E+002  0.1192318E+03  0.7546771E-02  0.1244370E+00
         21   -1    0    0  505  502  0.00000000000E+00  0.00000000000E+00  0.16429203671E+04  0.16429203671E+04  0.00000000000E+00 0.  1.
         -2   -1    0    0    0  501 -0.00000000000E+00 -0.00000000000E+00 -0.17568808612E+03  0.17568808612E+03  0.00000000000E+00 0. -1.
         21    1    1    2  503  504  0.33278261810E+02 -0.62900593778E+02 -0.30875298671E+02  0.77570686955E+02  0.00000000000E+00 0. -1.
         21    1    1    2  504  502 -0.22491733113E+02  0.11039442211E+03  0.15743117972E+04  0.15783378730E+04  0.00000000000E+00 0.  1.
         21    1    1    2  505  501 -0.21865580105E+02  0.42540748963E+02 -0.64414271244E+01  0.48262935044E+02  0.00000000000E+00 0.  1.
         -2    1    1    2    0  503  0.11079051407E+02 -0.90034577290E+02 -0.69762790409E+02  0.11443695825E+03  0.00000000000E+00 0. -1.
<scales pt_clust_3="32.92810" pt_clust_4="113.28742" pt_clust_5="47.83115" pt_clust_6="32.92810"></scales>
<clustering>
<clus scale="   32.928">  3  6 -1 -1</clus>
<clus scale="   47.831">  2  5  1 -1</clus>
<clus scale="  113.287">  1  4  2 -1</clus>
<clus scale="  113.287">  1  3  2 -1</clus>
</clustering>
</event>
<event>
 6    0  0.1622933E+002  0.9180312E+02  0.7546771E-02  0.1298543E+00
         21   -1    0    0  505  502  0.00000000000E+00  0.00000000000E+00  0.32065207008E+03  0.32065207008E+03  0.00000000000E+00 0. -1.
          1   -1    0    0  503    0 -0.00000000000E+00 -0.00000000000E+00 -0.13041163414E+04  0.13041163414E+04  0.00000000000E+00 0. -1.
         21    1    1    2  503  502  0.17379942238E+02  0.86138824535E+02  0.27522553407E+03  0.28891357547E+03  0.00000000000E+00 0. -1.
         21    1    1    2  504  501 -0.48213031799E+02  0.86709329347E+02 -0.19663141137E+03  0.22024285725E+03  0.00000000000E+00 0. -1.
         21    1    1    2  505  504 -0.26090923934E+02 -0.10223907738E+03 -0.88156356600E+02  0.13749584889E+03  0.00000000000E+00 0.  1.
          1    1    1    2  501    0  0.56924013496E+02 -0.70609076507E+02 -0.97390203738E+03  0.97811612982E+03  0.00000000000E+00 0. -1.
<scales pt_clust_3="87.87468" pt_clust_4="91.80312" pt_clust_5="49.48306" pt_clust_6="14000.00000"></scales>
<clustering>
<clus scale="   87.875">  1  3  2 -1</clus>
<clus scale="   49.483">  1  5  2 -1</clus>
<clus scale="   91.803">  1  4  2 -1</clus>
<clus scale="   87.875">  1  3  2 -1</clus>
</clustering>
</event>
<event>
 6    0  0.1622933E+002  0.2122757E+03  0.7546771E-02  0.1139776E+00
         21   -1    0    0  504  502  0.00000000000E+00  0.00000000000E+00  0.34737810450E+02  0.34737810450E+02  0.00000000000E+00 0.  1.
          1   -1    0    0  502    0 -0.00000000000E+00 -0.00000000000E+00 -0.45373003592E+04  0.45373003592E+04  0.00000000000E+00 0.  1.
         21    1    1    2  503  501 -0.12597216701E+03  0.55017737248E+02 -0.18792339931E+04  0.18842548499E+04  0.00000000000E+00 0.  1.
         21    1    1    2  504  505 -0.10621971076E+02 -0.48855672867E+02 -0.11396660572E+02  0.51279497979E+02  0.00000000000E+00 0.  1.
         21    1    1    2  505  503  0.17597651169E+03 -0.58263730129E+02 -0.72113003462E+03  0.74457432251E+03  0.00000000000E+00 0.  1.
          1    1    1    2  501    0 -0.39382373612E+02  0.52101665748E+02 -0.18908018604E+04  0.18919294993E+04  0.00000000000E+00 0.  1.
<scales pt_clust_3="59.75878" pt_clust_4="49.99703" pt_clust_5="193.59692" pt_clust_6="59.75878"></scales>
<clustering>
<clus scale="   49.997">  1  4  2 -1</clus>
<clus scale="   59.759">  3  6 -1 -1</clus>
<clus scale="  193.597">  1  5  2 -1</clus>
<clus scale="   49.997">  1  3  2 -1</clus>
</clustering>
</event>
<event>
 6    0  0.1622933E+002  0.1414557E+03  0.7546771E-02  0.1211384E+00
         21   -1    0    0  501  502  0.00000000000E+00  0.00000000000E+00  0.10378814711E+04  0.10378814711E+04  0.00000000000E+00 0.  1.
          2   -1    0    0  503    0 -0.00000000000E+00 -0.00000000000E+00 -0.41449050404E+03  0.41449050404E+03  0.00000000000E+00 0. -1.
         21    1    1    2  503  505 -0.30866245134E+02  0.91486226149E+01 -0.29045873690E+02  0.43359948833E+02  0.00000000000E+00 0. -1.
         21    1    1    2  504  502  0.81412590182E+02  0.16292520430E+02  0.91961060977E+03  0.92335103274E+03  0.00000000000E+00 0.  1.
         21    1    1    2  505  504 -0.10489658919E+03 -0.89869644293E+02 -0.34457091770E+03  0.37122629852E+03  0.00000000000E+00 0. -1.
          2    1    1    2  501    0  0.54350244139E+02  0.64428501248E+02  0.77397148722E+02  0.11443469509E+03  0.00000000000E+00 0. -1.
<scales pt_clust_3="32.19351" pt_clust_4="82.88612" pt_clust_5="141.45571" pt_clust_6="14000.00000"></scales>
<clustering>
<clus scale="   32.194">  2  3  1 -1</clus>
<clus scale="   82.886">  1  4  2 -1</clus>
<clus scale="  141.456">  2  5  1 -1</clus>
<clus scale="   82.886">  1  3  2 -1</clus>
</clustering>
</event>
<event>
 6    0  0.1622933E+002  0.1104140E+03  0.7546771E-02  0.1259805E+00
          1   -1    0    0  504    0 -0.00000000000E+00  0.00000000000E+00  0.15411421879E+04  0.15411421879E+04  0.00000000000E+00 0.  1.
         21   -1    0    0  503  502  0.00000000000E+00 -0.00000000000E+00 -0.94028334876E+02  0.94028334876E+02  0.00000000000E+00 0.  1.
         21    1    1    2  503  501 -0.51313585507E+01  0.33988248540E+02  0.40829200722E+02  0.53371860666E+02  0.00000000000E+00 0. -1.
         21    1    1    2  504  505 -0.90488804834E+01  0.47375147021E+02  0.24389884305E+03  0.24862206748E+03  0.00000000000E+00 0. -1.
         21    1    1    2  505  502 -0.10500034646E+03 -0.32917082621E+02 -0.45051850273E+02  0.11890448393E+03  0.00000000000E+00 0.  1.
          1    1    1    2  501    0  0.11918058550E+03 -0.48446312940E+02  0.12074376595E+04  0.12142721107E+04  0.00000000000E+00 0.  1.
<scales pt_clust_3="34.37342" pt_clust_4="49.15593" pt_clust_5="14000.00000" pt_clust_6="110.41403"></scales>
<clustering>
<clus scale="   34.373">  2  3  1 -1</clus>
<clus scale="   49.156">  1  4  2 -1</clus>
<clus scale="  110.414">  1  6  2 -1</clus>
<clus scale="   34.373">  2  3  1 -1</clus>
</clustering>
</event>
<event>
 6    0  0.1622933E+002  0.2965512E+03  0.7546771E-02  0.1086977E+00
         21   -1    0    0  505  502  0.00000000000E+00  0.00000000000E+00  0.49529365332E+03  0.49529365332E+03  0.00000000000E+00 0. -1.
          2   -1    0    0  503    0 -0.00000000000E+00 -0.00000000000E+00 -0.10691116832E+04  0.10691116832E+04  0.00000000000E+00 0. -1.
         21    1    1    2  503  504 -0.58475386267E+02 -0.88653662733E+01 -0.86705369017E+02  0.10495611719E+03  0.00000000000E+00 0. -1.
         21    1    1    2  504  502 -0.25985324360E+01  0.84583019456E+02 -0.68546536942E+02  0.10890209951E+03  0.00000000000E+00 0. -1.
         21    1    1    2  505  501 -0.48553536831E+02 -0.29625858519E+03  0.39749855008E+03  0.49812818888E+03  0.00000000000E+00 0. -1.
          2    1    1    2  501    0  0.10962745553E+03  0.22054093201E+03 -0.81606467403E+03  0.85241893099E+03  0.00000000000E+00 0. -1.
<scales pt_clust_3="59.14360" pt_clust_4="84.14926" pt_clust_5="296.55123" pt_clust_6="14000.00000"></scales>
<clustering>
<clus scale="   59.144">  2  3  1 -1</clus>
<clus scale="   84.149">  2  4  1 -1</clus>
<clus scale="  296.551">  1  5  2 -1</clus>
<clus scale="  296.551">  1  3  2 -1</clus>
</clustering>
</event>
<event>
 6    0  0.1622933E+002  0.1276943E+03  0.7546771E-02  0.1230918E+00
         21   -1    0    0  503  502  0.00000000000E+00  0.00000000000E+00  0.34612136475E+03  0.34612136475E+03  0.00000000000E+00 0. -1.
          1   -1    0    0  505    0 -0.00000000000E+00 -0.00000000000E+00 -0.25925643116E+04  0.25925643116E+04  0.00000000000E+00 0. -1.
         21    1    1    2  503  501 -0.78188100484E+02  0.10119395259E+03  0.31317096395E+03  0.33827451539E+03  0.00000000000E+00 0. -1.
         21    1    1    2  504  502  0.54424244706E+02  0.69247473660E+02 -0.16571549365E+03  0.18766682140E+03  0.00000000000E+00 0. -1.
         21    1    1    2  505  504  0.47683391553E+02 -0.33888714299E+02 -0.10952957140E+03  0.12417277398E+03  0.00000000000E+00 0. -1.
          1    1    1    2  501    0 -0.23919535774E+02 -0.13655271195E+03 -0.22843688458E+04  0.22885715656E+04  0.00000000000E+00 0. -1.
<scales pt_clust_3="14000.00000" pt_clust_4="88.37478" pt_clust_5="58.49915" pt_clust_6="127.69432"></scales>
<clustering>
<clus scale="   58.499">  2  5  1 -1</clus>
<clus scale="   88.375">  2  4  1 -1</clus>
<clus scale="  127.694">  2  6  1 -1</clus>
<clus scale="  127.694">  1  3  2 -1</clus>
</clustering>
</event>
<event>
 6    0  0.1622933E+002  0.1345325E+03  0.7546771E-02  0.1220881E+00
         21   -1    0    0  505  502  0.00000000000E+00  0.00000000000E+00  0.48254973340E+03  0.48254973340E+03  0.00000000000E+00 0.  1.
          1   -1    0    0  504    0 -0.00000000000E+00 -0.00000000000E+00 -0.82667332975E+03  0.82667332975E+03  0.00000000000E+00 0.  1.
         21    1    1    2  503  502 -0.54476720706E+02 -0.16009070378E+03  0.42908509461E+03  0.46120577290E+03  0.00000000000E+00 0.  1.
         21    1    1    2  504  503  0.13082916362E+03  0.28709940089E+02 -0.39059186926E+03  0.41291953095E+03  0.00000000000E+00 0.  1.
         21    1    1    2  505  501  0.18871695346E+02  0.29412199115E+02 -0.87181338931E+01  0.36016998773E+02  0.00000000000E+00 0. -1.
          1    1    1    2  501    0 -0.95224138262E+02  0.10196856457E+03 -0.37389868781E+03  0.39908076052E+03  0.00000000000E+00 0.  1.
<scales pt_clust_3="132.62440" pt_clust_4="134.53251" pt_clust_5="34.94593" pt_clust_6="14000.00000"></scales>
<clustering>
<clus scale="   34.946">  1  5  2 -1</clus>
<clus scale="  134.533">  2  4  1 -1</clus>
<clus scale="  132.624">  1  3  2 -1</clus>
<clus scale="   34.946">  1  3  2 -1</clus>
</clustering>
</event>
<event>
 6    0  0.1622933E+002  0.9730898E+03  0.7546771E-02  0.9338562E-01
          2   -1    0    0  505    0 -0.00000000000E+00  0.00000000000E+00  0.44602509103E+04  0.44602509103E+04  0.00000000000E+00 0.  1.
         21   -1    0    0  504  502  0.00000000000E+00 -0.00000000000E+00 -0.21116853943E+03  0.21116853943E+03  0.00000000000E+00 0.  1.
         21    1    1    2  503  502 -0.25045719216E+02  0.37744398114E+02  0.57021802155E+02  0.72824539553E+02  0.00000000000E+00 0.  1.
         21    1    1    2  504  501  0.76150137530E+02 -0.19102624466E+03  0.24582985553E+03  0.32050302255E+03  0.00000000000E+00 0. -1.
         21    1    1    2  505  503 -0.17713762808E+03  0.88719269878E+03  0.22858885430E+04  0.24584090495E+04  0.00000000000E+00 0.  1.
          2    1    1    2  501    0  0.12603320977E+03 -0.73391085223E+03  0.16603421703E+04  0.18196828381E+04  0.00000000000E+00 0.  1.
<scales pt_clust_3="32.83128" pt_clust_4="118.11378" pt_clust_5="958.07860" pt_clust_6="118.11378"></scales>
<clustering>
<clus scale="   32.831">  3  5 -1 -1</clus>
<clus scale="  118.114">  4  6 -1 -1</clus>
<clus scale="  958.079">  1  3  2 -1</clus>
<clus scale="  973.090">  2  3  1 -1</clus>
</clustering>
</event>
<event>
 6    0  0.1622933E+002  0.1296222E+03  0.7546771E-02  0.1228017E+00
          2   -1    0    0  504    0 -0.00000000000E+00  0.00000000000E+00  0.12076959689E+04  0.12076959689E+04  0.00000000000E+00 0. -1.
         21   -1    0    0  503  502  0.00000000000E+00 -0.00000000000E+00 -0.36839299489E+03  0.36839299489E+03  0.00000000000E+00 0.  1.
         21    1    1    2  503  501  0.44329352861E+02 -0.24083183131E+02 -0.34340143036E+03  0.34708735732E+03  0.00000000000E+00 0.  1.
         21    1    1    2  504  505  0.32822861107E+02 -0.37703250846E+01  0.34117853278E+02  0.47492983427E+02  0.00000000000E+00 0. -1.
         21    1    1    2  505  502 -0.83138202730E+02 -0.10877988578E+03  0.66540275558E+03  0.67934221968E+03  0.00000000000E+00 0. -1.
          2    1    1    2  501    0  0.59859887620E+01  0.13663339400E+03  0.48318379549E+03  0.50216640334E+03  0.00000000000E+00 0. -1.
<scales pt_clust_3="50.49730" pt_clust_4="33.03870" pt_clust_5="14000.00000" pt_clust_6="129.62216"></scales>
<clustering>
<clus scale="   33.039">  1  4  2 -1</clus>
<clus scale="   50.497">  2  3  1 -1</clus>
<clus scale="  129.622">  2  6  1 -1</clus>
<clus scale="   50.497">  2  3  1 -1</clus>
</clustering>
</event>
<event>
 6    0  0.1622933E+002  0.1852073E+03  0.7546771E-02  0.1162856E+00
          1   -1    0    0  503    0 -0.00000000000E+00  0.00000000000E+00  0.23943137899E+04  0.23943137899E+04  0.00000000000E+00 0.  1.
         21   -1    0    0  504  502  0.00000000000E+00 -0.00000000000E+00 -0.56157350317E+02  0.56157350317E+02  0.00000000000E+00 0. -1.
         21    1    1    2  503  502  0.20610015414E+03 -0.65613439721E+02  0.93299016724E+03  0.95773328707E+03  0.00000000000E+00 0.  1.
         21    1    1    2  504  505 -0.57444065723E+02 -0.21392362452E+00 -0.17380212007E+02  0.60016149656E+02  0.00000000000E+00 0. -1.
         21    1    1    2  505  501 -0.10097009998E+03  0.32551841232E+02  0.72010857891E+03  0.72788113650E+03  0.00000000000E+00 0.  1.
          1    1    1    2  501    0 -0.47685988436E+02  0.33275522113E+02  0.70243790542E+03  0.70484056697E+03  0.00000000000E+00 0.  1.
<scales pt_clust_3="177.99059" pt_clust_4="57.44446" pt_clust_5="37.90339" pt_clust_6="37.90339"></scales>
<clustering>
<clus scale="   37.903">  5  6 -1 -1</clus>
<clus scale="   57.444">  2  4  1 -1</clus>
<clus scale="  177.991">  2  3  1 -1</clus>
<clus scale="   57.444">  2  3  1 -1</clus>
</clustering>
</event>
<event>
 6    0  0.1622933E+002  0.7196391E+02  0.7546771E-02  0.1353539E+00
         -2   -1    0    0    0  501 -0.00000000000E+00  0.00000000000E+00  0.25770912374E+03  0.25770912374E+03  0.00000000000E+00 0. -1.
         21   -1    0    0  503  502  0.00000000000E+00 -0.00000000000E+00 -0.80221930989E+03  0.80221930989E+03  0.00000000000E+00 0. -1.
         21    1    1    2  503  505  0.59271776077E+02 -0.39552501746E+02 -0.74749536426E+03  0.75088405458E+03  0.00000000000E+00 0. -1.
         21    1    1    2  504  502 -0.77261196176E+02  0.55141466281E+02  0.13882541219E+02  0.95930176112E+02  0.00000000000E+00 0. -1.
         21    1    1    2  505  501  0.23207632840E+02  0.37875375741E+02  0.91196039096E+02  0.10143892673E+03  0.00000000000E+00 0. -1.
         -2    1    1    2    0  504 -0.52182127413E+01 -0.53464340275E+02  0.97906597797E+02  0.11167527621E+03  0.00000000000E+00 0. -1.
<scales pt_clust_3="14000.00000" pt_clust_4="71.96391" pt_clust_5="44.42002" pt_clust_6="30.50613"></scales>
<clustering>
<clus scale="   44.420">  1  5  2 -1</clus>
<clus scale="   30.506">  1  6  2 -1</clus>
<clus scale="   71.964">  1  4  2 -1</clus>
<clus scale="   71.964">  2  3  1 -1</clus>
</clustering>
</event>
<event>
 6    0  0.1622933E+002  0.1000065E+03  0.7546771E-02  0.1280282E+00
         21   -1    0    0  501  502  0.00000000000E+00  0.00000000000E+00  0.18766649216E+04  0.18766649216E+04  0.00000000000E+00 0.  1.
          1   -1    0    0  503    0 -0.00000000000E+00 -0.00000000000E+00 -0.44950726127E+03  0.44950726127E+03  0.00000000000E+00 0. -1.
         21    1    1    2  503  505  0.47599204201E+02 -0.55583869493E+00 -0.28064865510E+03  0.28465709337E+03  0.00000000000E+00 0. -1.
         21    1    1    2  504  502 -0.10016680262E+03 -0.62939903712E+01  0.18454332863E+04  0.18481604413E+04  0.00000000000E+00 0.  1.
         21    1    1    2  505  504 -0.20554866847E+02  0.47031496436E+02 -0.41015657480E+02  0.65701966231E+02  0.00000000000E+00 0. -1.
          1    1    1    2  501    0  0.73122465267E+02 -0.40181667369E+02 -0.96611313425E+02  0.12765268192E+03  0.00000000000E+00 0. -1.
<scales pt_clust_3="47.60245" pt_clust_4="14000.00000" pt_clust_5="47.15627" pt_clust_6="100.00649"></scales>
<clustering>
<clus scale="   47.602">  2  3  1 -1</clus>
<clus scale="   47.156">  2  5  1 -1</clus>
<clus scale="  100.006">  2  6  1 -1</clus>
<clus scale="  100.006">  1  3  2 -1</clus>
</clustering>
</event>
<event>
 6    0  0.1622933E+002  0.1072568E+03  0.7546771E-02  0.1265736E+00
         21   -1    0    0  504  502  0.00000000000E+00  0.00000000000E+00  0.16346737193E+03  0.16346737193E+03  0.00000000000E+00 0.  1.
          3   -1    0    0  503    0 -0.00000000000E+00 -0.00000000000E+00 -0.53965260270E+03  0.53965260270E+03  0.00000000000E+00 0. -1.
         21    1    1    2  503  502  0.32095647249E+02  0.46064709051E+02 -0.76022293330E+02  0.94506492239E+02  0.00000000000E+00 0.  1.
         21    1    1    2  504  505  0.54906196113E+02  0.73724403105E+02  0.12514436402E+03  0.15527746079E+03  0.00000000000E+00 0.  1.
         21    1    1    2  505  501 -0.34966351077E+02 -0.49420171435E+02 -0.25218102225E+03  0.25934584445E+03  0.00000000000E+00 0. -1.
          3    1    1    2  501    0 -0.52035492284E+02 -0.70368940721E+02 -0.17312627921E+03  0.19399017714E+03  0.00000000000E+00 0. -1.
<scales pt_clust_3="56.14346" pt_clust_4="93.78445" pt_clust_5="43.28453" pt_clust_6="43.28453"></scales>
<clustering>
<clus scale="   43.285">  5  6 -1 -1</clus>
<clus scale="   56.143">  2  3  1 -1</clus>
<clus scale="   93.784">  1  4  2 -1</clus>
<clus scale="   93.784">  1  3  2 -1</clus>
</clustering>
</event>
<event>
 6    0  0.1622933E+002  0.9305547E+02  0.7546771E-02  0.1295617E+00
          1   -1    0    0  503    0 -0.00000000000E+00  0.00000000000E+00  0.76770745780E+02  0.76770745780E+02  0.00000000000E+00 0. -1.
         21   -1    0    0  505  502  0.00000000000E+00 -0.00000000000E+00 -0.16563770235E+04  0.16563770235E+04  0.00000000000E+00 0.  1.
         21    1    1    2  503  504  0.32258935744E+02  0.67729779779E+01  0.10384974456E+00  0.32962447585E+02  0.00000000000E+00 0. -1.
         21    1    1    2  504  502 -0.52232569063E+02  0.39074035055E+02 -0.34725757689E+02  0.73897900738E+02  0.00000000000E+00 0.  1.
         21    1    1    2  505  501 -0.74642173837E+02  0.53001387314E+02 -0.14648680998E+04  0.14677258432E+04  0.00000000000E+00 0.  1.
          1    1    1    2  501    0  0.94615807156E+02 -0.98848400347E+02 -0.80116270036E+02  0.15856157775E+03  0.00000000000E+00 0. -1.
<scales pt_clust_3="32.96228" pt_clust_4="58.70488" pt_clust_5="93.05547" pt_clust_6="14000.00000"></scales>
<clustering>
<clus scale="   32.962">  1  3  2 -1</clus>
<clus scale="   58.705">  1  4  2 -1</clus>
<clus scale="   93.055">  2  5  1 -1</clus>
<clus scale="   93.055">  2  3  1 -1</clus>
</clustering>
</event>
<event>
 6    0  0.1622933E+002  0.7814621E+02  0.7546771E-02  0.1334396E+00
          1   -1    0    0  504    0 -0.00000000000E+00  0.00000000000E+00  0.33526801303E+03  0.33526801303E+03  0.00000000000E+00 0. -1.
         21   -1    0    0  503  502  0.00000000000E+00 -0.00000000000E+00 -0.58532734625E+03  0.58532734625E+03  0.00000000000E+00 0. -1.
         21    1    1    2  503  505  0.47166687124E+02  0.57720023745E+01 -0.52229878716E+03  0.52445594233E+03  0.00000000000E+00 0. -1.
         21    1    1    2  504  502 -0.46209674544E+01  0.67056961673E+02 -0.19470838295E+02  0.69979304033E+02  0.00000000000E+00 0. -1.
         21    1    1    2  505  501  0.16587893906E+01 -0.92324736156E+02  0.14698121220E+03  0.17358019826E+03  0.00000000000E+00 0. -1.
          1    1    1    2  501    0 -0.44204509060E+02  0.19495772108E+02  0.14472908002E+03  0.15257991465E+03  0.00000000000E+00 0. -1.
<scales pt_clust_3="47.51855" pt_clust_4="14000.00000" pt_clust_5="78.14621" pt_clust_6="45.75176"></scales>
<clustering>
<clus scale="   47.519">  2  3  1 -1</clus>
<clus scale="   45.752">  1  6  2 -1</clus>
<clus scale="   78.146">  1  5  2 -1</clus>
<clus scale="   47.519">  2  3  1 -1</clus>
</clustering>
</event>
<event>
 6    0  0.1622933E+002  0.9398995E+02  0.7546771E-02  0.1293467E+00
         21   -1    0    0  503  502  0.00000000000E+00  0.00000000000E+00  0.16461205464E+03  0.16461205464E+03  0.00000000000E+00 0.  1.
          2   -1    0    0  505    0 -0.00000000000E+00 -0.00000000000E+00 -0.16673300564E+04  0.16673300564E+04  0.00000000000E+00 0. -1.
         21    1    1    2  503  501  0.61180640074E+01  0.93398536163E+02  0.14049025768E+03  0.16881418710E+03  0.00000000000E+00 0.  1.
         21    1    1    2  504  502 -0.10978933789E+02  0.59009997154E+02 -0.63513295253E+03  0.63796283916E+03  0.00000000000E+00 0. -1.
         21    1    1    2  505  504 -0.28215825914E+02 -0.30929071325E+02 -0.10009867108E+03  0.10850107943E+03  0.00000000000E+00 0.  1.
          2    1    1    2  501    0  0.33076695696E+02 -0.12147946199E+03 -0.90797663582E+03  0.91666400533E+03  0.00000000000E+00 0. -1.
<scales pt_clust_3="14000.00000" pt_clust_4="51.56705" pt_clust_5="41.86574" pt_clust_6="93.98995"></scales>
<clustering>
<clus scale="   41.866">  2  5  1 -1</clus>
<clus scale="   51.567">  2  4  1 -1</clus>
<clus scale="   93.990">  2  6  1 -1</clus>
<clus scale="   93.990">  1  3  2 -1</clus>
</clustering>
</event>
<event>
 6    0  0.1622933E+002  0.1182871E+03  0.7546771E-02  0.1245950E+00
         21   -1    0    0  504  502  0.00000000000E+00  0.00000000000E+00  0.42807664599E+02  0.42807664599E+02  0.00000000000E+00 0. -1.
          2   -1    0    0  505    0 -0.00000000000E+00 -0.00000000000E+00 -0.15171878816E+04  0.15171878816E+04  0.00000000000E+00 0. -1.
         21    1    1    2  503  502 -0.99993333010E+01  0.29643907532E+02 -0.63439304910E+02  0.70733961629E+02  0.00000000000E+00 0. -1.
         21    1    1    2  504  501 -0.44316151303E+02  0.28309276459E+02 -0.15659684537E+01  0.52609777201E+02  0.00000000000E+00 0. -1.
         21    1    1    2  505  503 -0.68904912904E+02  0.43125398713E+01 -0.10937869414E+03  0.12934521156E+03  0.00000000000E+00 0. -1.
          2    1    1    2  501    0  0.12322039751E+03 -0.62265723863E+02 -0.12999962495E+04  0.13073065958E+04  0.00000000000E+00 0. -1.
<scales pt_clust_3="31.28495" pt_clust_4="69.66004" pt_clust_5="118.28707" pt_clust_6="14000.00000"></scales>
<clustering>
<clus scale="   31.285">  1  3  2 -1</clus>
<clus scale="   69.660">  1  4  2 -1</clus>
<clus scale="  118.287">  1  5  2 -1</clus>
<clus scale="   31.285">  1  3  2 -1</clus>
</clustering>
</event>
<event>
 6    0  0.1622933E+002  0.1118512E+03  0.7546771E-02  0.1257180E+00
         -3   -1    0    0    0  501 -0.00000000000E+00  0.00000000000E+00  0.90323669503E+02  0.90323669503E+02  0.00000000000E+00 0. -1.
         21   -1    0    0  505  502  0.00000000000E+00 -0.00000000000E+00 -0.66208270136E+03  0.66208270136E+03  0.00000000000E+00 0.  1.
         21    1    1    2  503  502  0.25096912229E+02 -0.12739282365E+03 -0.55123482014E+03  0.56632023931E+03  0.00000000000E+00 0.  1.
         21    1    1    2  504  501 -0.47839530905E+02  0.11615394777E+02 -0.12385896178E+01  0.49245022259E+02  0.00000000000E+00 0.  1.
         21    1    1    2  505  504  0.11131278028E+00  0.67660465430E+02 -0.41323531007E+02  0.79281682548E+02  0.00000000000E+00 0. -1.
         -3    1    1    2    0  503  0.22631305896E+02  0.48116963442E+02  0.22037908911E+02  0.57559426740E+02  0.00000000000E+00 0. -1.
<scales pt_clust_3="14000.00000" pt_clust_4="49.22944" pt_clust_5="111.85124" pt_clust_6="55.42150"></scales>
<clustering>
<clus scale="   49.229">  1  4  2 -1</clus>
<clus scale="   55.422">  1  6  2 -1</clus>
<clus scale="  111.851">  1  5  2 -1</clus>
<clus scale="  111.851">  2  3  1 -1</clus>
</clustering>
</event>
<event>
 6    0  0.1622933E+002  0.2063450E+03  0.7546771E-02  0.1144493E+00
          1   -1    0    0  505    0 -0.00000000000E+00  0.00000000000E+00  0.30233836952E+04  0.30233836952E+04  0.00000000000E+00 0. -1.
         21   -1    0    0  501  502  0.00000000000E+00 -0.00000000000E+00 -0.10467638235E+04  0.10467638235E+04  0.00000000000E+00 0.  1.
         21    1    1    2  503  504 -0.19315712655E+02 -0.11956707879E+03  0.44695741947E+03  0.46307701077E+03  0.00000000000E+00 0. -1.
         21    1    1    2  504  502  0.39706129518E+02 -0.58994627949E+02 -0.10310322756E+04  0.10334817348E+04  0.00000000000E+00 0.  1.
         21    1    1    2  505  503 -0.13317401805E+01 -0.38903534032E+02  0.36622515186E+03  0.36828809422E+03  0.00000000000E+00 0.  1.
          1    1    1    2  501    0 -0.19058676682E+02  0.21746524077E+03  0.21944695760E+04  0.22053006789E+04  0.00000000000E+00 0. -1.
<scales pt_clust_3="37.44561" pt_clust_4="71.11218" pt_clust_5="37.44561" pt_clust_6="195.48781"></scales>
<clustering>
<clus scale="   37.446">  3  5 -1 -1</clus>
<clus scale="   71.112">  2  4  1 -1</clus>
<clus scale="  195.488">  1  6  2 -1</clus>
<clus scale="   71.112">  2  3  1 -1</clus>
</clustering>
</event>
<event>
 6    0  0.1622933E+002  0.1651755E+03  0.7546771E-02  0.1182975E+00
          1   -1    0    0  505    0 -0.00000000000E+00  0.00000000000E+00  0.22445897047E+03  0.22445897047E+03  0.00000000000E+00 0.  1.
         21   -1    0    0  504  502  0.00000000000E+00 -0.00000000000E+00 -0.21089014137E+03  0.21089014137E+03  0.00000000000E+00 0.  1.
         21    1    1    2  503  501 -0.12811347746E+02 -0.46100397903E+02 -0.32371567135E+01  0.47956819134E+02  0.00000000000E+00 0.  1.
         21    1    1    2  504  503  0.16888099402E+02  0.14956105487E+03 -0.77772826595E+02  0.16941761890E+03  0.00000000000E+00 0.  1.
         21    1    1    2  505  502 -0.50918283167E+02  0.19799025722E+02  0.61036277838E+02  0.81915201230E+02  0.00000000000E+00 0.  1.
          1    1    1    2  501    0  0.46841531512E+02 -0.12325968269E+03  0.33542534572E+02  0.13605947257E+03  0.00000000000E+00 0.  1.
<scales pt_clust_3="33.55381" pt_clust_4="155.49998" pt_clust_5="54.63216" pt_clust_6="33.55381"></scales>
<clustering>
<clus scale="   33.554">  3  6 -1 -1</clus>
<clus scale="   54.632">  1  5  2 -1</clus>
<clus scale="  155.500">  2  4  1 -1</clus>
<clus scale="  155.500">  2  3  1 -1</clus>
</clustering>
</event>
<event>
 6    0  0.1622933E+002  0.1471327E+03  0.7546771E-02  0.1204041E+00
          3   -1    0    0  503    0 -0.00000000000E+00  0.00000000000E+00  0.59752062701E+03  0.59752062701E+03  0.00000000000E+00 0.  1.
         21   -1    0    0  505  502  0.00000000000E+00 -0.00000000000E+00 -0.41571052678E+03  0.41571052678E+03  0.00000000000E+00 0.  1.
         21    1    1    2  503  504  0.31419147810E+02 -0.15517989449E+02  0.49672869229E+02  0.60789512114E+02  0.00000000000E+00 0. -1.
         21    1    1    2  504  502  0.60215784406E+02  0.71989663944E+02  0.76313150995E+02  0.12096342183E+03  0.00000000000E+00 0.  1.
         21    1    1    2  505  501 -0.14786988821E+03 -0.54762395778E+02 -0.36987132877E+03  0.40208111579E+03  0.00000000000E+00 0.  1.
          3    1    1    2  501    0  0.56234955991E+02 -0.17092787179E+01  0.42569540878E+03  0.42939710404E+03  0.00000000000E+00 0.  1.
<scales pt_clust_3="35.04241" pt_clust_4="147.13271" pt_clust_5="14000.00000" pt_clust_6="82.19745"></scales>
<clustering>
<clus scale="   35.042">  1  3  2 -1</clus>
<clus scale="   82.197">  1  6  2 -1</clus>
<clus scale="  147.133">  1  4  2 -1</clus>
<clus scale="  147.133">  2  3  1 -1</clus>
</clustering>
</event>
<event>
 6    0  0.1622933E+002  0.1459272E+03  0.7546771E-02  0.1205569E+00
          2   -1    0    0  504    0 -0.00000000000E+00  0.00000000000E+00  0.66216117235E+03  0.66216117235E+03  0.00000000000E+00 0.  1.
         21   -1    0    0  505  502  0.00000000000E+00 -0.00000000000E+00 -0.70576960882E+02  0.70576960882E+02  0.00000000000E+00 0.  1.
         21    1    1    2  503  501  0.15097720394E+02  0.74001579162E+02  0.11904629480E+03  0.14098296062E+03  0.00000000000E+00 0.  1.
         21    1    1    2  504  502 -0.32769288647E+02  0.11191769723E+02  0.31089922848E+03  0.31282169403E+03  0.00000000000E+00 0.  1.
         21    1    1    2  505  503  0.37055946365E+02 -0.14226367743E+03  0.56010607887E+02  0.15731905566E+03  0.00000000000E+00 0.  1.
          2    1    1    2  501    0 -0.19384378113E+02  0.57070328544E+02  0.10562808031E+03  0.12161442293E+03  0.00000000000E+00 0.  1.
<scales pt_clust_3="31.96808" pt_clust_4="34.62776" pt_clust_5="141.47139" pt_clust_6="31.96808"></scales>
<clustering>
<clus scale="   31.968">  3  6 -1 -1</clus>
<clus scale="   34.628">  1  4  2 -1</clus>
<clus scale="  141.471">  2  5  1 -1</clus>
<clus scale="  141.471">  2  3  1 -1</clus>
</clustering>
</event>
<event>
 6    0  0.1622933E+002  0.5890179E+02  0.7546771E-02  0.1402499E+00
         21   -1    0    0  504  502  0.00000000000E+00  0.00000000000E+00  0.24905106204E+03  0.24905106204E+03  0.00000000000E+00 0. -1.
          1   -1    0    0  505    0 -0.00000000000E+00 -0.00000000000E+00 -0.98033108945E+03  0.98033108945E+03  0.00000000000E+00 0. -1.
         21    1    1    2  503  501 -0.37066131557E+02 -0.66662084071E+02 -0.13596190751E+03  0.15589538754E+03  0.00000000000E+00 0. -1.
         21    1    1    2  504  503  0.41286159358E+02  0.41495849694E+02  0.23036940018E+03  0.23768995148E+03  0.00000000000E+00 0. -1.
         21    1    1    2  505  502  0.18520890588E+02 -0.44062689659E+02 -0.18887969806E+03  0.19483347850E+03  0.00000000000E+00 0. -1.
          1    1    1    2  501    0 -0.22740918389E+02  0.69228924037E+02 -0.63680782203E+03  0.64096333396E+03  0.00000000000E+00 0. -1.
<scales pt_clust_3="14000.00000" pt_clust_4="58.90179" pt_clust_5="47.79690" pt_clust_6="34.40625"></scales>
<clustering>
<clus scale="   47.797">  2  5  1 -1</clus>
<clus scale="   34.406">  2  6  1 -1</clus>
<clus scale="   58.902">  1  4  2 -1</clus>
<clus scale="   58.902">  1  3  2 -1</clus>
</clustering>
</event>
<event>
 6    0  0.1622933E+002  0.1428154E+03  0.7546771E-02  0.1209590E+00
         21   -1    0    0  504  502  0.00000000000E+00  0.00000000000E+00  0.14205447537E+03  0.14205447537E+03  0.00000000000E+00 0.  1.
         -4   -1    0    0    0  501 -0.00000000000E+00 -0.00000000000E+00 -0.15907445425E+04  0.15907445425E+04  0.00000000000E+00 0.  1.
         21    1    1    2  503  505  0.50694683787E+02 -0.79589759790E+02 -0.29104218234E+03  0.30595756688E+03  0.00000000000E+00 0.  1.
         21    1    1    2  504  501 -0.14212827106E+03  0.13741894707E+03 -0.18523637866E+03  0.27091867493E+03  0.00000000000E+00 0.  1.
         21    1    1    2  505  502  0.42028176472E+02 -0.14876691791E+02  0.85267480924E+02  0.96219680312E+02  0.00000000000E+00 0.  1.
         -4    1    1    2    0  503  0.49405410797E+02 -0.42952495492E+02 -0.10576789870E+04  0.10597030957E+04  0.00000000000E+00 0.  1.
<scales pt_clust_3="14000.00000" pt_clust_4="142.81541" pt_clust_5="44.58345" pt_clust_6="66.28501"></scales>
<clustering>
<clus scale="   44.583">  1  5  2 -1</clus>
<clus scale="   66.285">  2  6  1 -1</clus>
<clus scale="  142.815">  1  4  2 -1</clus>
<clus scale="   44.583">  1  3  2 -1</clus>
</clustering>
</event>
<event>
 6    0  0.1622933E+002  0.1592063E+03  0.7546771E-02  0.1189596E+00
          2   -1    0    0  503    0 -0.00000000000E+00  0.00000000000E+00  0.36216430893E+03  0.36216430893E+03  0.00000000000E+00 0. -1.
         21   -1    0    0  505  502  0.00000000000E+00 -0.00000000000E+00 -0.44120325877E+03  0.44120325877E+03  0.00000000000E+00 0. -1.
         21    1    1    2  503  502 -0.36880350556E+02  0.34544943910E+02 -0.30215385225E+02  0.58876845289E+02  0.00000000000E+00 0. -1.
         21    1    1    2  504  501  0.24772456104E+02 -0.19511154886E+03  0.11135069591E+03  0.22601143458E+03  0.00000000000E+00 0. -1.
         21    1    1    2  505  504  0.70205685480E+02  0.30268923512E+02 -0.30544680189E+03  0.31486948850E+03  0.00000000000E+00 0. -1.
          2    1    1    2  501    0 -0.58097791028E+02  0.13029768144E+03  0.14527254136E+03  0.20360979933E+03  0.00000000000E+00 0. -1.
<scales pt_clust_3="50.53230" pt_clust_4="159.20628" pt_clust_5="70.65671" pt_clust_6="14000.00000"></scales>
<clustering>
<clus scale="   50.532">  2  3  1 -1</clus>
<clus scale="   70.657">  2  5  1 -1</clus>
<clus scale="  159.206">  2  4  1 -1</clus>
<clus scale="   50.532">  2  3  1 -1</clus>
</clustering>
</event>
<event>
 6    0  0.1622933E+002  0.9969052E+02  0.7546771E-02  0.1280948E+00
          2   -1    0    0  503    0 -0.00000000000E+00  0.00000000000E+00  0.29928419409E+04  0.29928419409E+04  0.00000000000E+00 0. -1.
         21   -1    0    0  504  502  0.00000000000E+00 -0.00000000000E+00 -0.12238513448E+03  0.12238513448E+03  0.00000000000E+00 0.  1.
         21    1    1    2  503  502  0.58152260185E+02 -0.49126565945E+02  0.58184756445E+03  0.58680635059E+03  0.00000000000E+00 0. -1.
         21    1    1    2  504  505 -0.61578991462E+02 -0.40860597395E+02 -0.10123630364E+03  0.12534093419E+03  0.00000000000E+00 0.  1.
         21    1    1    2  505  501 -0.95764831460E+02  0.52794409781E+02  0.58532001184E+03  0.59544745268E+03  0.00000000000E+00 0. -1.
          2    1    1    2  501    0  0.99191562737E+02  0.37192753559E+02  0.18045255337E+04  0.18076323379E+04  0.00000000000E+00 0. -1.
<scales pt_clust_3="73.09602" pt_clust_4="73.90237" pt_clust_5="14000.00000" pt_clust_6="99.69052"></scales>
<clustering>
<clus scale="   73.902">  2  4  1 -1</clus>
<clus scale="   73.096">  2  3  1 -1</clus>
<clus scale="   99.691">  1  6  2 -1</clus>
<clus scale="   73.902">  2  3  1 -1</clus>
</clustering>
</event>
<event>
 6    0  0.1622933E+002  0.1036162E+03  0.7546771E-02  0.1272870E+00
         21   -1    0    0  504  502  0.00000000000E+00  0.00000000000E+00  0.13487504676E+03  0.13487504676E+03  0.00000000000E+00 0.  1.
          2   -1    0    0  503    0 -0.00000000000E+00 -0.00000000000E+00 -0.95236878582E+03  0.95236878582E+03  0.00000000000E+00 0. -1.
         21    1    1    2  503  502  0.30271636360E+02  0.11460209732E+03 -0.12167040521E+03  0.16986376948E+03  0.00000000000E+00 0.  1.
         21    1    1    2  504  505  0.34465901105E+02  0.30030096108E+02  0.80522368268E+02  0.92593503026E+02  0.00000000000E+00 0.  1.
         21    1    1    2  505  501 -0.70960074560E+01 -0.10383571163E+03 -0.98585318198E+02  0.14335715293E+03  0.00000000000E+00 0. -1.
          2    1    1    2  501    0 -0.57641530009E+02 -0.40796481800E+02 -0.67776038392E+03  0.68142940714E+03  0.00000000000E+00 0. -1.
<scales pt_clust_3="103.61624" pt_clust_4="45.71329" pt_clust_5="14000.00000" pt_clust_6="68.89136"></scales>
<clustering>
<clus scale="   45.713">  1  4  2 -1</clus>
<clus scale="   68.891">  2  6  1 -1</clus>
<clus scale="  103.616">  2  3  1 -1</clus>
<clus scale="   45.713">  1  3  2 -1</clus>
</clustering>
</event>
<event>
 6    0  0.1622933E+002  0.2940684E+03  0.7546771E-02  0.1088244E+00
         21   -1    0    0  504  502  0.00000000000E+00  0.00000000000E+00  0.22526180089E+04  0.22526180089E+04  0.00000000000E+00 0. -1.
          2   -1    0    0  503    0 -0.00000000000E+00 -0.00000000000E+00 -0.62687050382E+03  0.62687050382E+03  0.00000000000E+00 0.  1.
         21    1    1    2  503  505 -0.48387552101E+02  0.53353854883E+02 -0.15988944836E+03  0.17536426297E+03  0.00000000000E+00 0.  1.
         21    1    1    2  504  501  0.29741398448E+02  0.81760287937E+01  0.20506779493E+04  0.20509099078E+04  0.00000000000E+00 0. -1.
         21    1    1    2  505  502 -0.11807624218E+03  0.23913258663E+03 -0.11449205402E+03  0.29023236103E+03  0.00000000000E+00 0.  1.
          2    1    1    2  501    0  0.13672239583E+03 -0.30066247031E+03 -0.15054894184E+03  0.36298198091E+03  0.00000000000E+00 0.  1.
<scales pt_clust_3="71.50168" pt_clust_4="30.84474" pt_clust_5="14000.00000" pt_clust_6="294.06839"></scales>
<clustering>
<clus scale="   30.845">  1  4  2 -1</clus>
<clus scale="   71.502">  2  3  1 -1</clus>
<clus scale="  294.068">  2  6  1 -1</clus>
<clus scale="   30.845">  1  3  2 -1</clus>
</clustering>
</event>
<event>
 6    0  0.1622933E+002  0.2464539E+03  0.7546771E-02  0.1115567E+00
          1   -1    0    0  505    0 -0.00000000000E+00  0.00000000000E+00  0.57586369181E+03  0.57586369181E+03  0.00000000000E+00 0. -1.
         21   -1    0    0  504  502  0.00000000000E+00 -0.00000000000E+00 -0.46518291343E+03  0.46518291343E+03  0.00000000000E+00 0. -1.
         21    1    1    2  503  502  0.19194495646E+03 -0.66370032027E+02 -0.47887057229E+02  0.20866484541E+03  0.00000000000E+00 0. -1.
         21    1    1    2  504  501  0.72182872336E+02  0.54300515531E+02 -0.28115038855E+03  0.29530400273E+03  0.00000000000E+00 0. -1.
         21    1    1    2  505  503 -0.54083473387E+01 -0.32877575607E+02  0.12457135179E+02  0.35571975143E+02  0.00000000000E+00 0.  1.
          1    1    1    2  501    0 -0.25871948145E+03  0.44947092103E+02  0.42726108899E+03  0.50150578195E+03  0.00000000000E+00 0. -1.
<scales pt_clust_3="246.45390" pt_clust_4="90.01830" pt_clust_5="33.31944" pt_clust_6="14000.00000"></scales>
<clustering>
<clus scale="   33.319">  1  5  2 -1</clus>
<clus scale="   90.018">  2  4  1 -1</clus>
<clus scale="  246.454">  2  3  1 -1</clus>
<clus scale="   90.018">  2  3  1 -1</clus>
</clustering>
</event>
<event>
 6    0  0.1622933E+002  0.6879960E+02  0.7546771E-02  0.1364223E+00
          2   -1    0    0  503    0 -0.00000000000E+00  0.00000000000E+00  0.67421512004E+03  0.67421512004E+03  0.00000000000E+00 0. -1.
         21   -1    0    0  501  502  0.00000000000E+00 -0.00000000000E+00 -0.15381563738E+03  0.15381563738E+03  0.00000000000E+00 0. -1.
         21    1    1    2  503  505  0.10212244777E+02 -0.40323983661E+02  0.70601312808E+02  0.81944243067E+02  0.00000000000E+00 0. -1.
         21    1    1    2  504  502  0.45315380370E+02 -0.26367601868E+01 -0.12140573973E+03  0.12961400326E+03  0.00000000000E+00 0. -1.
         21    1    1    2  505  504 -0.95945053241E+02 -0.22238096184E+02  0.10485263639E+03  0.14385430658E+03  0.00000000000E+00 0. -1.
          2    1    1    2  501    0  0.40417428094E+02  0.65198840032E+02  0.46635127319E+03  0.47261820452E+03  0.00000000000E+00 0. -1.
<scales pt_clust_3="41.59704" pt_clust_4="45.47890" pt_clust_5="14000.00000" pt_clust_6="68.79960"></scales>
<clustering>
<clus scale="   41.597">  1  3  2 -1</clus>
<clus scale="   45.479">  2  4  1 -1</clus>
<clus scale="   68.800">  1  6  2 -1</clus>
<clus scale="   45.479">  2  3  1 -1</clus>
</clustering>
</event>
<event>
 6    0  0.1622933E+002  0.9019929E+02  0.7546771E-02  0.1302370E+00
          4   -1    0    0  505    0 -0.00000000000E+00  0.00000000000E+00  0.21675789071E+04  0.21675789071E+04  0.00000000000E+00 0. -1.
         21   -1    0    0  501  502  0.00000000000E+00 -0.00000000000E+00 -0.16402620738E+02  0.16402620738E+02  0.00000000000E+00 0.  1.
         21    1    1    2  503  502 -0.85365976086E+02  0.36910004774E+01  0.17468144056E+03  0.19445971057E+03  0.00000000000E+00 0.  1.
         21    1    1    2  504  503 -0.50667843488E+02  0.63374024028E+00  0.29106155114E+03  0.29543943295E+03  0.00000000000E+00 0. -1.
         21    1    1    2  505  504  0.94753261812E+01  0.32171434385E+02  0.19718310242E+03  0.20001489663E+03  0.00000000000E+00 0.  1.
          4    1    1    2  501    0  0.12655849339E+03 -0.36496175102E+02  0.14882501922E+04  0.14940674877E+04  0.00000000000E+00 0. -1.
<scales pt_clust_3="14000.00000" pt_clust_4="49.55450" pt_clust_5="33.53778" pt_clust_6="90.19929"></scales>
<clustering>
<clus scale="   33.538">  1  5  2 -1</clus>
<clus scale="   49.555">  1  4  2 -1</clus>
<clus scale="   90.199">  1  6  2 -1</clus>
<clus scale="   90.199">  2  3  1 -1</clus>
</clustering>
</event>
<event>
 6    0  0.1622933E+002  0.2662942E+03  0.7546771E-02  0.1103419E+00
         21   -1    0    0  503  502  0.00000000000E+00  0.00000000000E+00  0.22916173009E+03  0.22916173009E+03  0.00000000000E+00 0.  1.
          1   -1    0    0  505    0 -0.00000000000E+00 -0.00000000000E+00 -0.18456481385E+04  0.18456481385E+04  0.00000000000E+00 0.  1.
         21    1    1    2  503  504 -0.14099688100E+02 -0.74081376413E+02  0.15189983008E+03  0.16958894396E+03  0.00000000000E+00 0.  1.
         21    1    1    2  504  501  0.51137232627E+02  0.42954819674E+02 -0.42583946332E+03  0.43104452394E+03  0.00000000000E+00 0.  1.
         21    1    1    2  505  502 -0.18241867522E+02 -0.17888001086E+03 -0.84660493594E+02  0.19874159904E+03  0.00000000000E+00 0.  1.
          1    1    1    2  501    0 -0.18795677006E+02  0.21000656759E+03 -0.12578862815E+04  0.12754348016E+04  0.00000000000E+00 0.  1.
<scales pt_clust_3="75.41122" pt_clust_4="61.91791" pt_clust_5="242.50516" pt_clust_6="61.91791"></scales>
<clustering>
<clus scale="   61.918">  4  6 -1 -1</clus>
<clus scale="   75.411">  1  3  2 -1</clus>
<clus scale="  242.505">  1  5  2 -1</clus>
<clus scale="   75.411">  1  3  2 -1</clus>
</clustering>
</event>
<event>
 6    0  0.1622933E+002  0.1191636E+03  0.7546771E-02  0.1244483E+00
         21   -1    0    0  505  502  0.00000000000E+00  0.00000000000E+00  0.24377530766E+03  0.24377530766E+03  0.00000000000E+00 0. -1.
          2   -1    0    0  503    0 -0.00000000000E+00 -0.00000000000E+00 -0.12661489072E+04  0.12661489072E+04  0.00000000000E+00 0.  1.
         21    1    1    2  503  504 -0.49469203356E+02  0.22964577197E+02 -0.16348438148E+03  0.17234186048E+03  0.00000000000E+00 0.  1.
         21    1    1    2  504  502  0.41588587234E+02  0.80780420905E+02  0.21276344792E+03  0.23135118707E+03  0.00000000000E+00 0. -1.
         21    1    1    2  505  501  0.28207791940E+02  0.17460873780E+02 -0.62435918590E+01  0.33757133744E+02  0.00000000000E+00 0. -1.
          2    1    1    2  501    0 -0.20327175819E+02 -0.12120587188E+03 -0.10654090741E+04  0.10724740336E+04  0.00000000000E+00 0.  1.
<scales pt_clust_3="54.19122" pt_clust_4="119.16358" pt_clust_5="33.17471" pt_clust_6="14000.00000"></scales>
<clustering>
<clus scale="   33.175">  1  5  2 -1</clus>
<clus scale="   54.191">  2  3  1 -1</clus>
<clus scale="  119.164">  1  4  2 -1</clus>
<clus scale="   33.175">  1  3  2 -1</clus>
</clustering>
</event>
<event>
 6    0  0.1622933E+002  0.2244151E+03  0.7546771E-02  0.1130634E+00
          2   -1    0    0  504    0 -0.00000000000E+00  0.00000000000E+00  0.11714790045E+04  0.11714790045E+04  0.00000000000E+00 0.  1.
         21   -1    0    0  503  502  0.00000000000E+00 -0.00000000000E+00 -0.23588563079E+03  0.23588563079E+03  0.00000000000E+00 0.  1.
         21    1    1    2  503  501  0.29985716768E+02  0.22394579602E+02 -0.14452597065E+03  0.14929305610E+03  0.00000000000E+00 0.  1.
         21    1    1    2  504  505 -0.20037029657E+02 -0.23211884613E+02  0.40995189703E+03  0.41109710778E+03  0.00000000000E+00 0.  1.
         21    1    1    2  505  502  0.15570428233E+03  0.12938844415E+03  0.74911053300E+02  0.21586305594E+03  0.00000000000E+00 0.  1.
          2    1    1    2  501    0 -0.16565296944E+03 -0.12857113913E+03  0.59525639401E+03  0.63111141545E+03  0.00000000000E+00 0.  1.
<scales pt_clust_3="37.33161" pt_clust_4="30.66389" pt_clust_5="14000.00000" pt_clust_6="224.41506"></scales>
<clustering>
<clus scale="   30.664">  1  4  2 -1</clus>
<clus scale="   37.332">  2  3  1 -1</clus>
<clus scale="  224.415">  1  6  2 -1</clus>
<clus scale="   37.332">  2  3  1 -1</clus>
</clustering>
</event>
<event>
 6    0  0.1622933E+002  0.1447629E+03  0.7546771E-02  0.1207060E+00
         -4   -1    0    0    0  501 -0.00000000000E+00  0.00000000000E+00  0.23203236461E+03  0.23203236461E+03  0.00000000000E+00 0. -1.
         21   -1    0    0  503  502  0.00000000000E+00 -0.00000000000E+00 -0.64829703183E+03  0.64829703183E+03  0.00000000000E+00 0. -1.
         21    1    1    2  503  505  0.12443612440E+03 -0.44021024459E+02 -0.59540926980E+03  0.60986424573E+03  0.00000000000E+00 0. -1.
         21    1    1    2  504  502 -0.60236364185E+02  0.86055157301E+01  0.46767989189E+02  0.76744506540E+02  0.00000000000E+00 0. -1.
         21    1    1    2  505  501  0.17201953006E+01 -0.32654088254E+02  0.22873542124E+01  0.32779269987E+02  0.00000000000E+00 0.  1.
         -4    1    1    2    0  504 -0.65919955520E+02  0.68069596983E+02  0.13008925918E+03  0.16094137418E+03  0.00000000000E+00 0. -1.
<scales pt_clust_3="132.41869" pt_clust_4="50.74724" pt_clust_5="32.69937" pt_clust_6="50.74724"></scales>
<clustering>
<clus scale="   32.699">  1  5  2 -1</clus>
<clus scale="   50.747">  4  6 -1 -1</clus>
<clus scale="  132.419">  2  3  1 -1</clus>
<clus scale="  132.419">  2  3  1 -1</clus>
</clustering>
</event>
<event>
 6    0  0.1622933E+002  0.1017228E+03  0.7546771E-02  0.1276714E+00
         21   -1    0    0  503  502  0.00000000000E+00  0.00000000000E+00  0.76837125179E+02  0.76837125179E+02  0.00000000000E+00 0. -1.
          2   -1    0    0  505    0 -0.00000000000E+00 -0.00000000000E+00 -0.85047971552E+03  0.85047971552E+03  0.00000000000E+00 0. -1.
         21    1    1    2  503  504 -0.69184429194E+02 -0.55775061392E+02  0.34853084514E+02  0.95457216680E+02  0.00000000000E+00 0. -1.
         21    1    1    2  504  501  0.59730946829E+02  0.45711112924E+02 -0.22373525802E+03  0.23603973719E+03  0.00000000000E+00 0. -1.
         21    1    1    2  505  502 -0.38900489906E+02 -0.31143235684E+02 -0.22048150037E+03  0.22604256513E+03  0.00000000000E+00 0. -1.
          2    1    1    2  501    0  0.48353972271E+02  0.41207184152E+02 -0.36427891647E+03  0.36977732170E+03  0.00000000000E+00 0. -1.
<scales pt_clust_3="91.27442" pt_clust_4="41.27038" pt_clust_5="49.83121" pt_clust_6="41.27038"></scales>
<clustering>
<clus scale="   41.270">  4  6 -1 -1</clus>
<clus scale="   49.831">  2  5  1 -1</clus>
<clus scale="   91.274">  1  3  2 -1</clus>
<clus scale="   91.274">  1  3  2 -1</clus>
</clustering>
</event>
<event>
 6    0  0.1622933E+002  0.2009111E+03  0.7546771E-02  0.1148973E+00
          3   -1    0    0  505    0 -0.00000000000E+00  0.00000000000E+00  0.26752768909E+03  0.26752768909E+03  0.00000000000E+00 0. -1.
         21   -1    0    0  504  502  0.00000000000E+00 -0.00000000000E+00 -0.70744355939E+03  0.70744355939E+03  0.00000000000E+00 0. -1.
         21    1    1    2  503  502  0.13779019545E+03 -0.12350476160E+03 -0.61591268984E+03  0.64310808237E+03  0.00000000000E+00 0. -1.
         21    1    1    2  504  501 -0.28317240063E+02  0.25148096362E+02 -0.42725131626E+00  0.37874468697E+02  0.00000000000E+00 0. -1.
         21    1    1    2  505  503  0.93979068918E+01 -0.41504957103E+02  0.50221736959E+01  0.42850955026E+02  0.00000000000E+00 0. -1.
          3    1    1    2  501    0 -0.11887086228E+03  0.13986162234E+03  0.17140189716E+03  0.25113774239E+03  0.00000000000E+00 0. -1.
<scales pt_clust_3="186.98147" pt_clust_4="33.38905" pt_clust_5="42.55564" pt_clust_6="33.38905"></scales>
<clustering>
<clus scale="   33.389">  4  6 -1 -1</clus>
<clus scale="   42.556">  1  5  2 -1</clus>
<clus scale="  186.981">  2  3  1 -1</clus>
<clus scale="  186.981">  2  3  1 -1</clus>
</clustering>
</event>
<event>
 6    0  0.1622933E+002  0.9870382E+02  0.7546771E-02  0.1283045E+00
         21   -1    0    0  505  502  0.00000000000E+00  0.00000000000E+00  0.25225410951E+03  0.25225410951E+03  0.00000000000E+00 0. -1.
          2   -1    0    0  504    0 -0.00000000000E+00 -0.00000000000E+00 -0.93220154389E+03  0.93220154389E+03  0.00000000000E+00 0. -1.
         21    1    1    2  503  502  0.81558374140E+02  0.58416220311E+02  0.22475335026E+03  0.24612657646E+03  0.00000000000E+00 0. -1.
         21    1    1    2  504  503 -0.18037513633E+02  0.39445087690E+02 -0.34412620212E+02  0.55366914947E+02  0.00000000000E+00 0. -1.
         21    1    1    2  505  501 -0.30562533946E+02 -0.65158180834E+02 -0.23010297753E+03  0.24109549410E+03  0.00000000000E+00 0.  1.
          2    1    1    2  501    0 -0.32958326561E+02 -0.32703127167E+02 -0.64018518690E+03  0.64186666789E+03  0.00000000000E+00 0. -1.
<scales pt_clust_3="98.70382" pt_clust_4="43.37357" pt_clust_5="14000.00000" pt_clust_6="46.18126"></scales>
<clustering>
<clus scale="   43.374">  2  4  1 -1</clus>
<clus scale="   46.181">  2  6  1 -1</clus>
<clus scale="   98.704">  1  3  2 -1</clus>
<clus scale="   98.704">  1  3  2 -1</clus>
</clustering>
</event>
<event>
 6    0  0.1622933E+002  0.9524641E+02  0.7546771E-02  0.1290622E+00
         21   -1    0    0  504  502  0.00000000000E+00  0.00000000000E+00  0.16588892067E+03  0.16588892067E+03  0.00000000000E+00 0. -1.
         -4   -1    0    0    0  501 -0.00000000000E+00 -0.00000000000E+00 -0.14922344280E+04  0.14922344280E+04  0.00000000000E+00 0.  1.
         21    1    1    2  503  505  0.59987674635E+02  0.34923919493E+01 -0.67731743857E+03  0.67997766912E+03  0.00000000000E+00 0.  1.
         21    1    1    2  504  503  0.33759957267E+02 -0.89249153985E+02  0.14283560815E+03  0.17177647440E+03  0.00000000000E+00 0. -1.
         21    1    1    2  505  501  0.10098333497E+02  0.31312528276E+02 -0.23527159913E+03  0.23756088930E+03  0.00000000000E+00 0. -1.
         -4    1    1    2    0  502 -0.10384596540E+03  0.54444233759E+02 -0.55659207783E+03  0.56880831589E+03  0.00000000000E+00 0.  1.
<scales pt_clust_3="68.55472" pt_clust_4="95.24641" pt_clust_5="32.90062" pt_clust_6="14000.00000"></scales>
<clustering>
<clus scale="   32.901">  2  5  1 -1</clus>
<clus scale="   68.555">  2  3  1 -1</clus>
<clus scale="   95.246">  1  4  2 -1</clus>
<clus scale="   95.246">  1  3  2 -1</clus>
</clustering>
</event>
<event>
 6    0  0.1622933E+002  0.5987728E+02  0.7546771E-02  0.1398347E+00
         21   -1    0    0  503  502  0.00000000000E+00  0.00000000000E+00  0.31619361742E+03  0.31619361742E+03  0.00000000000E+00 0. -1.
          2   -1    0    0  504    0 -0.00000000000E+00 -0.00000000000E+00 -0.13952622041E+04  0.13952622041E+04  0.00000000000E+00 0. -1.
         21    1    1    2  503  505  0.28485708432E+02  0.46428603152E+02  0.29580712446E+03  0.30078049414E+03  0.00000000000E+00 0. -1.
         21    1    1    2  504  502 -0.65812944525E+02 -0.10922213252E+02 -0.52002029703E+03  0.52428212609E+03  0.00000000000E+00 0. -1.
         21    1    1    2  505  501  0.12723654206E+02 -0.86481209283E+02 -0.11537154124E+03  0.14474627271E+03  0.00000000000E+00 0. -1.
          2    1    1    2  501    0  0.24603581887E+02  0.50974819383E+02 -0.73948387284E+03  0.74164692856E+03  0.00000000000E+00 0. -1.
<scales pt_clust_3="54.47064" pt_clust_4="56.44764" pt_clust_5="14000.00000" pt_clust_6="59.87728"></scales>
<clustering>
<clus scale="   54.471">  1  3  2 -1</clus>
<clus scale="   59.877">  2  6  1 -1</clus>
<clus scale="   56.448">  2  4  1 -1</clus>
<clus scale="   54.471">  1  3  2 -1</clus>
</clustering>
</event>
<event>
 6    0  0.1622933E+002  0.2762166E+03  0.7546771E-02  0.1097773E+00
          1   -1    0    0  505    0 -0.00000000000E+00  0.00000000000E+00  0.10091256118E+04  0.10091256118E+04  0.00000000000E+00 0. -1.
         21   -1    0    0  504  502  0.00000000000E+00 -0.00000000000E+00 -0.20906097224E+03  0.20906097224E+03  0.00000000000E+00 0.  1.
         21    1    1    2  503  501  0.11152043374E+03  0.17140089683E+03  0.58997664995E+03  0.62440973893E+03  0.00000000000E+00 0. -1.
         21    1    1    2  504  503 -0.14688831006E+03 -0.22607207844E+03 -0.78272274133E+02  0.28073351987E+03  0.00000000000E+00 0.  1.
         21    1    1    2  505  502  0.25627260142E+02 -0.21437802342E+02  0.35293578906E+02  0.48600129050E+02  0.00000000000E+00 0.  1.
          1    1    1    2  501    0  0.97406161790E+01  0.76108983947E+02  0.25306668482E+03  0.26444319619E+03  0.00000000000E+00 0. -1.
<scales pt_clust_3="34.65202" pt_clust_4="270.04355" pt_clust_5="33.41161" pt_clust_6="34.65202"></scales>
<clustering>
<clus scale="   33.412">  1  5  2 -1</clus>
<clus scale="   34.652">  3  6 -1 -1</clus>
<clus scale="  270.044">  2  4  1 -1</clus>
<clus scale="  270.044">  2  3  1 -1</clus>
</clustering>
</event>
<event>
 6    0  0.1622933E+002  0.1412760E+03  0.7546771E-02  0.1211622E+00
         21   -1    0    0  505  502  0.00000000000E+00  0.00000000000E+00  0.60017165533E+02  0.60017165533E+02  0.00000000000E+00 0.  1.
          2   -1    0    0  504    0 -0.00000000000E+00 -0.00000000000E+00 -0.18012428804E+04  0.18012428804E+04  0.00000000000E+00 0.  1.
         21    1    1    2  503  502 -0.27991113745E+02 -0.11543930459E+02  0.25453075344E+02  0.39555326109E+02  0.00000000000E+00 0.  1.
         21    1    1    2  504  503  0.46662574313E+01  0.20524171470E+03 -0.67570446600E+03  0.70620284677E+03  0.00000000000E+00 0.  1.
         21    1    1    2  505  501  0.24805708977E+02 -0.10735738283E+03 -0.29585796379E+03  0.31571009737E+03  0.00000000000E+00 0.  1.
          2    1    1    2  501    0 -0.14808526625E+01 -0.86340401412E+02 -0.79511636041E+03  0.79979177567E+03  0.00000000000E+00 0.  1.
<scales pt_clust_3="30.27812" pt_clust_4="14000.00000" pt_clust_5="141.27602" pt_clust_6="87.40650"></scales>
<clustering>
<clus scale="   30.278">  1  3  2 -1</clus>
<clus scale="   87.406">  2  6  1 -1</clus>
<clus scale="  141.276">  1  5  2 -1</clus>
<clus scale="   30.278">  1  3  2 -1</clus>
</clustering>
</event>
<event>
 6    0  0.1622933E+002  0.9944744E+02  0.7546771E-02  0.1281462E+00
          2   -1    0    0  503    0 -0.00000000000E+00  0.00000000000E+00  0.86860891723E+03  0.86860891723E+03  0.00000000000E+00 0.  1.
         21   -1    0    0  505  502  0.00000000000E+00 -0.00000000000E+00 -0.67443265162E+02  0.67443265162E+02  0.00000000000E+00 0.  1.
         21    1    1    2  503  504  0.27685700820E+02  0.24095807871E+02  0.24619400899E+03  0.24891483694E+03  0.00000000000E+00 0.  1.
         21    1    1    2  504  502 -0.48963826493E+02  0.11277419070E+02  0.10312960860E+03  0.11471858026E+03  0.00000000000E+00 0.  1.
         21    1    1    2  505  501  0.54055378801E+02 -0.87824957008E+02 -0.12584174357E+02  0.10389210025E+03  0.00000000000E+00 0.  1.
          2    1    1    2  501    0 -0.32777253128E+02  0.52451730067E+02  0.46442620884E+03  0.46852666495E+03  0.00000000000E+00 0.  1.
<scales pt_clust_3="36.70294" pt_clust_4="46.75347" pt_clust_5="14000.00000" pt_clust_6="99.44744"></scales>
<clustering>
<clus scale="   36.703">  1  3  2 -1</clus>
<clus scale="   46.753">  1  4  2 -1</clus>
<clus scale="   99.447">  1  6  2 -1</clus>
<clus scale="   99.447">  2  3  1 -1</clus>
</clustering>
</event>
<event>
 6    0  0.1622933E+002  0.7753893E+02  0.7546771E-02  0.1336184E+00
          1   -1    0    0  505    0 -0.00000000000E+00  0.00000000000E+00  0.17126960280E+04  0.17126960280E+04  0.00000000000E+00 0.  1.
         21   -1    0    0  501  502  0.00000000000E+00 -0.00000000000E+00 -0.13108209114E+03  0.13108209114E+03  0.00000000000E+00 0. -1.
         21    1    1    2  503  502 -0.15673709175E+02 -0.31512856608E+02 -0.11103446329E+03  0.11647908537E+03  0.00000000000E+00 0. -1.
         21    1    1    2  504  503  0.73553568743E+02 -0.23968051911E+02  0.10139487456E+03  0.12753633041E+03  0.00000000000E+00 0. -1.
         21    1    1    2  505  504  0.35623348080E+02  0.59211361033E+02  0.80490833595E+03  0.80786907199E+03  0.00000000000E+00 0.  1.
          1    1    1    2  501    0 -0.93503207647E+02 -0.37304525142E+01  0.78634518964E+03  0.79189363136E+03  0.00000000000E+00 0.  1.
<scales pt_clust_3="35.19553" pt_clust_4="14000.00000" pt_clust_5="66.10421" pt_clust_6="77.53893"></scales>
<clustering>
<clus scale="   35.196">  2  3  1 -1</clus>
<clus scale="   66.104">  1  5  2 -1</clus>
<clus scale="   77.539">  1  6  2 -1</clus>
<clus scale="   35.196">  2  3  1 -1</clus>
</clustering>
</event>
<event>
 6    0  0.1622933E+002  0.1694746E+03  0.7546771E-02  0.1178397E+00
         21   -1    0    0  503  502  0.00000000000E+00  0.00000000000E+00  0.27793641854E+03  0.27793641854E+03  0.00000000000E+00 0.  1.
          1   -1    0    0  505    0 -0.00000000000E+00 -0.00000000000E+00 -0.13314392789E+04  0.13314392789E+04  0.00000000000E+00 0.  1.
         21    1    1    2  503  504  0.29718444567E+02  0.14837359060E+03  0.21325061015E+03  0.26148371090E+03  0.00000000000E+00 0.  1.
         21    1    1    2  504  501  0.38231442414E+02 -0.40750524812E+02 -0.20781479870E+03  0.21519581553E+03  0.00000000000E+00 0. -1.
         21    1    1    2  505  502 -0.17220165616E+03 -0.74633074901E+02 -0.23129566082E+03  0.29786102291E+03  0.00000000000E+00 0.  1.
          1    1    1    2  501    0  0.10425176918E+03 -0.32989990891E+02 -0.82764301095E+03  0.83483514807E+03  0.00000000000E+00 0.  1.
<scales pt_clust_3="151.32055" pt_clust_4="48.76192" pt_clust_5="155.14063" pt_clust_6="48.76192"></scales>
<clustering>
<clus scale="   48.762">  4  6 -1 -1</clus>
<clus scale="  151.321">  1  3  2 -1</clus>
<clus scale="  155.141">  1  5  2 -1</clus>
<clus scale="  151.321">  1  3  2 -1</clus>
</clustering>
</event>
<event>
 6    0  0.1622933E+002  0.1040131E+03  0.7546771E-02  0.1272076E+00
         21   -1    0    0  505  502  0.00000000000E+00  0.00000000000E+00  0.50679380665E+03  0.50679380665E+03  0.00000000000E+00 0.  1.
         -2   -1    0    0    0  501 -0.00000000000E+00 -0.00000000000E+00 -0.88570681201E+03  0.88570681201E+03  0.00000000000E+00 0. -1.
         21    1    1    2  503  501  0.51618612870E+02 -0.61948444017E+02 -0.46923936630E+03  0.47611728995E+03  0.00000000000E+00 0. -1.
         21    1    1    2  504  502 -0.73520618968E+02  0.22856684076E+02  0.46747536465E+03  0.47377307435E+03  0.00000000000E+00 0.  1.
         21    1    1    2  505  503  0.94714234156E+02  0.89566438707E+02 -0.14962507078E+03  0.19844544565E+03  0.00000000000E+00 0. -1.
         -2    1    1    2    0  504 -0.72812228057E+02 -0.50474678766E+02 -0.22752393293E+03  0.24416480870E+03  0.00000000000E+00 0. -1.
<scales pt_clust_3="74.59740" pt_clust_4="76.99162" pt_clust_5="104.01308" pt_clust_6="14000.00000"></scales>
<clustering>
<clus scale="   76.992">  1  4  2 -1</clus>
<clus scale="   74.597">  2  3  1 -1</clus>
<clus scale="  104.013">  1  5  2 -1</clus>
<clus scale="   76.992">  1  3  2 -1</clus>
</clustering>
</event>
<event>
 6    0  0.1622933E+002  0.1168037E+03  0.7546771E-02  0.1248465E+00
         21   -1    0    0  503  502  0.00000000000E+00  0.00000000000E+00  0.70352909865E+03  0.70352909865E+03  0.00000000000E+00 0. -1.
          2   -1    0    0  504    0 -0.00000000000E+00 -0.00000000000E+00 -0.13979115485E+03  0.13979115485E+03  0.00000000000E+00 0.  1.
         21    1    1    2  503  505 -0.71383759625E+02 -0.77883981328E+02  0.65135435119E+03  0.65986668843E+03  0.00000000000E+00 0. -1.
         21    1    1    2  504  502  0.15116035845E+02 -0.26797990964E+02 -0.65745754183E+01  0.31461911915E+02  0.00000000000E+00 0.  1.
         21    1    1    2  505  501  0.35599285284E+02  0.44880284346E+02 -0.12351743454E+02  0.58601319115E+02  0.00000000000E+00 0. -1.
          2    1    1    2  501    0  0.20668438496E+02  0.59801687947E+02 -0.68690088523E+02  0.93390334042E+02  0.00000000000E+00 0.  1.
<scales pt_clust_3="105.98955" pt_clust_4="30.76730" pt_clust_5="47.90997" pt_clust_6="47.90997"></scales>
<clustering>
<clus scale="   30.767">  2  4  1 -1</clus>
<clus scale="   47.910">  5  6 -1 -1</clus>
<clus scale="  105.990">  1  3  2 -1</clus>
<clus scale="  105.990">  1  3  2 -1</clus>
</clustering>
</event>
<event>
 6    0  0.1622933E+002  0.1943142E+03  0.7546771E-02  0.1154627E+00
          1   -1    0    0  502    0 -0.00000000000E+00  0.00000000000E+00  0.92874078750E+02  0.92874078750E+02  0.00000000000E+00 0.  1.
         21   -1    0    0  503  502  0.00000000000E+00 -0.00000000000E+00 -0.63716600785E+03  0.63716600785E+03  0.00000000000E+00 0. -1.
         21    1    1    2  503  505 -0.55996090479E+02 -0.82751124454E+00 -0.25523241779E+03  0.26130410256E+03  0.00000000000E+00 0. -1.
         21    1    1    2  504  501  0.47744920778E+02 -0.16464332839E+02 -0.36086154355E+02  0.62071428629E+02  0.00000000000E+00 0.  1.
         21    1    1    2  505  504 -0.11424490404E+03 -0.46437230994E+02 -0.23764054354E+03  0.26773371557E+03  0.00000000000E+00 0. -1.
          1    1    1    2  501    0  0.12249607374E+03  0.63729075078E+02 -0.15332813416E+02  0.13893083984E+03  0.00000000000E+00 0.  1.
<scales pt_clust_3="51.06080" pt_clust_4="48.91600" pt_clust_5="192.24270" pt_clust_6="48.91600"></scales>
<clustering>
<clus scale="   48.916">  4  6 -1 -1</clus>
<clus scale="   51.061">  3  5 -1 -1</clus>
<clus scale="  192.243">  2  3  1 -1</clus>
<clus scale="  192.243">  2  3  1 -1</clus>
</clustering>
</event>
<event>
 6    0  0.1832149E+002  0.8481712E+02  0.7546771E-02  0.1315911E+00
          3   -1    0    0  505    0 -0.00000000000E+00  0.00000000000E+00  0.41936981845E+03  0.41936981845E+03  0.00000000000E+00 0.  1.
         21   -1    0    0  501  502  0.00000000000E+00 -0.00000000000E+00 -0.97763821709E+03  0.97763821709E+03  0.00000000000E+00 0. -1.
         21    1    1    2  503  502 -0.71267537976E+02  0.46115492801E+02 -0.90830454660E+03  0.91226248965E+03  0.00000000000E+00 0. -1.
         21    1    1    2  504  503 -0.57090478219E+02 -0.15218673057E+02 -0.93134851792E+01  0.59813641580E+02  0.00000000000E+00 0. -1.
         21    1    1    2  505  504  0.34611527924E+02 -0.43282207724E+02  0.21860035451E+01  0.55462473640E+02  0.00000000000E+00 0. -1.
          3    1    1    2  501    0  0.93746488270E+02  0.12385387981E+02  0.35716362959E+03  0.36946943067E+03  0.00000000000E+00 0.  1.
<scales pt_clust_3="84.81712" pt_clust_4="57.73590" pt_clust_5="55.41938" pt_clust_6="14000.00000"></scales>
<clustering>
<clus scale="   55.419">  1  5  2 -1</clus>
<clus scale="   57.736">  1  4  2 -1</clus>
<clus scale="   84.817">  2  3  1 -1</clus>
<clus scale="   84.817">  2  3  1 -1</clus>
</clustering>
</event>
<event>
 6    0  0.1622933E+002  0.1117628E+03  0.7546771E-02  0.1257340E+00
          1   -1    0    0  504    0 -0.00000000000E+00  0.00000000000E+00  0.74526583606E+03  0.74526583606E+03  0.00000000000E+00 0. -1.
         21   -1    0    0  505  502  0.00000000000E+00 -0.00000000000E+00 -0.44348042656E+03  0.44348042656E+03  0.00000000000E+00 0.  1.
         21    1    1    2  503  501 -0.38733253329E+02 -0.66045203817E+02  0.15705096220E+03  0.17472045842E+03  0.00000000000E+00 0.  1.
         21    1    1    2  504  502  0.13954855009E+02  0.14310682254E+03  0.32421171574E+02  0.14739549858E+03  0.00000000000E+00 0.  1.
         21    1    1    2  505  503 -0.25681339238E+02 -0.16379966361E+02 -0.37335301519E+03  0.37459352429E+03  0.00000000000E+00 0.  1.
          1    1    1    2  501    0  0.50459737558E+02 -0.60681652362E+02  0.48566629093E+03  0.49203678134E+03  0.00000000000E+00 0. -1.
<scales pt_clust_3="14000.00000" pt_clust_4="111.76281" pt_clust_5="30.46038" pt_clust_6="78.75739"></scales>
<clustering>
<clus scale="   30.460">  2  5  1 -1</clus>
<clus scale="   78.757">  1  6  2 -1</clus>
<clus scale="  111.763">  2  4  1 -1</clus>
<clus scale="   30.460">  2  3  1 -1</clus>
</clustering>
</event>
<event>
 6    0  0.1622933E+002  0.1940515E+03  0.7546771E-02  0.1154857E+00
         21   -1    0    0  505  502  0.00000000000E+00  0.00000000000E+00  0.20734529333E+02  0.20734529333E+02  0.00000000000E+00 0. -1.
          1   -1    0    0  504    0 -0.00000000000E+00 -0.00000000000E+00 -0.34320495941E+04  0.34320495941E+04  0.00000000000E+00 0. -1.
         21    1    1    2  503  502  0.76192611013E+01 -0.29728364783E+02 -0.18322694177E+02  0.35742830530E+02  0.00000000000E+00 0. -1.
         21    1    1    2  504  503  0.18351597594E+03 -0.29531902131E+02 -0.20875207646E+04  0.20957798523E+04  0.00000000000E+00 0. -1.
         21    1    1    2  505  501 -0.92288419713E+02  0.32930821757E+02 -0.51942424983E+03  0.52858598425E+03  0.00000000000E+00 0. -1.
          1    1    1    2  501    0 -0.98846817329E+02  0.26329445158E+02 -0.78604735614E+03  0.79267545634E+03  0.00000000000E+00 0. -1.
<scales pt_clust_3="30.68923" pt_clust_4="190.32800" pt_clust_5="36.56658" pt_clust_6="36.56658"></scales>
<clustering>
<clus scale="   30.689">  1  3  2 -1</clus>
<clus scale="   36.567">  5  6 -1 -1</clus>
<clus scale="  190.328">  2  4  1 -1</clus>
<clus scale="   30.689">  1  3  2 -1</clus>
</clustering>
</event>
<event>
 6    0  0.1622933E+002  0.2209176E+03  0.7546771E-02  0.1133201E+00
         -4   -1    0    0    0  501 -0.00000000000E+00  0.00000000000E+00  0.56636253444E+03  0.56636253444E+03  0.00000000000E+00 0.  1.
         21   -1    0    0  505  502  0.00000000000E+00 -0.00000000000E+00 -0.96406671044E+03  0.96406671044E+03  0.00000000000E+00 0.  1.
         21    1    1    2  503  501  0.12871880924E+02  0.70631110129E+02  0.27177163354E+02  0.76766120422E+02  0.00000000000E+00 0.  1.
         21    1    1    2  504  502  0.47358775196E+02  0.99620315874E+02  0.30320458234E+03  0.32264543957E+03  0.00000000000E+00 0.  1.
         21    1    1    2  505  503 -0.11118399971E+03 -0.17810281183E+03 -0.91414583797E+03  0.93794728341E+03  0.00000000000E+00 0.  1.
         -4    1    1    2    0  504  0.50953343594E+02  0.78513858225E+01  0.18605991627E+03  0.19307040148E+03  0.00000000000E+00 0.  1.
<scales pt_clust_3="71.79442" pt_clust_4="50.08751" pt_clust_5="208.41535" pt_clust_6="50.08751"></scales>
<clustering>
<clus scale="   50.088">  4  6 -1 -1</clus>
<clus scale="   71.794">  1  3  2 -1</clus>
<clus scale="  208.415">  2  5  1 -1</clus>
<clus scale="  208.415">  2  3  1 -1</clus>
</clustering>
</event>
<event>
 6    0  0.1622933E+002  0.1687774E+03  0.7546771E-02  0.1179129E+00
          1   -1    0    0  505    0 -0.00000000000E+00  0.00000000000E+00  0.21355988004E+03  0.21355988004E+03  0.00000000000E+00 0. -1.
         21   -1    0    0  503  502  0.00000000000E+00 -0.00000000000E+00 -0.16514915681E+03  0.16514915681E+03  0.00000000000E+00 0. -1.
         21    1    1    2  503  501  0.19471014996E+02 -0.24634110976E+02 -0.20671126721E+01  0.31467964716E+02  0.00000000000E+00 0. -1.
         21    1    1    2  504  502 -0.11017596887E+03  0.49901579447E+02  0.83471756443E+02  0.14695729267E+03  0.00000000000E+00 0. -1.
         21    1    1    2  505  504 -0.40056473718E+02 -0.25958131204E+02  0.28701765392E+02  0.55696831139E+02  0.00000000000E+00 0. -1.
          1    1    1    2  501    0  0.13076142759E+03  0.69066273292E+00 -0.61695685932E+02  0.14458694831E+03  0.00000000000E+00 0. -1.
<scales pt_clust_3="30.15397" pt_clust_4="45.91801" pt_clust_5="45.91801" pt_clust_6="164.10252"></scales>
<clustering>
<clus scale="   30.154">  3  6 -1 -1</clus>
<clus scale="   45.918">  4  5 -1 -1</clus>
<clus scale="  164.103">  2  3  1 -1</clus>
<clus scale="  164.103">  2  3  1 -1</clus>
</clustering>
</event>
<event>
 6    0  0.1622933E+002  0.2922827E+03  0.7546771E-02  0.1089163E+00
         21   -1    0    0  501  502  0.00000000000E+00  0.00000000000E+00  0.46843094393E+03  0.46843094393E+03  0.00000000000E+00 0. -1.
          2   -1    0    0  503    0 -0.00000000000E+00 -0.00000000000E+00 -0.14796817448E+04  0.14796817448E+04  0.00000000000E+00 0. -1.
         21    1    1    2  503  504 -0.21666416653E+02 -0.50479791372E+02 -0.23352246151E+03  0.23989660893E+03  0.00000000000E+00 0.  1.
         21    1    1    2  504  505  0.19019159595E+03 -0.18463815488E+03  0.39230710484E+03  0.47346484127E+03  0.00000000000E+00 0. -1.
         21    1    1    2  505  502  0.32269193399E+02 -0.57167868970E+01 -0.11814197199E+02  0.34836155794E+02  0.00000000000E+00 0. -1.
          2    1    1    2  501    0 -0.20079437270E+03  0.24083473315E+03 -0.11582212470E+04  0.11999150828E+04  0.00000000000E+00 0. -1.
<scales pt_clust_3="54.88140" pt_clust_4="14000.00000" pt_clust_5="32.77167" pt_clust_6="292.28268"></scales>
<clustering>
<clus scale="   32.772">  1  5  2 -1</clus>
<clus scale="   54.881">  2  3  1 -1</clus>
<clus scale="  292.283">  2  6  1 -1</clus>
<clus scale="   32.772">  1  3  2 -1</clus>
</clustering>
</event>
<event>
 6    0  0.1622933E+002  0.1341077E+03  0.7546771E-02  0.1221485E+00
          1   -1    0    0  504    0 -0.00000000000E+00  0.00000000000E+00  0.76946586452E+03  0.76946586452E+03  0.00000000000E+00 0. -1.
         21   -1    0    0  503  502  0.00000000000E+00 -0.00000000000E+00 -0.71919673076E+03  0.71919673076E+03  0.00000000000E+00 0. -1.
         21    1    1    2  503  501 -0.73648444957E+02 -0.14386563122E+02 -0.65066582905E+03  0.65497869259E+03  0.00000000000E+00 0. -1.
         21    1    1    2  504  505  0.64100696309E+02  0.58689367449E+02  0.17028770824E+03  0.19118379821E+03  0.00000000000E+00 0. -1.
         21    1    1    2  505  502 -0.80187855649E+02 -0.39150425181E+02 -0.14139688068E+02  0.90348097734E+02  0.00000000000E+00 0. -1.
          1    1    1    2  501    0  0.89735604297E+02 -0.51523791466E+01  0.54478694264E+03  0.55215200675E+03  0.00000000000E+00 0. -1.
<scales pt_clust_3="75.04043" pt_clust_4="77.07664" pt_clust_5="14000.00000" pt_clust_6="134.10766"></scales>
<clustering>
<clus scale="   75.040">  2  3  1 -1</clus>
<clus scale="   77.077">  1  4  2 -1</clus>
<clus scale="  134.108">  1  6  2 -1</clus>
<clus scale="   75.040">  2  3  1 -1</clus>
</clustering>
</event>
<event>
 6    0  0.1622933E+002  0.1905166E+03  0.7546771E-02  0.1157996E+00
          1   -1    0    0  505    0 -0.00000000000E+00  0.00000000000E+00  0.19714893879E+03  0.19714893879E+03  0.00000000000E+00 0. -1.
         21   -1    0    0  501  502  0.00000000000E+00 -0.00000000000E+00 -0.41990546464E+03  0.41990546464E+03  0.00000000000E+00 0. -1.
         21    1    1    2  503  502 -0.47404335803E+01  0.20028448623E+03 -0.22756286149E+03  0.30318509703E+03  0.00000000000E+00 0. -1.
         21    1    1    2  504  503 -0.50936666120E+02 -0.32778520324E+02  0.18970612178E+02  0.63473297350E+02  0.00000000000E+00 0. -1.
         21    1    1    2  505  504 -0.31345556676E+02 -0.31661540435E+01  0.45284955765E+02  0.55166073573E+02  0.00000000000E+00 0. -1.
          1    1    1    2  501    0  0.87022656377E+02 -0.16433981186E+03 -0.59449232302E+02  0.19522993548E+03  0.00000000000E+00 0. -1.
<scales pt_clust_3="14000.00000" pt_clust_4="99.73225" pt_clust_5="31.30476" pt_clust_6="190.51657"></scales>
<clustering>
<clus scale="   31.305">  4  5 -1 -1</clus>
<clus scale="   99.732">  1  4  2 -1</clus>
<clus scale="  190.517">  1  6  2 -1</clus>
<clus scale="  190.517">  2  3  1 -1</clus>
</clustering>
</event>
<event>
 6    0  0.1622933E+002  0.1756555E+03  0.7546771E-02  0.1172075E+00
         21   -1    0    0  504  502  0.00000000000E+00  0.00000000000E+00  0.46342126396E+03  0.46342126396E+03  0.00000000000E+00 0.  1.
          2   -1    0    0  503    0 -0.00000000000E+00 -0.00000000000E+00 -0.23758669876E+04  0.23758669876E+04  0.00000000000E+00 0.  1.
         21    1    1    2  503  505  0.56099705812E+02 -0.10399694090E+02 -0.57046071346E+03  0.57330686044E+03  0.00000000000E+00 0.  1.
         21    1    1    2  504  501 -0.71787068088E+01  0.15301530715E+03 -0.34179589528E+03  0.37455260256E+03  0.00000000000E+00 0.  1.
         21    1    1    2  505  502  0.10051784286E+02  0.35351772160E+02  0.43877036432E+03  0.44030695971E+03  0.00000000000E+00 0.  1.
          2    1    1    2  501    0 -0.58972783289E+02 -0.17796738522E+03 -0.14389594792E+04  0.14511218289E+04  0.00000000000E+00 0.  1.
<scales pt_clust_3="57.30196" pt_clust_4="175.65551" pt_clust_5="36.75304" pt_clust_6="14000.00000"></scales>
<clustering>
<clus scale="   36.753">  1  5  2 -1</clus>
<clus scale="   57.302">  2  3  1 -1</clus>
<clus scale="  175.656">  1  4  2 -1</clus>
<clus scale="   36.753">  1  3  2 -1</clus>
</clustering>
</event>
<event>
 6    0  0.1622933E+002  0.8172848E+02  0.7546771E-02  0.1324217E+00
         21   -1    0    0  503  502  0.00000000000E+00  0.00000000000E+00  0.39992663197E+02  0.39992663197E+02  0.00000000000E+00 0.  1.
          1   -1    0    0  504    0 -0.00000000000E+00 -0.00000000000E+00 -0.11051212353E+04  0.11051212353E+04  0.00000000000E+00 0.  1.
         21    1    1    2  503  501  0.81943911606E+02 -0.23016233920E+02 -0.53489733458E+02  0.10052712698E+03  0.00000000000E+00 0.  1.
         21    1    1    2  504  505  0.61210210935E+01  0.48918514741E+02 -0.52556174270E+03  0.52786895473E+03  0.00000000000E+00 0.  1.
         21    1    1    2  505  502 -0.71072052091E+01  0.55040574633E+02 -0.22316948150E+03  0.22996650777E+03  0.00000000000E+00 0.  1.
          1    1    1    2  501    0 -0.80957727490E+02 -0.80942855454E+02 -0.26290761447E+03  0.28675130903E+03  0.00000000000E+00 0.  1.
<scales pt_clust_3="81.72848" pt_clust_4="49.29998" pt_clust_5="74.35180" pt_clust_6="14000.00000"></scales>
<clustering>
<clus scale="   49.300">  2  4  1 -1</clus>
<clus scale="   74.352">  2  5  1 -1</clus>
<clus scale="   81.728">  1  3  2 -1</clus>
<clus scale="   81.728">  1  3  2 -1</clus>
</clustering>
</event>
<event>
 6    0  0.1622933E+002  0.1481367E+03  0.7546771E-02  0.1202781E+00
         -2   -1    0    0    0  501 -0.00000000000E+00  0.00000000000E+00  0.36557093632E+02  0.36557093632E+02  0.00000000000E+00 0. -1.
         21   -1    0    0  504  502  0.00000000000E+00 -0.00000000000E+00 -0.17143287607E+04  0.17143287607E+04  0.00000000000E+00 0.  1.
         21    1    1    2  503  502  0.16924365946E+02 -0.67835728002E+02 -0.10985720597E+03  0.13021799361E+03  0.00000000000E+00 0. -1.
         21    1    1    2  504  505 -0.82081036981E+02  0.12033646391E+03 -0.13891922496E+04  0.13968082429E+04  0.00000000000E+00 0.  1.
         21    1    1    2  505  501  0.51668726033E+02  0.16606270804E+02 -0.12170690215E+03  0.13325912919E+03  0.00000000000E+00 0. -1.
         -2    1    1    2    0  503  0.13487945002E+02 -0.69107006716E+02 -0.57015309386E+02  0.90600488641E+02  0.00000000000E+00 0. -1.
<scales pt_clust_3="35.03483" pt_clust_4="143.90394" pt_clust_5="54.27177" pt_clust_6="35.03483"></scales>
<clustering>
<clus scale="   35.035">  3  6 -1 -1</clus>
<clus scale="   54.272">  1  5  2 -1</clus>
<clus scale="  143.904">  2  4  1 -1</clus>
<clus scale="  143.904">  2  3  1 -1</clus>
</clustering>
</event>
<event>
 6    0  0.1622933E+002  0.1059864E+03  0.7546771E-02  0.1268188E+00
         21   -1    0    0  503  502  0.00000000000E+00  0.00000000000E+00  0.13774356046E+03  0.13774356046E+03  0.00000000000E+00 0.  1.
          2   -1    0    0  505    0 -0.00000000000E+00 -0.00000000000E+00 -0.16955226125E+04  0.16955226125E+04  0.00000000000E+00 0.  1.
         21    1    1    2  503  501  0.32554501173E+02  0.10672917414E+03 -0.12148672373E+04  0.12199808672E+04  0.00000000000E+00 0.  1.
         21    1    1    2  504  502 -0.69408209323E+02 -0.55387719298E+02  0.11162140649E+03  0.14263462888E+03  0.00000000000E+00 0.  1.
         21    1    1    2  505  504  0.28461308746E+02 -0.83575143102E+02 -0.30985547102E+03  0.32218824243E+03  0.00000000000E+00 0. -1.
          2    1    1    2  501    0  0.83923994046E+01  0.32233688260E+02 -0.14467775027E+03  0.14846243448E+03  0.00000000000E+00 0.  1.
<scales pt_clust_3="31.32471" pt_clust_4="89.14000" pt_clust_5="88.28845" pt_clust_6="31.32471"></scales>
<clustering>
<clus scale="   31.325">  3  6 -1 -1</clus>
<clus scale="   88.288">  2  5  1 -1</clus>
<clus scale="   89.140">  1  4  2 -1</clus>
<clus scale="   89.140">  1  3  2 -1</clus>
</clustering>
</event>
<event>
 6    0  0.1622933E+002  0.1399783E+03  0.7546771E-02  0.1213358E+00
          2   -1    0    0  503    0 -0.00000000000E+00  0.00000000000E+00  0.11425661508E+04  0.11425661508E+04  0.00000000000E+00 0. -1.
         21   -1    0    0  501  502  0.00000000000E+00 -0.00000000000E+00 -0.66106051122E+03  0.66106051122E+03  0.00000000000E+00 0.  1.
         21    1    1    2  503  504  0.68314428212E+02  0.16447847047E+01  0.16502285662E+03  0.17861161672E+03  0.00000000000E+00 0.  1.
         21    1    1    2  504  505  0.41775540909E+02 -0.33185320506E+02  0.10321883773E+03  0.11619203836E+03  0.00000000000E+00 0.  1.
         21    1    1    2  505  502  0.29893238608E+02  0.92946329431E+01 -0.64156220185E+03  0.64232550530E+03  0.00000000000E+00 0.  1.
          2    1    1    2  501    0 -0.13998320773E+03  0.22245902858E+02  0.85482614704E+03  0.86649750161E+03  0.00000000000E+00 0. -1.
<scales pt_clust_3="37.36388" pt_clust_4="37.36388" pt_clust_5="31.30489" pt_clust_6="133.24013"></scales>
<clustering>
<clus scale="   31.305">  2  5  1 -1</clus>
<clus scale="   37.364">  3  4 -1 -1</clus>
<clus scale="  133.240">  1  6  2 -1</clus>
<clus scale="   31.305">  2  3  1 -1</clus>
</clustering>
</event>
<event>
 6    0  0.1622933E+002  0.1525082E+03  0.7546771E-02  0.1197424E+00
         21   -1    0    0  504  502  0.00000000000E+00  0.00000000000E+00  0.93776672157E+02  0.93776672157E+02  0.00000000000E+00 0.  1.
          1   -1    0    0  503    0 -0.00000000000E+00 -0.00000000000E+00 -0.36597840727E+04  0.36597840727E+04  0.00000000000E+00 0. -1.
         21    1    1    2  503  505 -0.59612417182E+01 -0.42238729251E+02 -0.37145222281E+03  0.37389356839E+03  0.00000000000E+00 0. -1.
         21    1    1    2  504  501  0.89855263584E+02  0.87930276221E+02 -0.59436522219E+03  0.60751602384E+03  0.00000000000E+00 0.  1.
         21    1    1    2  505  502  0.40162700299E+02  0.33122830704E+02  0.75894662427E+02  0.92033494957E+02  0.00000000000E+00 0.  1.
          1    1    1    2  501    0 -0.12405672216E+03 -0.78814377674E+02 -0.26760846180E+04  0.26801176577E+04  0.00000000000E+00 0. -1.
<scales pt_clust_3="42.65732" pt_clust_4="14000.00000" pt_clust_5="51.98202" pt_clust_6="152.50825"></scales>
<clustering>
<clus scale="   42.657">  2  3  1 -1</clus>
<clus scale="   51.982">  1  5  2 -1</clus>
<clus scale="  152.508">  2  6  1 -1</clus>
<clus scale="   51.982">  1  3  2 -1</clus>
</clustering>
</event>
<event>
 6    0  0.1622933E+002  0.1423850E+03  0.7546771E-02  0.1210155E+00
         21   -1    0    0  503  502  0.00000000000E+00  0.00000000000E+00  0.48125322358E+03  0.48125322358E+03  0.00000000000E+00 0. -1.
          1   -1    0    0  505    0 -0.00000000000E+00 -0.00000000000E+00 -0.97583751304E+03  0.97583751304E+03  0.00000000000E+00 0.  1.
         21    1    1    2  503  501 -0.42312245759E+02  0.17534797708E+02 -0.70722682257E+01  0.46344495355E+02  0.00000000000E+00 0. -1.
         21    1    1    2  504  502  0.76680664388E+02  0.12147490859E+03  0.43355225354E+03  0.45673146843E+03  0.00000000000E+00 0. -1.
         21    1    1    2  505  504  0.82573228178E+02 -0.32430286088E+02 -0.38493909062E+03  0.39502932164E+03  0.00000000000E+00 0.  1.
          1    1    1    2  501    0 -0.11694164681E+03 -0.10657942021E+03 -0.53612518415E+03  0.55898545120E+03  0.00000000000E+00 0.  1.
<scales pt_clust_3="45.80170" pt_clust_4="14000.00000" pt_clust_5="88.21288" pt_clust_6="142.38502"></scales>
<clustering>
<clus scale="   45.802">  1  3  2 -1</clus>
<clus scale="   88.213">  2  5  1 -1</clus>
<clus scale="  142.385">  2  6  1 -1</clus>
<clus scale="   45.802">  1  3  2 -1</clus>
</clustering>
</event>
<event>
 6    0  0.1622933E+002  0.1665468E+03  0.7546771E-02  0.1181498E+00
         21   -1    0    0  505  502  0.00000000000E+00  0.00000000000E+00  0.87849092000E+02  0.87849092000E+02  0.00000000000E+00 0.  1.
          2   -1    0    0  504    0 -0.00000000000E+00 -0.00000000000E+00 -0.66748125402E+03  0.66748125402E+03  0.00000000000E+00 0.  1.
         21    1    1    2  503  502 -0.28685102923E+02 -0.24534248506E+02 -0.16515267409E+03  0.16941124590E+03  0.00000000000E+00 0.  1.
         21    1    1    2  504  503 -0.18737591087E+02  0.31507370418E+02 -0.89277685962E+02  0.96510708842E+02  0.00000000000E+00 0.  1.
         21    1    1    2  505  501 -0.33255792309E+02 -0.16170885027E+03 -0.67896678317E+02  0.17850954849E+03  0.00000000000E+00 0.  1.
          2    1    1    2  501    0  0.80678486319E+02  0.15473572836E+03 -0.25730512365E+03  0.31089884278E+03  0.00000000000E+00 0.  1.
<scales pt_clust_3="37.43700" pt_clust_4="36.65804" pt_clust_5="14000.00000" pt_clust_6="166.54677"></scales>
<clustering>
<clus scale="   36.658">  2  4  1 -1</clus>
<clus scale="   37.437">  2  3  1 -1</clus>
<clus scale="  166.547">  2  6  1 -1</clus>
<clus scale="  166.547">  1  3  2 -1</clus>
</clustering>
</event>
<event>
 6    0  0.1622933E+002  0.2089329E+03  0.7546771E-02  0.1142414E+00
          2   -1    0    0  503    0 -0.00000000000E+00  0.00000000000E+00  0.27568180811E+04  0.27568180811E+04  0.00000000000E+00 0. -1.
         21   -1    0    0  504  502  0.00000000000E+00 -0.00000000000E+00 -0.11315802930E+03  0.11315802930E+03  0.00000000000E+00 0. -1.
         21    1    1    2  503  505  0.38328335002E+02 -0.20752315946E+03  0.24565222377E+04  0.24655702032E+04  0.00000000000E+00 0. -1.
         21    1    1    2  504  501 -0.54550179528E+02  0.45572630701E+02 -0.29900971039E+02  0.77114556503E+02  0.00000000000E+00 0. -1.
         21    1    1    2  505  502  0.44093045843E+02 -0.22440565143E+02  0.86526477551E+02  0.99672498580E+02  0.00000000000E+00 0. -1.
          2    1    1    2  501    0 -0.27871201317E+02  0.18439109390E+03  0.13051230760E+03  0.22761885204E+03  0.00000000000E+00 0. -1.
<scales pt_clust_3="208.93291" pt_clust_4="47.19829" pt_clust_5="49.47500" pt_clust_6="14000.00000"></scales>
<clustering>
<clus scale="   49.475">  2  5  1 -1</clus>
<clus scale="   47.198">  2  4  1 -1</clus>
<clus scale="  208.933">  1  3  2 -1</clus>
<clus scale="   49.475">  2  3  1 -1</clus>
</clustering>
</event>
<event>
 6    0  0.1622933E+002  0.1081411E+03  0.7546771E-02  0.1264052E+00
         21   -1    0    0  503  502  0.00000000000E+00  0.00000000000E+00  0.22922328838E+03  0.22922328838E+03  0.00000000000E+00 0.  1.
         -3   -1    0    0    0  501 -0.00000000000E+00 -0.00000000000E+00 -0.18949276854E+03  0.18949276854E+03  0.00000000000E+00 0. -1.
         21    1    1    2  503  504  0.28391992778E+02  0.41250228334E+02  0.15371507810E+03  0.16166635960E+03  0.00000000000E+00 0.  1.
         21    1    1    2  504  501  0.37798820138E+01  0.80856911762E+02 -0.80285487861E+02  0.11400827711E+03  0.00000000000E+00 0. -1.
         21    1    1    2  505  502 -0.40161434216E+00 -0.96466362855E+02 -0.13227203955E+02  0.97369807338E+02  0.00000000000E+00 0. -1.
         -3    1    1    2    0  505 -0.31770260449E+02 -0.25640777241E+02 -0.20471866449E+02  0.45671612873E+02  0.00000000000E+00 0. -1.
<scales pt_clust_3="50.07681" pt_clust_4="91.18363" pt_clust_5="37.82176" pt_clust_6="37.82176"></scales>
<clustering>
<clus scale="   37.822">  5  6 -1 -1</clus>
<clus scale="   50.077">  1  3  2 -1</clus>
<clus scale="   91.184">  2  4  1 -1</clus>
<clus scale="   50.077">  1  3  2 -1</clus>
</clustering>
</event>
<event>
 6    0  0.1622933E+002  0.2158074E+03  0.7546771E-02  0.1137048E+00
          2   -1    0    0  505    0 -0.00000000000E+00  0.00000000000E+00  0.39953127344E+04  0.39953127344E+04  0.00000000000E+00 0.  1.
         21   -1    0    0  504  502  0.00000000000E+00 -0.00000000000E+00 -0.44556711475E+02  0.44556711475E+02  0.00000000000E+00 0.  1.
         21    1    1    2  503  501 -0.15073471406E+02  0.34827033874E+02  0.10463861688E+04  0.10470740882E+04  0.00000000000E+00 0.  1.
         21    1    1    2  504  503  0.42326876278E+02 -0.26868026257E+01  0.19395872826E+03  0.19854161184E+03  0.00000000000E+00 0.  1.
         21    1    1    2  505  502  0.12369373900E+03 -0.11912013555E+03  0.15026517771E+03  0.22818714116E+03  0.00000000000E+00 0.  1.
          2    1    1    2  501    0 -0.15094714387E+03  0.86979904298E+02  0.25601459481E+04  0.25660666047E+04  0.00000000000E+00 0.  1.
<scales pt_clust_3="34.01631" pt_clust_4="42.41207" pt_clust_5="203.12764" pt_clust_6="34.01631"></scales>
<clustering>
<clus scale="   34.016">  3  6 -1 -1</clus>
<clus scale="   42.412">  2  4  1 -1</clus>
<clus scale="  203.128">  2  5  1 -1</clus>
<clus scale="   42.412">  2  3  1 -1</clus>
</clustering>
</event>
<event>
 6    0  0.1622933E+002  0.6690862E+02  0.7546771E-02  0.1370933E+00
         -1   -1    0    0    0  501 -0.00000000000E+00  0.00000000000E+00  0.12317971635E+04  0.12317971635E+04  0.00000000000E+00 0.  1.
         21   -1    0    0  505  502  0.00000000000E+00 -0.00000000000E+00 -0.65349282813E+02  0.65349282813E+02  0.00000000000E+00 0.  1.
         21    1    1    2  503  501 -0.37788549121E+02 -0.19238201989E+02  0.42972281446E+03  0.43180988887E+03  0.00000000000E+00 0.  1.
         21    1    1    2  504  502 -0.49349408589E+02 -0.41143757303E+02 -0.29088266413E+02  0.70528718519E+02  0.00000000000E+00 0.  1.
         21    1    1    2  505  503 -0.26960559377E+02 -0.41944970957E+02  0.10204899507E+03  0.11357926636E+03  0.00000000000E+00 0. -1.
         -1    1    1    2    0  504  0.11409851709E+03  0.10232693025E+03  0.66376433759E+03  0.68122857259E+03  0.00000000000E+00 0.  1.
<scales pt_clust_3="42.40381" pt_clust_4="66.90862" pt_clust_5="54.86616" pt_clust_6="14000.00000"></scales>
<clustering>
<clus scale="   42.404">  1  3  2 -1</clus>
<clus scale="   54.866">  1  5  2 -1</clus>
<clus scale="   66.909">  2  4  1 -1</clus>
<clus scale="   66.909">  2  3  1 -1</clus>
</clustering>
</event>
<event>
 6    0  0.1622933E+002  0.1219664E+03  0.7546771E-02  0.1239888E+00
         21   -1    0    0  503  502  0.00000000000E+00  0.00000000000E+00  0.22935789300E+03  0.22935789300E+03  0.00000000000E+00 0.  1.
          3   -1    0    0  504    0 -0.00000000000E+00 -0.00000000000E+00 -0.44706176222E+03  0.44706176222E+03  0.00000000000E+00 0.  1.
         21    1    1    2  503  501  0.77805249180E+02 -0.10258937652E+03  0.15658647627E+03  0.20272533519E+03  0.00000000000E+00 0.  1.
         21    1    1    2  504  505  0.39455933014E+02  0.89014679068E+01 -0.21926214195E+03  0.22296164171E+03  0.00000000000E+00 0.  1.
         21    1    1    2  505  502 -0.98397326791E+02 -0.37962238519E+00 -0.57700739448E+02  0.11406819612E+03  0.00000000000E+00 0.  1.
          3    1    1    2  501    0 -0.18863855403E+02  0.94067531001E+02 -0.97327464097E+02  0.13666448221E+03  0.00000000000E+00 0.  1.
<scales pt_clust_3="14000.00000" pt_clust_4="40.44758" pt_clust_5="83.45404" pt_clust_6="121.96643"></scales>
<clustering>
<clus scale="   40.448">  2  4  1 -1</clus>
<clus scale="   83.454">  2  5  1 -1</clus>
<clus scale="  121.966">  2  6  1 -1</clus>
<clus scale="  121.966">  1  3  2 -1</clus>
</clustering>
</event>
<event>
 6    0  0.1622933E+002  0.1090992E+03  0.7546771E-02  0.1262247E+00
         21   -1    0    0  504  502  0.00000000000E+00  0.00000000000E+00  0.32522795750E+03  0.32522795750E+03  0.00000000000E+00 0. -1.
          2   -1    0    0  503    0 -0.00000000000E+00 -0.00000000000E+00 -0.10372821612E+04  0.10372821612E+04  0.00000000000E+00 0. -1.
         21    1    1    2  503  502  0.23624538612E+02  0.56539379268E+02 -0.14068662720E+02  0.62870879614E+02  0.00000000000E+00 0.  1.
         21    1    1    2  504  505 -0.27629060149E+02  0.75033841624E+02  0.28077720734E+03  0.29194054620E+03  0.00000000000E+00 0. -1.
         21    1    1    2  505  501 -0.24118389765E+02 -0.71196898671E+02 -0.93668714913E+02  0.12010213678E+03  0.00000000000E+00 0. -1.
          2    1    1    2  501    0  0.28122911302E+02 -0.60376322221E+02 -0.88509403345E+03  0.88759655614E+03  0.00000000000E+00 0. -1.
<scales pt_clust_3="61.27659" pt_clust_4="109.09924" pt_clust_5="14000.00000" pt_clust_6="66.43337"></scales>
<clustering>
<clus scale="   61.277">  1  3  2 -1</clus>
<clus scale="   66.433">  2  6  1 -1</clus>
<clus scale="  109.099">  1  4  2 -1</clus>
<clus scale="   61.277">  1  3  2 -1</clus>
</clustering>
</event>
<event>
 6    0  0.1622933E+002  0.1316668E+03  0.7546771E-02  0.1225003E+00
          2   -1    0    0  503    0 -0.00000000000E+00  0.00000000000E+00  0.11052020107E+04  0.11052020107E+04  0.00000000000E+00 0. -1.
         21   -1    0    0  504  502  0.00000000000E+00 -0.00000000000E+00 -0.17679807750E+03  0.17679807750E+03  0.00000000000E+00 0. -1.
         21    1    1    2  503  505 -0.12251984681E+03 -0.46596473436E+02  0.36335590597E+03  0.38627691958E+03  0.00000000000E+00 0. -1.
         21    1    1    2  504  501  0.98548791774E+02 -0.75417115432E+02  0.12861137125E+03  0.17871902662E+03  0.00000000000E+00 0. -1.
         21    1    1    2  505  502 -0.11512857677E+03  0.14784911700E+03 -0.63172713926E+02  0.19774919057E+03  0.00000000000E+00 0. -1.
          2    1    1    2  501    0  0.13909963180E+03 -0.25835528136E+02  0.49960936995E+03  0.51925495147E+03  0.00000000000E+00 0. -1.
<scales pt_clust_3="131.66679" pt_clust_4="124.09515" pt_clust_5="88.40200" pt_clust_6="14000.00000"></scales>
<clustering>
<clus scale="  124.095">  2  4  1 -1</clus>
<clus scale="   88.402">  2  5  1 -1</clus>
<clus scale="  131.667">  2  3  1 -1</clus>
<clus scale="  124.095">  2  3  1 -1</clus>
</clustering>
</event>
<event>
 6    0  0.1622933E+002  0.1880610E+03  0.7546771E-02  0.1160222E+00
          2   -1    0    0  505    0 -0.00000000000E+00  0.00000000000E+00  0.79984820976E+03  0.79984820976E+03  0.00000000000E+00 0. -1.
         21   -1    0    0  503  502  0.00000000000E+00 -0.00000000000E+00 -0.11569027871E+03  0.11569027871E+03  0.00000000000E+00 0. -1.
         21    1    1    2  503  501 -0.25048336359E+02  0.46094593947E+02 -0.23888128043E+02  0.57643502729E+02  0.00000000000E+00 0. -1.
         21    1    1    2  504  502 -0.55159780640E+02 -0.19712846747E+02  0.38610940051E+02  0.70156984106E+02  0.00000000000E+00 0.  1.
         21    1    1    2  505  504  0.17317930306E+03 -0.58601994800E+02  0.66452879209E+03  0.68921968944E+03  0.00000000000E+00 0. -1.
          2    1    1    2  501    0 -0.92971186059E+02  0.32220247600E+02  0.49063269574E+01  0.98518312190E+02  0.00000000000E+00 0. -1.
<scales pt_clust_3="45.97441" pt_clust_4="58.57643" pt_clust_5="177.20766" pt_clust_6="45.97441"></scales>
<clustering>
<clus scale="   45.974">  3  6 -1 -1</clus>
<clus scale="   58.576">  2  4  1 -1</clus>
<clus scale="  177.208">  1  5  2 -1</clus>
<clus scale="   58.576">  2  3  1 -1</clus>
</clustering>
</event>
<event>
 6    0  0.1622933E+002  0.1575406E+03  0.7546771E-02  0.1191502E+00
         21   -1    0    0  503  502  0.00000000000E+00  0.00000000000E+00  0.14590023292E+03  0.14590023292E+03  0.00000000000E+00 0.  1.
          1   -1    0    0  505    0 -0.00000000000E+00 -0.00000000000E+00 -0.26676365419E+03  0.26676365419E+03  0.00000000000E+00 0.  1.
         21    1    1    2  503  501  0.81193440403E+02 -0.13722390637E+03 -0.18523885233E+02  0.16051763009E+03  0.00000000000E+00 0.  1.
         21    1    1    2  504  502  0.14093845727E+02  0.31557625449E+02  0.81238353059E+01  0.35503759117E+02  0.00000000000E+00 0.  1.
         21    1    1    2  505  504 -0.20977405594E+02  0.10894440609E+03 -0.54818341571E+02  0.12374968985E+03  0.00000000000E+00 0.  1.
          1    1    1    2  501    0 -0.74309880535E+02 -0.32781251714E+01 -0.55645029772E+02  0.92892808054E+02  0.00000000000E+00 0.  1.
<scales pt_clust_3="146.37611" pt_clust_4="32.51175" pt_clust_5="32.51175" pt_clust_6="74.38215"></scales>
<clustering>
<clus scale="   32.512">  4  5 -1 -1</clus>
<clus scale="   74.382">  2  6  1 -1</clus>
<clus scale="  146.376">  1  3  2 -1</clus>
<clus scale="  146.376">  1  3  2 -1</clus>
</clustering>
</event>
<event>
 6    0  0.1981009E+002  0.3141216E+03  0.7546771E-02  0.1078387E+00
         21   -1    0    0  503  502  0.00000000000E+00  0.00000000000E+00  0.17654810198E+04  0.17654810198E+04  0.00000000000E+00 0.  1.
          2   -1    0    0  504    0 -0.00000000000E+00 -0.00000000000E+00 -0.73895125419E+03  0.73895125419E+03  0.00000000000E+00 0.  1.
         21    1    1    2  503  501  0.19802270195E+03 -0.24684707557E+03  0.16629137566E+04  0.16927577000E+04  0.00000000000E+00 0.  1.
         21    1    1    2  504  505  0.38004482508E+02  0.29302309418E+02 -0.13827222143E+02  0.49941546833E+02  0.00000000000E+00 0. -1.
         21    1    1    2  505  502 -0.11385983800E+03  0.37585688993E+02 -0.20567938648E+02  0.12165437447E+03  0.00000000000E+00 0.  1.
          2    1    1    2  501    0 -0.12216734646E+03  0.17995907716E+03 -0.60198883015E+03  0.64007865268E+03  0.00000000000E+00 0.  1.
<scales pt_clust_3="314.12158" pt_clust_4="47.98923" pt_clust_5="117.26544" pt_clust_6="14000.00000"></scales>
<clustering>
<clus scale="   47.989">  2  4  1 -1</clus>
<clus scale="  117.265">  2  5  1 -1</clus>
<clus scale="  314.122">  1  3  2 -1</clus>
<clus scale="  314.122">  1  3  2 -1</clus>
</clustering>
</event>
<event>
 6    0  0.1622933E+002  0.8176776E+02  0.7546771E-02  0.1324108E+00
         21   -1    0    0  505  502  0.00000000000E+00  0.00000000000E+00  0.16220055875E+03  0.16220055875E+03  0.00000000000E+00 0. -1.
         -3   -1    0    0    0  501 -0.00000000000E+00 -0.00000000000E+00 -0.61593227617E+03  0.61593227617E+03  0.00000000000E+00 0. -1.
         21    1    1    2  503  502  0.55439516897E+02  0.34342879721E+02  0.12987377430E+03  0.14532780420E+03  0.00000000000E+00 0. -1.
         21    1    1    2  504  503 -0.19779527237E+02 -0.76156541581E+02 -0.88141402027E+02  0.11815225463E+03  0.00000000000E+00 0. -1.
         21    1    1    2  505  501  0.31969956898E+01  0.63973800225E+02 -0.43362867533E+03  0.43833400046E+03  0.00000000000E+00 0. -1.
         -3    1    1    2    0  504 -0.38856985349E+02 -0.22160138365E+02 -0.61835414365E+02  0.76318775622E+02  0.00000000000E+00 0. -1.
<scales pt_clust_3="66.81646" pt_clust_4="35.53800" pt_clust_5="64.05363" pt_clust_6="35.53800"></scales>
<clustering>
<clus scale="   35.538">  4  6 -1 -1</clus>
<clus scale="   64.054">  2  5  1 -1</clus>
<clus scale="   66.816">  1  3  2 -1</clus>
<clus scale="   66.816">  1  3  2 -1</clus>
</clustering>
</event>
<event>
 6    0  0.1622933E+002  0.6263693E+02  0.7546771E-02  0.1387087E+00
          1   -1    0    0  505    0 -0.00000000000E+00  0.00000000000E+00  0.24961925096E+04  0.24961925096E+04  0.00000000000E+00 0.  1.
         21   -1    0    0  504  502  0.00000000000E+00 -0.00000000000E+00 -0.14813788516E+02  0.14813788516E+02  0.00000000000E+00 0.  1.
         21    1    1    2  503  502  0.55436828601E+02  0.62409953414E+00  0.73554905980E+02  0.92108390819E+02  0.00000000000E+00 0.  1.
         21    1    1    2  504  501 -0.30524763969E+02 -0.73597080061E+02  0.54117230066E+03  0.54700617036E+03  0.00000000000E+00 0.  1.
         21    1    1    2  505  503  0.35121701420E+02  0.40276770771E+02  0.38823267501E+03  0.39189330451E+03  0.00000000000E+00 0.  1.
          1    1    1    2  501    0 -0.60033766052E+02  0.32696209756E+02  0.14784188394E+04  0.14799984324E+04  0.00000000000E+00 0.  1.
<scales pt_clust_3="56.86102" pt_clust_4="14000.00000" pt_clust_5="53.43924" pt_clust_6="62.63693"></scales>
<clustering>
<clus scale="   53.439">  1  5  2 -1</clus>
<clus scale="   56.861">  2  3  1 -1</clus>
<clus scale="   62.637">  1  6  2 -1</clus>
<clus scale="   56.861">  2  3  1 -1</clus>
</clustering>
</event>
<event>
 6    0  0.1622933E+002  0.5662592E+03  0.7546771E-02  0.9977991E-01
          2   -1    0    0  505    0 -0.00000000000E+00  0.00000000000E+00  0.62154518124E+03  0.62154518124E+03  0.00000000000E+00 0.  1.
         21   -1    0    0  501  502  0.00000000000E+00 -0.00000000000E+00 -0.14044368905E+04  0.14044368905E+04  0.00000000000E+00 0. -1.
         21    1    1    2  503  504  0.89880479053E+01 -0.47647242292E+03 -0.10388827004E+04  0.11429715744E+04  0.00000000000E+00 0. -1.
         21    1    1    2  504  502 -0.38367570297E+02 -0.12620836148E+03 -0.63491653155E+02  0.14639607569E+03  0.00000000000E+00 0. -1.
         21    1    1    2  505  503 -0.41515098034E+02  0.95068497778E+02 -0.39348778078E+02  0.11094975877E+03  0.00000000000E+00 0.  1.
          2    1    1    2  501    0  0.70894620426E+02  0.50761228662E+03  0.35883142233E+03  0.62566466288E+03  0.00000000000E+00 0.  1.
<scales pt_clust_3="14000.00000" pt_clust_4="126.41891" pt_clust_5="103.73776" pt_clust_6="566.25921"></scales>
<clustering>
<clus scale="  103.738">  1  5  2 -1</clus>
<clus scale="  126.419">  2  4  1 -1</clus>
<clus scale="  566.259">  1  6  2 -1</clus>
<clus scale="  126.419">  2  3  1 -1</clus>
</clustering>
</event>
<event>
 6    0  0.1622933E+002  0.7825266E+02  0.7546771E-02  0.1334085E+00
         21   -1    0    0  501  502  0.00000000000E+00  0.00000000000E+00  0.12934282157E+03  0.12934282157E+03  0.00000000000E+00 0. -1.
          3   -1    0    0  505    0 -0.00000000000E+00 -0.00000000000E+00 -0.97152611393E+03  0.97152611393E+03  0.00000000000E+00 0.  1.
         21    1    1    2  503  502 -0.44890328977E+02  0.25692105647E+02  0.11197378678E+03  0.12334242926E+03  0.00000000000E+00 0. -1.
         21    1    1    2  504  503  0.82625375209E+02 -0.11462669993E+02 -0.54389311052E+03  0.55025272476E+03  0.00000000000E+00 0.  1.
         21    1    1    2  505  504  0.30443004226E+02 -0.33499639070E+02 -0.11404548100E+03  0.12270034255E+03  0.00000000000E+00 0.  1.
          3    1    1    2  501    0 -0.68178050459E+02  0.19270203416E+02 -0.29621848762E+03  0.30457343894E+03  0.00000000000E+00 0.  1.
<scales pt_clust_3="51.43576" pt_clust_4="14000.00000" pt_clust_5="45.26591" pt_clust_6="78.25266"></scales>
<clustering>
<clus scale="   45.266">  2  5  1 -1</clus>
<clus scale="   51.436">  1  3  2 -1</clus>
<clus scale="   78.253">  2  6  1 -1</clus>
<clus scale="   51.436">  1  3  2 -1</clus>
</clustering>
</event>
<event>
 6    0  0.1622933E+002  0.1131513E+03  0.7546771E-02  0.1254843E+00
         21   -1    0    0  503  502  0.00000000000E+00  0.00000000000E+00  0.30898603771E+02  0.30898603771E+02  0.00000000000E+00 0. -1.
          2   -1    0    0  505    0 -0.00000000000E+00 -0.00000000000E+00 -0.30442954612E+04  0.30442954612E+04  0.00000000000E+00 0. -1.
         21    1    1    2  503  501  0.26808924054E+02 -0.16417518292E+02  0.12499758783E+02  0.33830419528E+02  0.00000000000E+00 0. -1.
         21    1    1    2  504  502  0.70574257588E+01 -0.11609375461E+03 -0.62929980053E+03  0.63995765959E+03  0.00000000000E+00 0. -1.
         21    1    1    2  505  504  0.12254120723E+02  0.45427117249E+02 -0.11311275278E+04  0.11321056799E+04  0.00000000000E+00 0. -1.
          2    1    1    2  501    0 -0.46120470536E+02  0.87084155652E+02 -0.12654692879E+04  0.12693003060E+04  0.00000000000E+00 0. -1.
<scales pt_clust_3="31.43650" pt_clust_4="113.15134" pt_clust_5="46.52913" pt_clust_6="14000.00000"></scales>
<clustering>
<clus scale="   31.436">  1  3  2 -1</clus>
<clus scale="   46.529">  2  5  1 -1</clus>
<clus scale="  113.151">  1  4  2 -1</clus>
<clus scale="   31.436">  1  3  2 -1</clus>
</clustering>
</event>
<event>
 6    0  0.1622933E+002  0.8013076E+02  0.7546771E-02  0.1328681E+00
          2   -1    0    0  503    0 -0.00000000000E+00  0.00000000000E+00  0.16662080253E+04  0.16662080253E+04  0.00000000000E+00 0.  1.
         21   -1    0    0  504  502  0.00000000000E+00 -0.00000000000E+00 -0.26833942409E+02  0.26833942409E+02  0.00000000000E+00 0.  1.
         21    1    1    2  503  505  0.19185168353E+02  0.31121180860E+02  0.27425750732E+03  0.27668353566E+03  0.00000000000E+00 0. -1.
         21    1    1    2  504  501 -0.60416899947E+02 -0.50968738060E+01  0.45364212444E+02  0.75723785513E+02  0.00000000000E+00 0.  1.
         21    1    1    2  505  502 -0.66411735959E+02 -0.65531718482E+02  0.92128317070E+03  0.92599546727E+03  0.00000000000E+00 0.  1.
          2    1    1    2  501    0  0.10764346755E+03  0.39507411428E+02  0.39846919241E+03  0.41463917925E+03  0.00000000000E+00 0.  1.
<scales pt_clust_3="36.55952" pt_clust_4="59.69909" pt_clust_5="14000.00000" pt_clust_6="80.13076"></scales>
<clustering>
<clus scale="   36.560">  1  3  2 -1</clus>
<clus scale="   59.699">  2  4  1 -1</clus>
<clus scale="   80.131">  2  6  1 -1</clus>
<clus scale="   59.699">  2  3  1 -1</clus>
</clustering>
</event>
<event>
 6    0  0.2223771E+002  0.1205594E+03  0.7546771E-02  0.1242177E+00
         21   -1    0    0  503  502  0.00000000000E+00  0.00000000000E+00  0.58675093813E+03  0.58675093813E+03  0.00000000000E+00 0. -1.
          4   -1    0    0  505    0 -0.00000000000E+00 -0.00000000000E+00 -0.21439937880E+04  0.21439937880E+04  0.00000000000E+00 0. -1.
         21    1    1    2  503  501 -0.50424314330E+02  0.73648093611E+02 -0.20598319556E+03  0.22448993301E+03  0.00000000000E+00 0.  1.
         21    1    1    2  504  502 -0.40736934300E+02  0.38375065423E+02  0.57094880825E+03  0.57368517944E+03  0.00000000000E+00 0. -1.
         21    1    1    2  505  504  0.12629419892E+00 -0.39693177824E+02 -0.11562710803E+03  0.12225053140E+03  0.00000000000E+00 0.  1.
          4    1    1    2  501    0  0.91034954431E+02 -0.72329981210E+02 -0.18065813545E+04  0.18103190823E+04  0.00000000000E+00 0. -1.
<scales pt_clust_3="120.55938" pt_clust_4="55.94711" pt_clust_5="39.69338" pt_clust_6="14000.00000"></scales>
<clustering>
<clus scale="   39.693">  2  5  1 -1</clus>
<clus scale="   55.947">  1  4  2 -1</clus>
<clus scale="  120.559">  1  3  2 -1</clus>
<clus scale="   55.947">  1  3  2 -1</clus>
</clustering>
</event>
<event>
 6    0  0.1622933E+002  0.2066786E+03  0.7546771E-02  0.1144224E+00
          2   -1    0    0  503    0 -0.00000000000E+00  0.00000000000E+00  0.19751096608E+04  0.19751096608E+04  0.00000000000E+00 0. -1.
         21   -1    0    0  505  502  0.00000000000E+00 -0.00000000000E+00 -0.47765625516E+02  0.47765625516E+02  0.00000000000E+00 0. -1.
         21    1    1    2  503  502 -0.17726539376E+03  0.47780134549E+02  0.67244721723E+03  0.69705897960E+03  0.00000000000E+00 0. -1.
         21    1    1    2  504  501  0.53256471561E+02  0.10474120113E+01  0.52531176323E+03  0.52800548995E+03  0.00000000000E+00 0. -1.
         21    1    1    2  505  504 -0.12189932981E+01  0.33057146849E+02 -0.16432846547E+02  0.36936423055E+02  0.00000000000E+00 0. -1.
          2    1    1    2  501    0  0.12522791549E+03 -0.81884693409E+02  0.74601790140E+03  0.76087439373E+03  0.00000000000E+00 0. -1.
<scales pt_clust_3="190.19760" pt_clust_4="49.32759" pt_clust_5="33.07961" pt_clust_6="49.32759"></scales>
<clustering>
<clus scale="   33.080">  2  5  1 -1</clus>
<clus scale="   49.328">  4  6 -1 -1</clus>
<clus scale="  190.198">  2  3  1 -1</clus>
<clus scale="   33.080">  2  3  1 -1</clus>
</clustering>
</event>
<event>
 6    0  0.1622933E+002  0.1329875E+03  0.7546771E-02  0.1223089E+00
          1   -1    0    0  504    0 -0.00000000000E+00  0.00000000000E+00  0.19423048675E+04  0.19423048675E+04  0.00000000000E+00 0.  1.
         21   -1    0    0  503  502  0.00000000000E+00 -0.00000000000E+00 -0.17606098286E+03  0.17606098286E+03  0.00000000000E+00 0.  1.
         21    1    1    2  503  501 -0.18313475940E+02  0.29103432624E+02  0.47503303275E+02  0.58642621135E+02  0.00000000000E+00 0.  1.
         21    1    1    2  504  505 -0.12592529157E+03 -0.16930459884E+02  0.85077637394E+03  0.86021175183E+03  0.00000000000E+00 0.  1.
         21    1    1    2  505  502  0.64377322663E+01  0.55049791887E+02 -0.15526390024E+03  0.16485994875E+03  0.00000000000E+00 0.  1.
          1    1    1    2  501    0  0.13780103525E+03 -0.67222764627E+02  0.10232281076E+04  0.10346515286E+04  0.00000000000E+00 0.  1.
<scales pt_clust_3="34.38594" pt_clust_4="132.98754" pt_clust_5="83.07210" pt_clust_6="14000.00000"></scales>
<clustering>
<clus scale="   34.386">  2  3  1 -1</clus>
<clus scale="   83.072">  2  5  1 -1</clus>
<clus scale="  132.988">  1  4  2 -1</clus>
<clus scale="   34.386">  2  3  1 -1</clus>
</clustering>
</event>
<event>
 6    0  0.1622933E+002  0.3543205E+03  0.7546771E-02  0.1060856E+00
          2   -1    0    0  504    0 -0.00000000000E+00  0.00000000000E+00  0.10516117317E+04  0.10516117317E+04  0.00000000000E+00 0.  1.
         21   -1    0    0  503  502  0.00000000000E+00 -0.00000000000E+00 -0.91789786594E+03  0.91789786594E+03  0.00000000000E+00 0.  1.
         21    1    1    2  503  501  0.17552095551E+03  0.24451222564E+02  0.38250051000E+03  0.42155913969E+03  0.00000000000E+00 0.  1.
         21    1    1    2  504  505 -0.23811204141E+03 -0.15421391085E+03  0.20425661842E+03  0.34957122412E+03  0.00000000000E+00 0.  1.
         21    1    1    2  505  502 -0.47862635164E+02 -0.31667484726E+02 -0.79894476667E+03  0.80100337179E+03  0.00000000000E+00 0.  1.
          2    1    1    2  501    0  0.11045372107E+03  0.16143017301E+03  0.34590150397E+03  0.39737586200E+03  0.00000000000E+00 0.  1.
<scales pt_clust_3="147.54188" pt_clust_4="319.04760" pt_clust_5="57.39043" pt_clust_6="147.54188"></scales>
<clustering>
<clus scale="   57.390">  2  5  1 -1</clus>
<clus scale="  147.542">  3  6 -1 -1</clus>
<clus scale="  319.048">  2  4  1 -1</clus>
<clus scale="   57.390">  2  3  1 -1</clus>
</clustering>
</event>
<event>
 6    0  0.1622933E+002  0.1794438E+03  0.7546771E-02  0.1168342E+00
         21   -1    0    0  501  502  0.00000000000E+00  0.00000000000E+00  0.23452165630E+04  0.23452165630E+04  0.00000000000E+00 0.  1.
          1   -1    0    0  504    0 -0.00000000000E+00 -0.00000000000E+00 -0.13439573017E+04  0.13439573017E+04  0.00000000000E+00 0. -1.
         21    1    1    2  503  502  0.63861053995E+02 -0.21044402574E+02  0.20596924918E+04  0.20607897180E+04  0.00000000000E+00 0.  1.
         21    1    1    2  504  505 -0.57774165812E+02 -0.12981157531E+03 -0.10699764324E+04  0.10793694757E+04  0.00000000000E+00 0. -1.
         21    1    1    2  505  503 -0.16361995775E+03  0.17454480577E+03  0.19311979313E+03  0.30746159807E+03  0.00000000000E+00 0. -1.
          1    1    1    2  501    0  0.15753306956E+03 -0.23688827884E+02 -0.18157659121E+03  0.24155307294E+03  0.00000000000E+00 0. -1.
<scales pt_clust_3="67.23913" pt_clust_4="141.98084" pt_clust_5="179.44378" pt_clust_6="14000.00000"></scales>
<clustering>
<clus scale="   67.239">  1  3  2 -1</clus>
<clus scale="  141.981">  2  4  1 -1</clus>
<clus scale="  179.444">  1  5  2 -1</clus>
<clus scale="   67.239">  1  3  2 -1</clus>
</clustering>
</event>
<event>
 6    0  0.1622933E+002  0.9815269E+02  0.7546771E-02  0.1284229E+00
          4   -1    0    0  504    0 -0.00000000000E+00  0.00000000000E+00  0.88845321170E+02  0.88845321170E+02  0.00000000000E+00 0. -1.
         21   -1    0    0  505  502  0.00000000000E+00 -0.00000000000E+00 -0.11250391647E+04  0.11250391647E+04  0.00000000000E+00 0. -1.
         21    1    1    2  503  502  0.49898767240E+02 -0.25061847327E+02 -0.92293402618E+03  0.92462165227E+03  0.00000000000E+00 0. -1.
         21    1    1    2  504  503 -0.29949779665E+02 -0.21417733895E+01 -0.15798852930E+02  0.33929047277E+02  0.00000000000E+00 0. -1.
         21    1    1    2  505  501  0.61895994212E+02  0.52018394669E+02 -0.13857762438E+03  0.16043935136E+03  0.00000000000E+00 0. -1.
          4    1    1    2  501    0 -0.81844981787E+02 -0.24814773953E+02  0.41116660006E+02  0.94894434927E+02  0.00000000000E+00 0. -1.
<scales pt_clust_3="55.56624" pt_clust_4="30.02626" pt_clust_5="14000.00000" pt_clust_6="98.15269"></scales>
<clustering>
<clus scale="   30.026">  1  4  2 -1</clus>
<clus scale="   55.566">  2  3  1 -1</clus>
<clus scale="   98.153">  1  6  2 -1</clus>
<clus scale="   55.566">  2  3  1 -1</clus>
</clustering>
</event>
<event>
 6    0  0.1622933E+002  0.8815660E+02  0.7546771E-02  0.1307378E+00
         21   -1    0    0  503  502  0.00000000000E+00  0.00000000000E+00  0.21211119084E+03  0.21211119084E+03  0.00000000000E+00 0. -1.
         -2   -1    0    0    0  501 -0.00000000000E+00 -0.00000000000E+00 -0.63688844193E+03  0.63688844193E+03  0.00000000000E+00 0.  1.
         21    1    1    2  503  505  0.18017136385E+02 -0.31085963750E+02 -0.20574022776E+02  0.41403438976E+02  0.00000000000E+00 0.  1.
         21    1    1    2  504  502  0.69027940750E+02  0.33239988852E+02  0.18406056863E+03  0.19936912095E+03  0.00000000000E+00 0. -1.
         21    1    1    2  505  501  0.27029078915E+02 -0.15255199322E+02 -0.59158684802E+02  0.66806004227E+02  0.00000000000E+00 0.  1.
         -2    1    1    2    0  504 -0.11407415605E+03  0.13101174221E+02 -0.52910511215E+03  0.54142106862E+03  0.00000000000E+00 0.  1.
<scales pt_clust_3="37.38404" pt_clust_4="88.15660" pt_clust_5="31.03695" pt_clust_6="14000.00000"></scales>
<clustering>
<clus scale="   31.037">  2  5  1 -1</clus>
<clus scale="   37.384">  1  3  2 -1</clus>
<clus scale="   88.157">  1  4  2 -1</clus>
<clus scale="   37.384">  1  3  2 -1</clus>
</clustering>
</event>
<event>
 6    0  0.1622933E+002  0.1359334E+03  0.7546771E-02  0.1218908E+00
         21   -1    0    0  505  502  0.00000000000E+00  0.00000000000E+00  0.15312771539E+04  0.15312771539E+04  0.00000000000E+00 0. -1.
          2   -1    0    0  504    0 -0.00000000000E+00 -0.00000000000E+00 -0.91094244889E+03  0.91094244889E+03  0.00000000000E+00 0. -1.
         21    1    1    2  503  502 -0.12483731776E+03 -0.35175479017E+02  0.15209498174E+04  0.15264697892E+04  0.00000000000E+00 0. -1.
         21    1    1    2  504  503  0.56295984693E+00  0.30046544925E+02 -0.97152404097E+02  0.10169415621E+03  0.00000000000E+00 0. -1.
         21    1    1    2  505  501  0.64248193620E+02  0.22588673019E+02 -0.39223136461E+03  0.39809988937E+03  0.00000000000E+00 0. -1.
          2    1    1    2  501    0  0.60026164295E+02 -0.17459738927E+02 -0.41123134371E+03  0.41595576800E+03  0.00000000000E+00 0. -1.
<scales pt_clust_3="129.66886" pt_clust_4="30.05182" pt_clust_5="36.71638" pt_clust_6="36.71638"></scales>
<clustering>
<clus scale="   30.052">  2  4  1 -1</clus>
<clus scale="   36.716">  5  6 -1 -1</clus>
<clus scale="  129.669">  1  3  2 -1</clus>
<clus scale="  129.669">  1  3  2 -1</clus>
</clustering>
</event>
<event>
 6    0  0.1622933E+002  0.1921401E+03  0.7546771E-02  0.1156545E+00
          2   -1    0    0  504    0 -0.00000000000E+00  0.00000000000E+00  0.10102512560E+04  0.10102512560E+04  0.00000000000E+00 0. -1.
         21   -1    0    0  505  502  0.00000000000E+00 -0.00000000000E+00 -0.10502457262E+03  0.10502457262E+03  0.00000000000E+00 0. -1.
         21    1    1    2  503  502  0.14559438989E+03  0.13561804556E+01  0.18583830870E+03  0.23608354999E+03  0.00000000000E+00 0. -1.
         21    1    1    2  504  503  0.60379782993E+02  0.11610529869E+02  0.64907144394E+03  0.65197719434E+03  0.00000000000E+00 0. -1.
         21    1    1    2  505  501 -0.16063863820E+03  0.14888314911E+02  0.40964125588E+02  0.16644666890E+03  0.00000000000E+00 0. -1.
          2    1    1    2  501    0 -0.45335534686E+02 -0.27855025237E+02  0.29352805118E+02  0.60768415353E+02  0.00000000000E+00 0. -1.
<scales pt_clust_3="181.18803" pt_clust_4="61.48595" pt_clust_5="36.72262" pt_clust_6="36.72262"></scales>
<clustering>
<clus scale="   36.723">  5  6 -1 -1</clus>
<clus scale="   61.486">  1  4  2 -1</clus>
<clus scale="  181.188">  1  3  2 -1</clus>
<clus scale="  192.140">  2  3  1 -1</clus>
</clustering>
</event>
<event>
 6    0  0.1622933E+002  0.1022715E+03  0.7546771E-02  0.1275590E+00
         21   -1    0    0  505  502  0.00000000000E+00  0.00000000000E+00  0.76815466612E+02  0.76815466612E+02  0.00000000000E+00 0.  1.
          2   -1    0    0  503    0 -0.00000000000E+00 -0.00000000000E+00 -0.13729287219E+04  0.13729287219E+04  0.00000000000E+00 0. -1.
         21    1    1    2  503  504 -0.70665142108E+02  0.54007538341E+02 -0.38664690568E+03  0.39674450995E+03  0.00000000000E+00 0. -1.
         21    1    1    2  504  502 -0.10794393317E+02 -0.48260967042E+02 -0.58170772021E+02  0.76351022157E+02  0.00000000000E+00 0.  1.
         21    1    1    2  505  501 -0.37409705825E+02 -0.50613135187E+02  0.41155110103E+02  0.75199193020E+02  0.00000000000E+00 0.  1.
          2    1    1    2  501    0  0.11886924125E+03  0.44866563888E+02 -0.89245068768E+03  0.90144946337E+03  0.00000000000E+00 0. -1.
<scales pt_clust_3="87.45904" pt_clust_4="49.45341" pt_clust_5="102.27155" pt_clust_6="14000.00000"></scales>
<clustering>
<clus scale="   49.453">  1  4  2 -1</clus>
<clus scale="   87.459">  2  3  1 -1</clus>
<clus scale="  102.272">  1  5  2 -1</clus>
<clus scale="   49.453">  1  3  2 -1</clus>
</clustering>
</event>
<event>
 6    0  0.1622933E+002  0.1257785E+03  0.7546771E-02  0.1233858E+00
          4   -1    0    0  504    0 -0.00000000000E+00  0.00000000000E+00  0.13442733337E+04  0.13442733337E+04  0.00000000000E+00 0. -1.
         21   -1    0    0  501  502  0.00000000000E+00 -0.00000000000E+00 -0.79380325322E+02  0.79380325322E+02  0.00000000000E+00 0. -1.
         21    1    1    2  503  505 -0.85449060275E+02  0.10267771314E+03  0.37077933214E+03  0.39410857364E+03  0.00000000000E+00 0. -1.
         21    1    1    2  504  503 -0.31857648063E+02  0.84273524222E-01  0.17452014760E+03  0.17740405509E+03  0.00000000000E+00 0.  1.
         21    1    1    2  505  502 -0.23080770957E+01 -0.33511111659E+02 -0.55471280271E+02  0.64848937998E+02  0.00000000000E+00 0. -1.
          4    1    1    2  501    0  0.11961478543E+03 -0.69250875001E+02  0.77506480894E+03  0.78729209232E+03  0.00000000000E+00 0. -1.
<scales pt_clust_3="125.77852" pt_clust_4="31.85776" pt_clust_5="33.59919" pt_clust_6="14000.00000"></scales>
<clustering>
<clus scale="   31.858">  1  4  2 -1</clus>
<clus scale="   33.599">  2  5  1 -1</clus>
<clus scale="  125.779">  2  3  1 -1</clus>
<clus scale="   33.599">  2  3  1 -1</clus>
</clustering>
</event>
<event>
 6    0  0.1622933E+002  0.1583231E+03  0.7546771E-02  0.1190603E+00
          2   -1    0    0  505    0 -0.00000000000E+00  0.00000000000E+00  0.77268129735E+03  0.77268129735E+03  0.00000000000E+00 0.  1.
         21   -1    0    0  504  502  0.00000000000E+00 -0.00000000000E+00 -0.46969762482E+03  0.46969762482E+03  0.00000000000E+00 0. -1.
         21    1    1    2  503  502 -0.41486169300E+02  0.52293770891E+02  0.56401176150E+02  0.87388977499E+02  0.00000000000E+00 0.  1.
         21    1    1    2  504  501  0.15866144013E+03  0.17794537142E+02 -0.42550605403E+03  0.45447277163E+03  0.00000000000E+00 0. -1.
         21    1    1    2  505  503 -0.14291616148E+02 -0.57928873077E+02  0.82038295371E+02  0.10144104956E+03  0.00000000000E+00 0. -1.
          2    1    1    2  501    0 -0.10288365468E+03 -0.12159434956E+02  0.59005025504E+03  0.59907612348E+03  0.00000000000E+00 0.  1.
<scales pt_clust_3="63.09472" pt_clust_4="158.32310" pt_clust_5="59.66577" pt_clust_6="14000.00000"></scales>
<clustering>
<clus scale="   59.666">  1  5  2 -1</clus>
<clus scale="   63.095">  1  3  2 -1</clus>
<clus scale="  158.323">  2  4  1 -1</clus>
<clus scale="  158.323">  2  3  1 -1</clus>
</clustering>
</event>
<event>
 6    0  0.1622933E+002  0.9413612E+02  0.7546771E-02  0.1293134E+00
         21   -1    0    0  503  502  0.00000000000E+00  0.00000000000E+00  0.14899400386E+03  0.14899400386E+03  0.00000000000E+00 0.  1.
          2   -1    0    0  504    0 -0.00000000000E+00 -0.00000000000E+00 -0.10692050981E+04  0.10692050981E+04  0.00000000000E+00 0.  1.
         21    1    1    2  503  505 -0.60802144491E+02  0.49041308122E+02  0.12822168113E+03  0.15014243301E+03  0.00000000000E+00 0.  1.
         21    1    1    2  504  502 -0.48484810489E+02  0.10787872209E+02 -0.12001417455E+03  0.12988670882E+03  0.00000000000E+00 0.  1.
         21    1    1    2  505  501  0.59891461800E+02 -0.48303539015E+02 -0.40078489062E+03  0.40810384417E+03  0.00000000000E+00 0.  1.
          2    1    1    2  501    0  0.49395493180E+02 -0.11525641317E+02 -0.52763371021E+03  0.53006611598E+03  0.00000000000E+00 0.  1.
<scales pt_clust_3="78.63207" pt_clust_4="49.67046" pt_clust_5="42.02131" pt_clust_6="42.02131"></scales>
<clustering>
<clus scale="   42.021">  5  6 -1 -1</clus>
<clus scale="   49.670">  2  4  1 -1</clus>
<clus scale="   78.632">  1  3  2 -1</clus>
<clus scale="   78.632">  1  3  2 -1</clus>
</clustering>
</event>
<event>
 6    0  0.1622933E+002  0.9491384E+02  0.7546771E-02  0.1291370E+00
         21   -1    0    0  501  502  0.00000000000E+00  0.00000000000E+00  0.20153624146E+03  0.20153624146E+03  0.00000000000E+00 0. -1.
          2   -1    0    0  504    0 -0.00000000000E+00 -0.00000000000E+00 -0.25413899095E+04  0.25413899095E+04  0.00000000000E+00 0.  1.
         21    1    1    2  503  505  0.64078898389E+00  0.80547318977E+02 -0.21581792812E+03  0.23035984742E+03  0.00000000000E+00 0. -1.
         21    1    1    2  504  503  0.32391501955E+02  0.77587265668E+01 -0.55573923110E+03  0.55673647286E+03  0.00000000000E+00 0.  1.
         21    1    1    2  505  502 -0.56321595087E+02  0.56824309065E+01  0.18827020146E+03  0.19659623815E+03  0.00000000000E+00 0. -1.
          2    1    1    2  501    0  0.23289304149E+02 -0.93988476450E+02 -0.17565667103E+04  0.17592335925E+04  0.00000000000E+00 0.  1.
<scales pt_clust_3="94.91384" pt_clust_4="33.30777" pt_clust_5="56.54158" pt_clust_6="14000.00000"></scales>
<clustering>
<clus scale="   33.308">  2  4  1 -1</clus>
<clus scale="   56.542">  1  5  2 -1</clus>
<clus scale="   94.914">  1  3  2 -1</clus>
<clus scale="   56.542">  1  3  2 -1</clus>
</clustering>
</event>
<event>
 6    0  0.1622933E+002  0.1602123E+03  0.7546771E-02  0.1188457E+00
         21   -1    0    0  504  502  0.00000000000E+00  0.00000000000E+00  0.22022584058E+03  0.22022584058E+03  0.00000000000E+00 0.  1.
          2   -1    0    0  505    0 -0.00000000000E+00 -0.00000000000E+00 -0.18318173857E+04  0.18318173857E+04  0.00000000000E+00 0. -1.
         21    1    1    2  503  501  0.64027244243E+02 -0.95490690247E+02 -0.99514001243E+02  0.15205589884E+03  0.00000000000E+00 0.  1.
         21    1    1    2  504  503  0.34137708245E+02 -0.57975964496E+02  0.17729732177E+03  0.18963368870E+03  0.00000000000E+00 0.  1.
         21    1    1    2  505  502 -0.55692607311E+02 -0.56082209574E-02 -0.11323182645E+03  0.12618681810E+03  0.00000000000E+00 0.  1.
          2    1    1    2  501    0 -0.42472345177E+02  0.15347226296E+03 -0.15761430392E+04  0.15841668206E+04  0.00000000000E+00 0. -1.
<scales pt_clust_3="160.21233" pt_clust_4="67.17841" pt_clust_5="55.69261" pt_clust_6="14000.00000"></scales>
<clustering>
<clus scale="   55.693">  2  5  1 -1</clus>
<clus scale="   67.178">  1  4  2 -1</clus>
<clus scale="  160.212">  1  3  2 -1</clus>
<clus scale="   67.178">  1  3  2 -1</clus>
</clustering>
</event>
<event>
 6    0  0.1622933E+002  0.9003184E+02  0.7546771E-02  0.1302775E+00
         21   -1    0    0  503  502  0.00000000000E+00  0.00000000000E+00  0.24573152429E+02  0.24573152429E+02  0.00000000000E+00 0. -1.
          1   -1    0    0  504    0 -0.00000000000E+00 -0.00000000000E+00 -0.16877752118E+04  0.16877752118E+04  0.00000000000E+00 0. -1.
         21    1    1    2  503  501  0.77017490014E+02  0.32970250241E+02 -0.59620846951E+03  0.60206583551E+03  0.00000000000E+00 0. -1.
         21    1    1    2  504  505 -0.90633146440E+02  0.45763508837E+02 -0.33629420061E+03  0.35128685620E+03  0.00000000000E+00 0. -1.
         21    1    1    2  505  502 -0.27421009893E+02 -0.66647880331E+02 -0.83152431105E+02  0.11003716888E+03  0.00000000000E+00 0. -1.
          1    1    1    2  501    0  0.41036666319E+02 -0.12085878747E+02 -0.64754695815E+03  0.64895850365E+03  0.00000000000E+00 0. -1.
<scales pt_clust_3="90.03184" pt_clust_4="14000.00000" pt_clust_5="71.76508" pt_clust_6="42.77939"></scales>
<clustering>
<clus scale="   42.779">  2  6  1 -1</clus>
<clus scale="   71.765">  1  5  2 -1</clus>
<clus scale="   90.032">  2  3  1 -1</clus>
<clus scale="   71.765">  1  3  2 -1</clus>
</clustering>
</event>
<event>
 6    0  0.1622933E+002  0.1160331E+03  0.7546771E-02  0.1249788E+00
          2   -1    0    0  503    0 -0.00000000000E+00  0.00000000000E+00  0.75082682367E+03  0.75082682367E+03  0.00000000000E+00 0.  1.
         21   -1    0    0  504  502  0.00000000000E+00 -0.00000000000E+00 -0.11252167267E+04  0.11252167267E+04  0.00000000000E+00 0.  1.
         21    1    1    2  503  502  0.37386476725E+01  0.15449635434E+03  0.28993493721E+03  0.32855040527E+03  0.00000000000E+00 0.  1.
         21    1    1    2  504  505  0.58653748195E+02 -0.30081080931E+01 -0.10413312740E+04  0.10429861615E+04  0.00000000000E+00 0.  1.
         21    1    1    2  505  501  0.18783224975E+02 -0.73359347093E+02 -0.30556259693E+02  0.81658363642E+02  0.00000000000E+00 0. -1.
          2    1    1    2  501    0 -0.81175620843E+02 -0.78128899149E+02  0.40756269344E+03  0.42284861995E+03  0.00000000000E+00 0.  1.
<scales pt_clust_3="14000.00000" pt_clust_4="58.73083" pt_clust_5="95.36772" pt_clust_6="116.03313"></scales>
<clustering>
<clus scale="   58.731">  2  4  1 -1</clus>
<clus scale="   95.368">  2  5  1 -1</clus>
<clus scale="  116.033">  1  6  2 -1</clus>
<clus scale="   58.731">  2  3  1 -1</clus>
</clustering>
</event>
<event>
 6    0  0.1622933E+002  0.1061328E+03  0.7546771E-02  0.1267904E+00
          2   -1    0    0  504    0 -0.00000000000E+00  0.00000000000E+00  0.13997184783E+04  0.13997184783E+04  0.00000000000E+00 0.  1.
         21   -1    0    0  505  502  0.00000000000E+00 -0.00000000000E+00 -0.18783318354E+02  0.18783318354E+02  0.00000000000E+00 0. -1.
         21    1    1    2  503  502  0.31107874822E+02 -0.21713246856E+02  0.13158056904E+03  0.13694017348E+03  0.00000000000E+00 0.  1.
         21    1    1    2  504  503  0.33354847853E+02 -0.28224258783E+02  0.36269819707E+03  0.36532059457E+03  0.00000000000E+00 0. -1.
         21    1    1    2  505  501 -0.78650227249E+01 -0.76568923901E+02  0.17446018665E+03  0.19068564554E+03  0.00000000000E+00 0. -1.
          2    1    1    2  501    0 -0.56597699950E+02  0.12650642954E+03  0.71219620719E+03  0.72555538307E+03  0.00000000000E+00 0.  1.
<scales pt_clust_3="33.66303" pt_clust_4="33.66303" pt_clust_5="76.97180" pt_clust_6="99.79471"></scales>
<clustering>
<clus scale="   33.663">  3  4 -1 -1</clus>
<clus scale="   76.972">  2  5  1 -1</clus>
<clus scale="   99.795">  2  6  1 -1</clus>
<clus scale="   76.972">  2  3  1 -1</clus>
</clustering>
</event>
<event>
 6    0  0.1622933E+002  0.2338793E+03  0.7546771E-02  0.1123939E+00
         21   -1    0    0  501  502  0.00000000000E+00  0.00000000000E+00  0.31419159836E+03  0.31419159836E+03  0.00000000000E+00 0. -1.
          2   -1    0    0  505    0 -0.00000000000E+00 -0.00000000000E+00 -0.97145116609E+03  0.97145116609E+03  0.00000000000E+00 0. -1.
         21    1    1    2  503  504 -0.43884875227E+02  0.17713182153E+02 -0.20710730322E+03  0.21244546157E+03  0.00000000000E+00 0.  1.
         21    1    1    2  504  502  0.12533766669E+03 -0.19887292251E+03  0.23660426711E+03  0.33352893310E+03  0.00000000000E+00 0. -1.
         21    1    1    2  505  503 -0.22730302259E+02 -0.39615671282E+02 -0.97162793985E+02  0.10736236113E+03  0.00000000000E+00 0. -1.
          2    1    1    2  501    0 -0.58722489207E+02  0.22077541164E+03 -0.58959373762E+03  0.63230600865E+03  0.00000000000E+00 0. -1.
<scales pt_clust_3="50.03928" pt_clust_4="14000.00000" pt_clust_5="45.67349" pt_clust_6="233.87930"></scales>
<clustering>
<clus scale="   45.673">  2  5  1 -1</clus>
<clus scale="   50.039">  2  3  1 -1</clus>
<clus scale="  233.879">  2  6  1 -1</clus>
<clus scale="  233.879">  1  3  2 -1</clus>
</clustering>
</event>
<event>
 6    0  0.1622933E+002  0.1224813E+03  0.7546771E-02  0.1239059E+00
         21   -1    0    0  505  502  0.00000000000E+00  0.00000000000E+00  0.14812923418E+03  0.14812923418E+03  0.00000000000E+00 0.  1.
          2   -1    0    0  504    0 -0.00000000000E+00 -0.00000000000E+00 -0.11580920413E+04  0.11580920413E+04  0.00000000000E+00 0.  1.
         21    1    1    2  503  501 -0.30242457834E+02  0.80599560937E+02 -0.11137788744E+03  0.14076906368E+03  0.00000000000E+00 0.  1.
         21    1    1    2  504  502  0.82041657048E+02 -0.11725659860E+02 -0.24824056611E+03  0.26170919597E+03  0.00000000000E+00 0. -1.
         21    1    1    2  505  503 -0.79852013572E+02 -0.10715245789E+03  0.90490702769E+02  0.16138946865E+03  0.00000000000E+00 0.  1.
          2    1    1    2  501    0  0.28052814358E+02  0.38278556811E+02 -0.74083505637E+03  0.74235354721E+03  0.00000000000E+00 0.  1.
<scales pt_clust_3="94.71770" pt_clust_4="122.48127" pt_clust_5="14000.00000" pt_clust_6="47.45744"></scales>
<clustering>
<clus scale="   47.457">  2  6  1 -1</clus>
<clus scale="   94.718">  2  3  1 -1</clus>
<clus scale="  122.481">  2  4  1 -1</clus>
<clus scale="  122.481">  1  3  2 -1</clus>
</clustering>
</event>
<event>
 6    0  0.1622933E+002  0.7670104E+02  0.7546771E-02  0.1338683E+00
         21   -1    0    0  503  502  0.00000000000E+00  0.00000000000E+00  0.14700975777E+02  0.14700975777E+02  0.00000000000E+00 0. -1.
          2   -1    0    0  504    0 -0.00000000000E+00 -0.00000000000E+00 -0.20217246380E+04  0.20217246380E+04  0.00000000000E+00 0.  1.
         21    1    1    2  503  501 -0.30554768744E+02  0.37353260247E+02 -0.72363249738E+02  0.86978732209E+02  0.00000000000E+00 0. -1.
         21    1    1    2  504  505 -0.81245231802E+02 -0.41739509532E+02 -0.54237284946E+03  0.55001025643E+03  0.00000000000E+00 0. -1.
         21    1    1    2  505  502  0.38090721886E+02 -0.18244569717E+01 -0.14414370778E+03  0.14910278411E+03  0.00000000000E+00 0. -1.
          2    1    1    2  501    0  0.73709278659E+02  0.62107062570E+01 -0.12481438552E+04  0.12503338410E+04  0.00000000000E+00 0.  1.
<scales pt_clust_3="37.08725" pt_clust_4="14000.00000" pt_clust_5="38.13439" pt_clust_6="76.70104"></scales>
<clustering>
<clus scale="   38.134">  1  5  2 -1</clus>
<clus scale="   37.087">  1  3  2 -1</clus>
<clus scale="   76.701">  2  6  1 -1</clus>
<clus scale="   38.134">  1  3  2 -1</clus>
</clustering>
</event>
<event>
 6    0  0.1622933E+002  0.2708218E+03  0.7546771E-02  0.1100810E+00
         21   -1    0    0  505  502  0.00000000000E+00  0.00000000000E+00  0.80366058762E+03  0.80366058762E+03  0.00000000000E+00 0. -1.
          2   -1    0    0  504    0 -0.00000000000E+00 -0.00000000000E+00 -0.33362466005E+04  0.33362466005E+04  0.00000000000E+00 0. -1.
         21    1    1    2  503  501  0.21937144537E+03  0.72518125667E+02 -0.20194233144E+04  0.20325976563E+04  0.00000000000E+00 0.  1.
         21    1    1    2  504  502 -0.11959680079E+03  0.97248201442E+01 -0.68782658093E+03  0.69821441715E+03  0.00000000000E+00 0. -1.
         21    1    1    2  505  503 -0.16164322504E+03 -0.17395014170E+03  0.76885718880E+03  0.80469159357E+03  0.00000000000E+00 0. -1.
          2    1    1    2  501    0  0.61868580463E+02  0.91707195891E+02 -0.59419330635E+03  0.60440352112E+03  0.00000000000E+00 0. -1.
<scales pt_clust_3="89.46682" pt_clust_4="119.99153" pt_clust_5="237.96428" pt_clust_6="89.46682"></scales>
<clustering>
<clus scale="   89.467">  3  6 -1 -1</clus>
<clus scale="  119.992">  2  4  1 -1</clus>
<clus scale="  237.964">  1  5  2 -1</clus>
<clus scale="  237.964">  1  3  2 -1</clus>
</clustering>
</event>
<event>
 6    0  0.1622933E+002  0.8067299E+02  0.7546771E-02  0.1327152E+00
          2   -1    0    0  505    0 -0.00000000000E+00  0.00000000000E+00  0.78724703998E+03  0.78724703998E+03  0.00000000000E+00 0.  1.
         21   -1    0    0  503  502  0.00000000000E+00 -0.00000000000E+00 -0.15940828479E+03  0.15940828479E+03  0.00000000000E+00 0. -1.
         21    1    1    2  503  504 -0.18712257058E+02  0.38839162844E+02 -0.14004498888E+03  0.14653063859E+03  0.00000000000E+00 0. -1.
         21    1    1    2  504  501 -0.67865937814E-01  0.68877377671E+02  0.17088525360E+03  0.18424404375E+03  0.00000000000E+00 0. -1.
         21    1    1    2  505  502  0.53941965866E+02 -0.21289465732E+02  0.22230959893E+03  0.22974885160E+03  0.00000000000E+00 0. -1.
          2    1    1    2  501    0 -0.35161842870E+02 -0.86427074783E+02  0.37468889155E+03  0.38613179084E+03  0.00000000000E+00 0.  1.
<scales pt_clust_3="43.11182" pt_clust_4="14000.00000" pt_clust_5="51.13263" pt_clust_6="80.67299"></scales>
<clustering>
<clus scale="   43.112">  2  3  1 -1</clus>
<clus scale="   51.133">  1  5  2 -1</clus>
<clus scale="   80.673">  1  6  2 -1</clus>
<clus scale="   43.112">  2  3  1 -1</clus>
</clustering>
</event>
<event>
 6    0  0.1622933E+002  0.1590283E+03  0.7546771E-02  0.1189798E+00
         21   -1    0    0  505  502  0.00000000000E+00  0.00000000000E+00  0.24369666834E+04  0.24369666834E+04  0.00000000000E+00 0. -1.
          1   -1    0    0  504    0 -0.00000000000E+00 -0.00000000000E+00 -0.74050287103E+03  0.74050287103E+03  0.00000000000E+00 0.  1.
         21    1    1    2  503  501  0.48268418203E+02  0.27558300218E+02 -0.18436343301E+03  0.19255953764E+03  0.00000000000E+00 0. -1.
         21    1    1    2  504  502 -0.34638797979E+02 -0.48569952960E+02  0.34207651335E+02  0.68768089008E+02  0.00000000000E+00 0. -1.
         21    1    1    2  505  503 -0.13916177597E+03  0.46036367809E+02  0.23714255903E+04  0.23759513205E+04  0.00000000000E+00 0. -1.
          1    1    1    2  501    0  0.12553215575E+03 -0.25024715067E+02 -0.52480599626E+03  0.54019060729E+03  0.00000000000E+00 0.  1.
<scales pt_clust_3="40.55892" pt_clust_4="59.65640" pt_clust_5="146.63408" pt_clust_6="40.55892"></scales>
<clustering>
<clus scale="   40.559">  3  6 -1 -1</clus>
<clus scale="   59.656">  2  4  1 -1</clus>
<clus scale="  146.634">  1  5  2 -1</clus>
<clus scale="  146.634">  1  3  2 -1</clus>
</clustering>
</event>
<event>
 6    0  0.1622933E+002  0.1022699E+03  0.7546771E-02  0.1275594E+00
          1   -1    0    0  505    0 -0.00000000000E+00  0.00000000000E+00  0.35353767603E+03  0.35353767603E+03  0.00000000000E+00 0.  1.
         21   -1    0    0  504  502  0.00000000000E+00 -0.00000000000E+00 -0.22259757096E+03  0.22259757096E+03  0.00000000000E+00 0.  1.
         21    1    1    2  503  502 -0.65636260624E+00  0.34674231724E+02  0.13281004236E+02  0.37136481135E+02  0.00000000000E+00 0. -1.
         21    1    1    2  504  501  0.20487692717E+02 -0.10140069985E+03 -0.18166692257E+03  0.20905673450E+03  0.00000000000E+00 0.  1.
         21    1    1    2  505  503  0.32070964744E+02 -0.17136004098E+01  0.20299935242E+02  0.37994349274E+02  0.00000000000E+00 0. -1.
          1    1    1    2  501    0 -0.51902294854E+02  0.68440068539E+02  0.27902608816E+03  0.29194768207E+03  0.00000000000E+00 0.  1.
<scales pt_clust_3="34.58982" pt_clust_4="102.26992" pt_clust_5="32.11671" pt_clust_6="14000.00000"></scales>
<clustering>
<clus scale="   32.117">  1  5  2 -1</clus>
<clus scale="   34.590">  1  3  2 -1</clus>
<clus scale="  102.270">  2  4  1 -1</clus>
<clus scale="  102.270">  2  3  1 -1</clus>
</clustering>
</event>
<event>
 6    0  0.1622933E+002  0.1511857E+03  0.7546771E-02  0.1199024E+00
         21   -1    0    0  503  502  0.00000000000E+00  0.00000000000E+00  0.49387977350E+03  0.49387977350E+03  0.00000000000E+00 0.  1.
          2   -1    0    0  505    0 -0.00000000000E+00 -0.00000000000E+00 -0.59252288582E+03  0.59252288582E+03  0.00000000000E+00 0.  1.
         21    1    1    2  503  501  0.27395562085E+02 -0.18381398503E+03 -0.21238412384E+03  0.28221465939E+03  0.00000000000E+00 0.  1.
         21    1    1    2  504  502 -0.56203727602E+02  0.13874720166E+03  0.44106739770E+03  0.46577901872E+03  0.00000000000E+00 0.  1.
         21    1    1    2  505  504  0.39267889233E+02 -0.35782714215E+00 -0.15259322461E+03  0.15756518448E+03  0.00000000000E+00 0.  1.
          2    1    1    2  501    0 -0.10459723715E+02  0.45424610516E+02 -0.17473316158E+03  0.18084379673E+03  0.00000000000E+00 0.  1.
<scales pt_clust_3="14000.00000" pt_clust_4="151.18572" pt_clust_5="39.26952" pt_clust_6="45.61197"></scales>
<clustering>
<clus scale="   39.270">  2  5  1 -1</clus>
<clus scale="   45.612">  2  6  1 -1</clus>
<clus scale="  151.186">  1  4  2 -1</clus>
<clus scale="  151.186">  1  3  2 -1</clus>
</clustering>
</event>
<event>
 6    0  0.1622933E+002  0.1249444E+03  0.7546771E-02  0.1235156E+00
          2   -1    0    0  504    0 -0.00000000000E+00  0.00000000000E+00  0.86665977246E+03  0.86665977246E+03  0.00000000000E+00 0. -1.
         21   -1    0    0  505  502  0.00000000000E+00 -0.00000000000E+00 -0.71443777759E+03  0.71443777759E+03  0.00000000000E+00 0.  1.
         21    1    1    2  503  502 -0.13107488085E+03  0.15331179974E+03  0.39241283043E+03  0.44121759010E+03  0.00000000000E+00 0. -1.
         21    1    1    2  504  503  0.24011332492E+02 -0.26618655782E+02  0.83820972477E+02  0.91164973266E+02  0.00000000000E+00 0. -1.
         21    1    1    2  505  501  0.10815293178E+03 -0.60797766594E+02 -0.67768756421E+03  0.68895127531E+03  0.00000000000E+00 0.  1.
          2    1    1    2  501    0 -0.10893834188E+01 -0.65895377361E+02  0.35367575617E+03  0.35976371136E+03  0.00000000000E+00 0. -1.
<scales pt_clust_3="124.94442" pt_clust_4="35.84825" pt_clust_5="14000.00000" pt_clust_6="78.70754"></scales>
<clustering>
<clus scale="   35.848">  1  4  2 -1</clus>
<clus scale="   78.708">  1  6  2 -1</clus>
<clus scale="  124.944">  1  3  2 -1</clus>
<clus scale="  124.944">  2  3  1 -1</clus>
</clustering>
</event>
<event>
 6    0  0.1622933E+002  0.1759992E+03  0.7546771E-02  0.1171732E+00
          2   -1    0    0  505    0 -0.00000000000E+00  0.00000000000E+00  0.37374197259E+04  0.37374197259E+04  0.00000000000E+00 0. -1.
         21   -1    0    0  501  502  0.00000000000E+00 -0.00000000000E+00 -0.11449919005E+04  0.11449919005E+04  0.00000000000E+00 0.  1.
         21    1    1    2  503  502 -0.55679546737E+02 -0.16696029756E+03 -0.11132903573E+04  0.11271163971E+04  0.00000000000E+00 0.  1.
         21    1    1    2  504  503  0.15265503267E+03 -0.79428356471E+02  0.38925556995E+03  0.42559643038E+03  0.00000000000E+00 0. -1.
         21    1    1    2  505  504  0.28945497901E+02  0.19406851117E+02  0.27965352425E+03  0.28181653845E+03  0.00000000000E+00 0.  1.
          2    1    1    2  501    0 -0.12592098383E+03  0.22698180291E+03  0.30368090885E+04  0.30478822604E+04  0.00000000000E+00 0. -1.
<scales pt_clust_3="175.99924" pt_clust_4="174.09063" pt_clust_5="34.84921" pt_clust_6="14000.00000"></scales>
<clustering>
<clus scale="   34.849">  1  5  2 -1</clus>
<clus scale="  174.091">  1  4  2 -1</clus>
<clus scale="  175.999">  2  3  1 -1</clus>
<clus scale="  175.999">  2  3  1 -1</clus>
</clustering>
</event>
<event>
 6    0  0.1622933E+002  0.1948979E+03  0.7546771E-02  0.1154117E+00
         21   -1    0    0  503  502  0.00000000000E+00  0.00000000000E+00  0.70950916710E+02  0.70950916710E+02  0.00000000000E+00 0. -1.
          1   -1    0    0  504    0 -0.00000000000E+00 -0.00000000000E+00 -0.19150461707E+04  0.19150461707E+04  0.00000000000E+00 0. -1.
         21    1    1    2  503  505 -0.62553669166E+02 -0.15324647929E+02  0.14709253730E+02  0.66061853634E+02  0.00000000000E+00 0. -1.
         21    1    1    2  504  502  0.62854785657E+02  0.17060532750E+03 -0.15767746861E+04  0.15872225151E+04  0.00000000000E+00 0. -1.
         21    1    1    2  505  501  0.31675913047E+02 -0.80379719739E+02 -0.93285239999E+02  0.12714715417E+03  0.00000000000E+00 0. -1.
          1    1    1    2  501    0 -0.31977029538E+02 -0.74900959837E+02 -0.18874458169E+03  0.20556556453E+03  0.00000000000E+00 0. -1.
<scales pt_clust_3="64.40347" pt_clust_4="175.89889" pt_clust_5="81.99888" pt_clust_6="81.99888"></scales>
<clustering>
<clus scale="   64.403">  1  3  2 -1</clus>
<clus scale="   81.999">  5  6 -1 -1</clus>
<clus scale="  175.899">  2  4  1 -1</clus>
<clus scale="   64.403">  1  3  2 -1</clus>
</clustering>
</event>
<event>
 6    0  0.1622933E+002  0.1612629E+03  0.7546771E-02  0.1187278E+00
         21   -1    0    0  505  502  0.00000000000E+00  0.00000000000E+00  0.20480771454E+03  0.20480771454E+03  0.00000000000E+00 0.  1.
          2   -1    0    0  503    0 -0.00000000000E+00 -0.00000000000E+00 -0.43145662604E+03  0.43145662604E+03  0.00000000000E+00 0.  1.
         21    1    1    2  503  504 -0.94063729180E+02 -0.10250226801E+03 -0.13178851868E+03  0.19163223567E+03  0.00000000000E+00 0.  1.
         21    1    1    2  504  502  0.38130882372E+02 -0.90922370907E+02 -0.37908354245E+02  0.10563089057E+03  0.00000000000E+00 0.  1.
         21    1    1    2  505  501 -0.51266776372E+02  0.19893430039E+02  0.77261225116E+02  0.94833157834E+02  0.00000000000E+00 0. -1.
          2    1    1    2  501    0  0.10719962318E+03  0.17353120887E+03 -0.13421326370E+03  0.24416805650E+03  0.00000000000E+00 0.  1.
<scales pt_clust_3="14000.00000" pt_clust_4="88.43361" pt_clust_5="54.99119" pt_clust_6="161.26290"></scales>
<clustering>
<clus scale="   54.991">  1  5  2 -1</clus>
<clus scale="   88.434">  1  4  2 -1</clus>
<clus scale="  161.263">  1  6  2 -1</clus>
<clus scale="   54.991">  1  3  2 -1</clus>
</clustering>
</event>
<event>
 6    0  0.1622933E+002  0.1145332E+03  0.7546771E-02  0.1252398E+00
         21   -1    0    0  505  502  0.00000000000E+00  0.00000000000E+00  0.67906827277E+02  0.67906827277E+02  0.00000000000E+00 0. -1.
         -2   -1    0    0    0  501 -0.00000000000E+00 -0.00000000000E+00 -0.54175091569E+03  0.54175091569E+03  0.00000000000E+00 0. -1.
         21    1    1    2  503  501  0.68624081959E+01  0.49649262992E+02 -0.55881474286E+02  0.75065845298E+02  0.00000000000E+00 0. -1.
         21    1    1    2  504  502  0.52769137353E+02  0.30673960058E+02  0.18471448621E+02  0.63770432779E+02  0.00000000000E+00 0. -1.
         21    1    1    2  505  503 -0.38614316425E+02  0.33329561507E+02 -0.70152027170E+02  0.86736566795E+02  0.00000000000E+00 0.  1.
         -2    1    1    2    0  504 -0.21017229123E+02 -0.11365278456E+03 -0.36628203557E+03  0.38408489809E+03  0.00000000000E+00 0. -1.
<scales pt_clust_3="48.58090" pt_clust_4="61.03666" pt_clust_5="48.58090" pt_clust_6="103.51782"></scales>
<clustering>
<clus scale="   48.581">  3  5 -1 -1</clus>
<clus scale="   61.037">  1  4  2 -1</clus>
<clus scale="  103.518">  2  6  1 -1</clus>
<clus scale="   61.037">  1  3  2 -1</clus>
</clustering>
</event>
<event>
 6    0  0.1622933E+002  0.1113486E+03  0.7546771E-02  0.1258093E+00
         21   -1    0    0  504  502  0.00000000000E+00  0.00000000000E+00  0.25205069737E+02  0.25205069737E+02  0.00000000000E+00 0.  1.
         -1   -1    0    0    0  501 -0.00000000000E+00 -0.00000000000E+00 -0.27092396143E+04  0.27092396143E+04  0.00000000000E+00 0.  1.
         21    1    1    2  503  502 -0.10293385610E+02 -0.58456583731E+02 -0.60443752562E+02  0.84714657484E+02  0.00000000000E+00 0.  1.
         21    1    1    2  504  505  0.40688251616E+01  0.48032425173E+02 -0.17499069997E+03  0.18150871682E+03  0.00000000000E+00 0.  1.
         21    1    1    2  505  501  0.25878165794E+02  0.11010285693E+03 -0.21468360135E+04  0.21498132913E+04  0.00000000000E+00 0.  1.
         -1    1    1    2    0  503 -0.19653605346E+02 -0.99678698369E+02 -0.30176407851E+03  0.31840801841E+03  0.00000000000E+00 0.  1.
<scales pt_clust_3="32.89478" pt_clust_4="48.20445" pt_clust_5="111.34865" pt_clust_6="14000.00000"></scales>
<clustering>
<clus scale="   48.204">  1  4  2 -1</clus>
<clus scale="   32.895">  1  3  2 -1</clus>
<clus scale="  111.349">  2  5  1 -1</clus>
<clus scale="   48.204">  1  3  2 -1</clus>
</clustering>
</event>
<event>
 6    0  0.1622933E+002  0.7847821E+02  0.7546771E-02  0.1333426E+00
         21   -1    0    0  503  502  0.00000000000E+00  0.00000000000E+00  0.24296070076E+02  0.24296070076E+02  0.00000000000E+00 0.  1.
          2   -1    0    0  504    0 -0.00000000000E+00 -0.00000000000E+00 -0.97118962312E+03  0.97118962312E+03  0.00000000000E+00 0. -1.
         21    1    1    2  503  501  0.30426041792E+02  0.32775650572E+02 -0.82774995916E+02  0.94083405755E+02  0.00000000000E+00 0.  1.
         21    1    1    2  504  505 -0.59816775730E+02  0.15395579070E+02 -0.26203001511E+03  0.26921143983E+03  0.00000000000E+00 0.  1.
         21    1    1    2  505  502 -0.57991602247E+02  0.16793771115E+02 -0.88142835063E+02  0.10683733454E+03  0.00000000000E+00 0.  1.
          2    1    1    2  501    0  0.87382336185E+02 -0.64965000758E+02 -0.51394570695E+03  0.52535351307E+03  0.00000000000E+00 0. -1.
<scales pt_clust_3="44.72122" pt_clust_4="14000.00000" pt_clust_5="54.13340" pt_clust_6="78.47821"></scales>
<clustering>
<clus scale="   44.721">  1  3  2 -1</clus>
<clus scale="   54.133">  1  5  2 -1</clus>
<clus scale="   78.478">  1  6  2 -1</clus>
<clus scale="   44.721">  1  3  2 -1</clus>
</clustering>
</event>
<event>
 6    0  0.1622933E+002  0.7372230E+02  0.7546771E-02  0.1347874E+00
         21   -1    0    0  505  502  0.00000000000E+00  0.00000000000E+00  0.34203077154E+03  0.34203077154E+03  0.00000000000E+00 0. -1.
          4   -1    0    0  504    0 -0.00000000000E+00 -0.00000000000E+00 -0.13193681144E+03  0.13193681144E+03  0.00000000000E+00 0.  1.
         21    1    1    2  503  501 -0.81998195951E+02 -0.38579870073E+02  0.64449164151E+02  0.11120164241E+03  0.00000000000E+00 0. -1.
         21    1    1    2  504  502  0.35883357821E+02  0.12121632257E+02 -0.47054237564E+02  0.60404061202E+02  0.00000000000E+00 0.  1.
         21    1    1    2  505  503  0.53297265469E+02 -0.47455510332E+02  0.21360746260E+03  0.22521272621E+03  0.00000000000E+00 0. -1.
          4    1    1    2  501    0 -0.71824273382E+01  0.73913748148E+02 -0.20908429087E+02  0.77149153169E+02  0.00000000000E+00 0.  1.
<scales pt_clust_3="73.72230" pt_clust_4="37.87545" pt_clust_5="72.79393" pt_clust_6="14000.00000"></scales>
<clustering>
<clus scale="   37.875">  2  4  1 -1</clus>
<clus scale="   72.794">  1  5  2 -1</clus>
<clus scale="   73.722">  1  3  2 -1</clus>
<clus scale="   72.794">  1  3  2 -1</clus>
</clustering>
</event>
<event>
 6    0  0.1622933E+002  0.1398747E+03  0.7546771E-02  0.1213498E+00
         -3   -1    0    0    0  501 -0.00000000000E+00  0.00000000000E+00  0.23241469691E+03  0.23241469691E+03  0.00000000000E+00 0.  1.
         21   -1    0    0  504  502  0.00000000000E+00 -0.00000000000E+00 -0.18143096630E+03  0.18143096630E+03  0.00000000000E+00 0. -1.
         21    1    1    2  503  501 -0.33272148578E+02  0.96270333291E+01  0.11387135740E+02  0.36460698047E+02  0.00000000000E+00 0. -1.
         21    1    1    2  504  503  0.20600521566E+02  0.11833538462E+03  0.69603123698E+02  0.13882449197E+03  0.00000000000E+00 0.  1.
         21    1    1    2  505  502 -0.15465362798E+02 -0.14715518872E+03 -0.87378973813E+02  0.17183978608E+03  0.00000000000E+00 0. -1.
         -3    1    1    2    0  505  0.28136989811E+02  0.19192770773E+02  0.57372444982E+02  0.66720687113E+02  0.00000000000E+00 0.  1.
<scales pt_clust_3="31.80500" pt_clust_4="139.87470" pt_clust_5="14000.00000" pt_clust_6="34.05955"></scales>
<clustering>
<clus scale="   34.060">  1  6  2 -1</clus>
<clus scale="   31.805">  1  3  2 -1</clus>
<clus scale="  139.875">  1  4  2 -1</clus>
<clus scale="  139.875">  2  3  1 -1</clus>
</clustering>
</event>
<event>
 6    0  0.1622933E+002  0.1155537E+03  0.7546771E-02  0.1250618E+00
          1   -1    0    0  504    0 -0.00000000000E+00  0.00000000000E+00  0.63089124826E+03  0.63089124826E+03  0.00000000000E+00 0. -1.
         21   -1    0    0  503  502  0.00000000000E+00 -0.00000000000E+00 -0.26732876957E+03  0.26732876957E+03  0.00000000000E+00 0. -1.
         21    1    1    2  503  505  0.53259053501E+02 -0.44579378052E+02 -0.19532769051E+03  0.20730835586E+03  0.00000000000E+00 0. -1.
         21    1    1    2  504  502 -0.49600719683E+02  0.92300148059E+01  0.43759449822E+02  0.66785582389E+02  0.00000000000E+00 0. -1.
         21    1    1    2  505  501  0.79820508132E+02  0.23019674959E+02 -0.17462697125E+02  0.84889132075E+02  0.00000000000E+00 0.  1.
          1    1    1    2  501    0 -0.83478841950E+02  0.12329688287E+02  0.53259341650E+03  0.53923694752E+03  0.00000000000E+00 0. -1.
<scales pt_clust_3="68.99693" pt_clust_4="50.45220" pt_clust_5="115.55369" pt_clust_6="14000.00000"></scales>
<clustering>
<clus scale="   50.452">  1  4  2 -1</clus>
<clus scale="   68.997">  2  3  1 -1</clus>
<clus scale="  115.554">  2  5  1 -1</clus>
<clus scale="   68.997">  2  3  1 -1</clus>
</clustering>
</event>
<event>
 6    0  0.1622933E+002  0.2353750E+03  0.7546771E-02  0.1122913E+00
         21   -1    0    0  503  502  0.00000000000E+00  0.00000000000E+00  0.59673342002E+02  0.59673342002E+02  0.00000000000E+00 0. -1.
          2   -1    0    0  505    0 -0.00000000000E+00 -0.00000000000E+00 -0.22872479218E+04  0.22872479218E+04  0.00000000000E+00 0.  1.
         21    1    1    2  503  501 -0.33152071399E+02  0.72554927872E+02 -0.30837884291E+02  0.85523403254E+02  0.00000000000E+00 0. -1.
         21    1    1    2  504  502  0.83329772959E+02  0.18038131550E+03 -0.62878320629E+03  0.65943126295E+03  0.00000000000E+00 0.  1.
         21    1    1    2  505  504 -0.35629558772E+02  0.28220093163E+02 -0.17180330122E+03  0.17771385265E+03  0.00000000000E+00 0. -1.
          2    1    1    2  501    0 -0.14548142788E+02 -0.28115633653E+03 -0.13961501880E+04  0.14242527450E+04  0.00000000000E+00 0.  1.
<scales pt_clust_3="80.88689" pt_clust_4="235.37502" pt_clust_5="45.45150" pt_clust_6="14000.00000"></scales>
<clustering>
<clus scale="   45.452">  2  5  1 -1</clus>
<clus scale="   80.887">  1  3  2 -1</clus>
<clus scale="  235.375">  1  4  2 -1</clus>
<clus scale="   80.887">  1  3  2 -1</clus>
</clustering>
</event>
<event>
 6    0  0.1622933E+002  0.1390381E+03  0.7546771E-02  0.1214629E+00
          1   -1    0    0  504    0 -0.00000000000E+00  0.00000000000E+00  0.42137324707E+03  0.42137324707E+03  0.00000000000E+00 0.  1.
         21   -1    0    0  503  502  0.00000000000E+00 -0.00000000000E+00 -0.29261035109E+03  0.29261035109E+03  0.00000000000E+00 0.  1.
         21    1    1    2  503  505  0.42382522548E+02 -0.13902359779E+03 -0.20522414223E+03  0.25147721073E+03  0.00000000000E+00 0.  1.
         21    1    1    2  504  502 -0.44968928482E+02 -0.41538185603E+02  0.44896685974E+02  0.75916650371E+02  0.00000000000E+00 0. -1.
         21    1    1    2  505  501 -0.77869760676E+02  0.89437392207E+02  0.74753984950E+02  0.14018168575E+03  0.00000000000E+00 0. -1.
          1    1    1    2  501    0  0.80456166610E+02  0.91124391187E+02  0.21433636728E+03  0.24640805132E+03  0.00000000000E+00 0.  1.
<scales pt_clust_3="14000.00000" pt_clust_4="61.21785" pt_clust_5="139.03805" pt_clust_6="82.78742"></scales>
<clustering>
<clus scale="   61.218">  1  4  2 -1</clus>
<clus scale="   82.787">  1  6  2 -1</clus>
<clus scale="  139.038">  1  5  2 -1</clus>
<clus scale="  139.038">  2  3  1 -1</clus>
</clustering>
</event>
<event>
 6    0  0.1622933E+002  0.1326571E+03  0.7546771E-02  0.1223566E+00
          1   -1    0    0  504    0 -0.00000000000E+00  0.00000000000E+00  0.17955514539E+03  0.17955514539E+03  0.00000000000E+00 0. -1.
         21   -1    0    0  501  502  0.00000000000E+00 -0.00000000000E+00 -0.39172142744E+03  0.39172142744E+03  0.00000000000E+00 0. -1.
         21    1    1    2  503  505  0.42053682909E+02  0.38592327561E+02  0.15601403692E+02  0.59171646842E+02  0.00000000000E+00 0. -1.
         21    1    1    2  504  503 -0.33549771887E+02  0.40844801255E+02 -0.10088387845E+02  0.53811342229E+02  0.00000000000E+00 0. -1.
         21    1    1    2  505  502 -0.22548929725E+02  0.12063679528E+03 -0.22641486342E+03  0.25753714486E+03  0.00000000000E+00 0. -1.
          1    1    1    2  501    0  0.14045018703E+02 -0.20007392409E+03  0.87355655321E+01  0.20075643889E+03  0.00000000000E+00 0. -1.
<scales pt_clust_3="59.10456" pt_clust_4="52.85721" pt_clust_5="14000.00000" pt_clust_6="132.65710"></scales>
<clustering>
<clus scale="   52.857">  1  4  2 -1</clus>
<clus scale="   59.105">  1  3  2 -1</clus>
<clus scale="  132.657">  1  6  2 -1</clus>
<clus scale="  132.657">  2  3  1 -1</clus>
</clustering>
</event>
<event>
 6    0  0.1622933E+002  0.1322345E+03  0.7546771E-02  0.1224177E+00
          2   -1    0    0  503    0 -0.00000000000E+00  0.00000000000E+00  0.17777133236E+04  0.17777133236E+04  0.00000000000E+00 0. -1.
         21   -1    0    0  501  502  0.00000000000E+00 -0.00000000000E+00 -0.17451099958E+03  0.17451099958E+03  0.00000000000E+00 0.  1.
         21    1    1    2  503  504  0.17400956720E+02  0.30203036589E+02  0.34244553236E+03  0.34421499001E+03  0.00000000000E+00 0. -1.
         21    1    1    2  504  505 -0.80390743527E+02  0.52749354949E+02  0.33523183609E+03  0.34874854841E+03  0.00000000000E+00 0.  1.
         21    1    1    2  505  502 -0.45804574384E+01  0.93726426584E+02 -0.14469127034E+03  0.17245633460E+03  0.00000000000E+00 0.  1.
          2    1    1    2  501    0  0.67570244245E+02 -0.17667881812E+03  0.10702162259E+04  0.10868044502E+04  0.00000000000E+00 0. -1.
<scales pt_clust_3="34.85709" pt_clust_4="132.23451" pt_clust_5="94.12221" pt_clust_6="14000.00000"></scales>
<clustering>
<clus scale="   34.857">  1  3  2 -1</clus>
<clus scale="   94.122">  2  5  1 -1</clus>
<clus scale="  132.235">  2  4  1 -1</clus>
<clus scale="   94.122">  2  3  1 -1</clus>
</clustering>
</event>
<event>
 6    0  0.1622933E+002  0.2533179E+03  0.7546771E-02  0.1111226E+00
          2   -1    0    0  505    0 -0.00000000000E+00  0.00000000000E+00  0.93230862352E+03  0.93230862352E+03  0.00000000000E+00 0. -1.
         21   -1    0    0  503  502  0.00000000000E+00 -0.00000000000E+00 -0.42233236372E+03  0.42233236372E+03  0.00000000000E+00 0.  1.
         21    1    1    2  503  501  0.30822147920E+02  0.39350356705E+02  0.16089954509E+03  0.16848477375E+03  0.00000000000E+00 0.  1.
         21    1    1    2  504  502 -0.22554460844E+03 -0.78666986241E+02 -0.36072832470E+03  0.43264741922E+03  0.00000000000E+00 0.  1.
         21    1    1    2  505  504 -0.10342206093E+02  0.29362065829E+02  0.29455683304E+02  0.42857081276E+02  0.00000000000E+00 0. -1.
          2    1    1    2  501    0  0.20506466662E+03  0.99545637073E+01  0.68034935610E+03  0.71065171299E+03  0.00000000000E+00 0. -1.
<scales pt_clust_3="43.54228" pt_clust_4="238.87707" pt_clust_5="31.13024" pt_clust_6="43.54228"></scales>
<clustering>
<clus scale="   31.130">  1  5  2 -1</clus>
<clus scale="   43.542">  3  6 -1 -1</clus>
<clus scale="  238.877">  2  4  1 -1</clus>
<clus scale="  238.877">  2  3  1 -1</clus>
</clustering>
</event>
<event>
 6    0  0.1622933E+002  0.1077779E+03  0.7546771E-02  0.1264741E+00
         21   -1    0    0  503  502  0.00000000000E+00  0.00000000000E+00  0.32410983795E+02  0.32410983795E+02  0.00000000000E+00 0. -1.
          2   -1    0    0  505    0 -0.00000000000E+00 -0.00000000000E+00 -0.82093772898E+03  0.82093772898E+03  0.00000000000E+00 0.  1.
         21    1    1    2  503  501 -0.64414545444E+02 -0.16126854970E+02 -0.10891813938E+03  0.12756359278E+03  0.00000000000E+00 0. -1.
         21    1    1    2  504  502  0.70477996281E+02  0.58154410403E+02 -0.23176277522E+03  0.24912460213E+03  0.00000000000E+00 0. -1.
         21    1    1    2  505  504  0.46973685395E+02  0.23875017548E+02 -0.60700978025E+02  0.80381293319E+02  0.00000000000E+00 0. -1.
          2    1    1    2  501    0 -0.53037136231E+02 -0.65902572981E+02 -0.38714485256E+03  0.39627922455E+03  0.00000000000E+00 0.  1.
<scales pt_clust_3="66.40263" pt_clust_4="38.08613" pt_clust_5="38.08613" pt_clust_6="95.39764"></scales>
<clustering>
<clus scale="   38.086">  4  5 -1 -1</clus>
<clus scale="   66.403">  1  3  2 -1</clus>
<clus scale="   95.398">  2  6  1 -1</clus>
<clus scale="   66.403">  1  3  2 -1</clus>
</clustering>
</event>
<event>
 6    0  0.1622933E+002  0.1024896E+03  0.7546771E-02  0.1275146E+00
         21   -1    0    0  503  502  0.00000000000E+00  0.00000000000E+00  0.21578324598E+03  0.21578324598E+03  0.00000000000E+00 0. -1.
          2   -1    0    0  505    0 -0.00000000000E+00 -0.00000000000E+00 -0.47489100411E+03  0.47489100411E+03  0.00000000000E+00 0. -1.
         21    1    1    2  503  504 -0.25571542429E+02 -0.23679338528E+02  0.17361226448E+03  0.17707578387E+03  0.00000000000E+00 0. -1.
         21    1    1    2  504  501  0.74710479604E+02  0.11955299432E+03 -0.28774570557E+03  0.32042497606E+03  0.00000000000E+00 0. -1.
         21    1    1    2  505  502 -0.59851470235E+01 -0.30194285884E+02 -0.30357158751E+01  0.30931092057E+02  0.00000000000E+00 0.  1.
          2    1    1    2  501    0 -0.43153790151E+02 -0.65679369906E+02 -0.14193860118E+03  0.16224239810E+03  0.00000000000E+00 0. -1.
<scales pt_clust_3="58.63380" pt_clust_4="14000.00000" pt_clust_5="30.78176" pt_clust_6="102.48956"></scales>
<clustering>
<clus scale="   30.782">  1  5  2 -1</clus>
<clus scale="   58.634">  1  3  2 -1</clus>
<clus scale="  102.490">  2  6  1 -1</clus>
<clus scale="   30.782">  1  3  2 -1</clus>
</clustering>
</event>
<event>
 6    0  0.1622933E+002  0.1311626E+03  0.7546771E-02  0.1225741E+00
         21   -1    0    0  504  502  0.00000000000E+00  0.00000000000E+00  0.19942603451E+03  0.19942603451E+03  0.00000000000E+00 0. -1.
          1   -1    0    0  503    0 -0.00000000000E+00 -0.00000000000E+00 -0.12487481248E+04  0.12487481248E+04  0.00000000000E+00 0.  1.
         21    1    1    2  503  505 -0.33374023999E+02 -0.42499099746E+02 -0.44381234184E+03  0.44708991682E+03  0.00000000000E+00 0.  1.
         21    1    1    2  504  501 -0.77521775402E+02 -0.10540150612E+02  0.15222889129E+03  0.17115593995E+03  0.00000000000E+00 0. -1.
         21    1    1    2  505  502 -0.55591928367E+02  0.73858143019E+02 -0.55279896650E+02  0.10770958529E+03  0.00000000000E+00 0. -1.
          1    1    1    2  501    0  0.16648772777E+03 -0.20818892661E+02 -0.70245874315E+03  0.72221871730E+03  0.00000000000E+00 0.  1.
<scales pt_clust_3="54.03701" pt_clust_4="78.69332" pt_clust_5="131.16256" pt_clust_6="14000.00000"></scales>
<clustering>
<clus scale="   54.037">  2  3  1 -1</clus>
<clus scale="   78.693">  1  4  2 -1</clus>
<clus scale="  131.163">  1  5  2 -1</clus>
<clus scale="   78.693">  1  3  2 -1</clus>
</clustering>
</event>
<event>
 6    0  0.1622933E+002  0.9969899E+02  0.7546771E-02  0.1280930E+00
         -2   -1    0    0    0  501 -0.00000000000E+00  0.00000000000E+00  0.18839957781E+03  0.18839957781E+03  0.00000000000E+00 0.  1.
         21   -1    0    0  503  502  0.00000000000E+00 -0.00000000000E+00 -0.12742673783E+03  0.12742673783E+03  0.00000000000E+00 0.  1.
         21    1    1    2  503  505 -0.28971114770E+02  0.38107139072E+02 -0.25733741789E+02  0.54347999096E+02  0.00000000000E+00 0.  1.
         21    1    1    2  504  502  0.14200402613E+02 -0.29407338400E+02 -0.16177858093E+02  0.36444012932E+02  0.00000000000E+00 0.  1.
         21    1    1    2  505  501 -0.59417822803E+02  0.69732806653E+02  0.38848481465E+02  0.99510534630E+02  0.00000000000E+00 0.  1.
         -2    1    1    2    0  504  0.74188534960E+02 -0.78432607325E+02  0.64035958398E+02  0.12552376898E+03  0.00000000000E+00 0.  1.
<scales pt_clust_3="35.28977" pt_clust_4="32.65644" pt_clust_5="99.69899" pt_clust_6="14000.00000"></scales>
<clustering>
<clus scale="   32.656">  2  4  1 -1</clus>
<clus scale="   35.290">  2  3  1 -1</clus>
<clus scale="   99.699">  1  5  2 -1</clus>
<clus scale="   32.656">  2  3  1 -1</clus>
</clustering>
</event>
<event>
 6    0  0.1622933E+002  0.2390405E+03  0.7546771E-02  0.1120434E+00
         -1   -1    0    0    0  501 -0.00000000000E+00  0.00000000000E+00  0.44093191132E+03  0.44093191132E+03  0.00000000000E+00 0. -1.
         21   -1    0    0  505  502  0.00000000000E+00 -0.00000000000E+00 -0.68158980099E+03  0.68158980099E+03  0.00000000000E+00 0. -1.
         21    1    1    2  503  501  0.52873587404E+02  0.91398605501E+01  0.21641603566E+02  0.57857690074E+02  0.00000000000E+00 0. -1.
         21    1    1    2  504  502  0.69750010432E+01  0.46837053762E+02  0.82193362498E+02  0.94858363276E+02  0.00000000000E+00 0. -1.
         21    1    1    2  505  503 -0.19344617768E+03 -0.12148171231E+03 -0.61776879607E+03  0.65864824868E+03  0.00000000000E+00 0. -1.
         -1    1    1    2    0  504  0.13359758923E+03  0.65504797995E+02  0.27327594034E+03  0.31115741029E+03  0.00000000000E+00 0. -1.
<scales pt_clust_3="53.65774" pt_clust_4="44.09327" pt_clust_5="225.90117" pt_clust_6="44.09327"></scales>
<clustering>
<clus scale="   44.093">  4  6 -1 -1</clus>
<clus scale="   53.658">  1  3  2 -1</clus>
<clus scale="  225.901">  2  5  1 -1</clus>
<clus scale="  225.901">  2  3  1 -1</clus>
</clustering>
</event>
<event>
 6    0  0.1622933E+002  0.2554436E+03  0.7546771E-02  0.1109912E+00
         21   -1    0    0  504  502  0.00000000000E+00  0.00000000000E+00  0.75771866148E+03  0.75771866148E+03  0.00000000000E+00 0.  1.
          1   -1    0    0  505    0 -0.00000000000E+00 -0.00000000000E+00 -0.69274513022E+03  0.69274513022E+03  0.00000000000E+00 0. -1.
         21    1    1    2  503  502 -0.89185604456E+02  0.20665980505E+02  0.49629135101E+03  0.50466450230E+03  0.00000000000E+00 0.  1.
         21    1    1    2  504  501 -0.53894435650E+02 -0.52082924258E+02  0.27906983991E+02  0.79975252102E+02  0.00000000000E+00 0.  1.
         21    1    1    2  505  503  0.94993453643E+02  0.28078840291E+03  0.46371688026E+02  0.30002702694E+03  0.00000000000E+00 0.  1.
          1    1    1    2  501    0  0.48086586464E+02 -0.24937145916E+03 -0.50559649176E+03  0.56579701035E+03  0.00000000000E+00 0. -1.
<scales pt_clust_3="128.55833" pt_clust_4="74.94826" pt_clust_5="14000.00000" pt_clust_6="255.44359"></scales>
<clustering>
<clus scale="   74.948">  1  4  2 -1</clus>
<clus scale="  128.558">  1  3  2 -1</clus>
<clus scale="  255.444">  2  6  1 -1</clus>
<clus scale="   74.948">  1  3  2 -1</clus>
</clustering>
</event>
<event>
 6    0  0.1622933E+002  0.2124196E+03  0.7546771E-02  0.1139664E+00
          1   -1    0    0  504    0 -0.00000000000E+00  0.00000000000E+00  0.19690968568E+04  0.19690968568E+04  0.00000000000E+00 0.  1.
         21   -1    0    0  503  502  0.00000000000E+00 -0.00000000000E+00 -0.47985244614E+03  0.47985244614E+03  0.00000000000E+00 0. -1.
         21    1    1    2  503  501  0.19784218531E+02  0.11279663444E+03  0.11247062892E+04  0.11305214429E+04  0.00000000000E+00 0.  1.
         21    1    1    2  504  505 -0.37932795474E+02  0.26388870030E+02  0.75414213357E+02  0.88445310843E+02  0.00000000000E+00 0.  1.
         21    1    1    2  505  502  0.38013178657E+02 -0.20520823306E+03 -0.44558904341E+03  0.49204168144E+03  0.00000000000E+00 0. -1.
          1    1    1    2  501    0 -0.19864601713E+02  0.66022728595E+02  0.73471295155E+03  0.73794086773E+03  0.00000000000E+00 0.  1.
<scales pt_clust_3="32.32086" pt_clust_4="46.20898" pt_clust_5="208.29536" pt_clust_6="32.32086"></scales>
<clustering>
<clus scale="   32.321">  3  6 -1 -1</clus>
<clus scale="   46.209">  1  4  2 -1</clus>
<clus scale="  208.295">  2  5  1 -1</clus>
<clus scale="  208.295">  2  3  1 -1</clus>
</clustering>
</event>
<event>
 6    0  0.1770244E+002  0.1213954E+03  0.7546771E-02  0.1240813E+00
         21   -1    0    0  505  502  0.00000000000E+00  0.00000000000E+00  0.18312464455E+03  0.18312464455E+03  0.00000000000E+00 0.  1.
          2   -1    0    0  503    0 -0.00000000000E+00 -0.00000000000E+00 -0.17194210519E+04  0.17194210519E+04  0.00000000000E+00 0.  1.
         21    1    1    2  503  502 -0.32438585816E+02  0.60856567153E+01 -0.12340431912E+03  0.12774162613E+03  0.00000000000E+00 0.  1.
         21    1    1    2  504  501  0.81868171664E+02  0.37877805663E+02 -0.47733541798E+02  0.10205692875E+03  0.00000000000E+00 0.  1.
         21    1    1    2  505  504  0.27133580592E+02  0.30204256903E+02  0.14920797762E+03  0.15463359569E+03  0.00000000000E+00 0.  1.
          2    1    1    2  501    0 -0.76563166440E+02 -0.74167719281E+02 -0.15143665241E+04  0.15181135459E+04  0.00000000000E+00 0.  1.
<scales pt_clust_3="33.00450" pt_clust_4="121.39542" pt_clust_5="40.57291" pt_clust_6="14000.00000"></scales>
<clustering>
<clus scale="   33.005">  2  3  1 -1</clus>
<clus scale="   40.573">  1  5  2 -1</clus>
<clus scale="  121.395">  1  4  2 -1</clus>
<clus scale="   40.573">  1  3  2 -1</clus>
</clustering>
</event>
<event>
 6    0  0.1622933E+002  0.1171618E+03  0.7546771E-02  0.1247854E+00
         21   -1    0    0  505  502  0.00000000000E+00  0.00000000000E+00  0.58398220700E+03  0.58398220700E+03  0.00000000000E+00 0. -1.
          2   -1    0    0  503    0 -0.00000000000E+00 -0.00000000000E+00 -0.95158464216E+03  0.95158464216E+03  0.00000000000E+00 0. -1.
         21    1    1    2  503  502 -0.32314906788E+02  0.41940455301E+02 -0.37812505297E+02  0.65061820973E+02  0.00000000000E+00 0. -1.
         21    1    1    2  504  501 -0.99136550902E+01 -0.55470505228E+02 -0.20934615810E+03  0.21679730492E+03  0.00000000000E+00 0. -1.
         21    1    1    2  505  504  0.14774910130E+02  0.98433792573E+02  0.55932230380E+03  0.56810997969E+03  0.00000000000E+00 0. -1.
          2    1    1    2  501    0  0.27453651748E+02 -0.84903742645E+02 -0.67976607557E+03  0.68559774358E+03  0.00000000000E+00 0. -1.
<scales pt_clust_3="52.94577" pt_clust_4="48.88117" pt_clust_5="99.71569" pt_clust_6="48.88117"></scales>
<clustering>
<clus scale="   48.881">  4  6 -1 -1</clus>
<clus scale="   52.946">  2  3  1 -1</clus>
<clus scale="   99.716">  1  5  2 -1</clus>
<clus scale="   99.716">  1  3  2 -1</clus>
</clustering>
</event>
<event>
 6    0  0.1622933E+002  0.1113877E+03  0.7546771E-02  0.1258021E+00
          2   -1    0    0  503    0 -0.00000000000E+00  0.00000000000E+00  0.11645556718E+04  0.11645556718E+04  0.00000000000E+00 0.  1.
         21   -1    0    0  505  502  0.00000000000E+00 -0.00000000000E+00 -0.32654517286E+02  0.32654517286E+02  0.00000000000E+00 0.  1.
         21    1    1    2  503  502  0.17969533728E+02  0.47266667089E+02  0.30100171013E+02  0.58847788872E+02  0.00000000000E+00 0.  1.
         21    1    1    2  504  501 -0.60088104968E+02 -0.14891958852E+03  0.64490767229E+03  0.66460027835E+03  0.00000000000E+00 0.  1.
         21    1    1    2  505  504  0.31120046677E+02  0.14904252079E+02  0.85207169016E+02  0.91928535760E+02  0.00000000000E+00 0.  1.
          2    1    1    2  501    0  0.10998524563E+02  0.86748669353E+02  0.37168614218E+03  0.38183358609E+03  0.00000000000E+00 0.  1.
<scales pt_clust_3="63.90476" pt_clust_4="14000.00000" pt_clust_5="34.50499" pt_clust_6="111.38772"></scales>
<clustering>
<clus scale="   34.505">  2  5  1 -1</clus>
<clus scale="   63.905">  2  3  1 -1</clus>
<clus scale="  111.388">  1  6  2 -1</clus>
<clus scale="   34.505">  2  3  1 -1</clus>
</clustering>
</event>
<event>
 6    0  0.1622933E+002  0.9530090E+02  0.7546771E-02  0.1290500E+00
         21   -1    0    0  503  502  0.00000000000E+00  0.00000000000E+00  0.80197747680E+02  0.80197747680E+02  0.00000000000E+00 0. -1.
          2   -1    0    0  504    0 -0.00000000000E+00 -0.00000000000E+00 -0.38558132493E+04  0.38558132493E+04  0.00000000000E+00 0.  1.
         21    1    1    2  503  501  0.79076607762E+02  0.15230151864E+01 -0.37282442814E+03  0.38112135034E+03  0.00000000000E+00 0.  1.
         21    1    1    2  504  505 -0.37399557375E+01 -0.30481544186E+02 -0.24095903819E+03  0.24290815114E+03  0.00000000000E+00 0.  1.
         21    1    1    2  505  502  0.17939300456E+02 -0.34652217110E+02  0.68950937300E+02  0.79226424923E+02  0.00000000000E+00 0. -1.
          2    1    1    2  501    0 -0.93275952481E+02  0.63610746110E+02 -0.32307829726E+04  0.32327550706E+04  0.00000000000E+00 0.  1.
<scales pt_clust_3="14000.00000" pt_clust_4="30.71013" pt_clust_5="39.05649" pt_clust_6="95.30090"></scales>
<clustering>
<clus scale="   30.710">  2  4  1 -1</clus>
<clus scale="   39.056">  1  5  2 -1</clus>
<clus scale="   95.301">  2  6  1 -1</clus>
<clus scale="   39.056">  1  3  2 -1</clus>
</clustering>
</event>
<event>
 6    0  0.1622933E+002  0.1464556E+03  0.7546771E-02  0.1204897E+00
         21   -1    0    0  505  502  0.00000000000E+00  0.00000000000E+00  0.76379594289E+03  0.76379594289E+03  0.00000000000E+00 0. -1.
          1   -1    0    0  504    0 -0.00000000000E+00 -0.00000000000E+00 -0.82393301340E+02  0.82393301340E+02  0.00000000000E+00 0.  1.
         21    1    1    2  503  501  0.45936621348E+02  0.24645184255E+02 -0.22758429334E+02  0.56881494298E+02  0.00000000000E+00 0. -1.
         21    1    1    2  504  502  0.28924422479E+02  0.16451824671E+02  0.39569790082E+02  0.51701576745E+02  0.00000000000E+00 0. -1.
         21    1    1    2  505  503 -0.11794365170E+03 -0.85831488401E+02  0.65933398030E+03  0.67527701497E+03  0.00000000000E+00 0. -1.
          1    1    1    2  501    0  0.43082607870E+02  0.44734479474E+02  0.52573004998E+01  0.62329158210E+02  0.00000000000E+00 0.  1.
<scales pt_clust_3="31.29656" pt_clust_4="33.27589" pt_clust_5="142.41595" pt_clust_6="31.29656"></scales>
<clustering>
<clus scale="   31.297">  3  6 -1 -1</clus>
<clus scale="   33.276">  2  4  1 -1</clus>
<clus scale="  142.416">  1  5  2 -1</clus>
<clus scale="  142.416">  1  3  2 -1</clus>
</clustering>
</event>
<event>
 6    0  0.1622933E+002  0.1379389E+03  0.7546771E-02  0.1216130E+00
          2   -1    0    0  504    0 -0.00000000000E+00  0.00000000000E+00  0.83628025981E+03  0.83628025981E+03  0.00000000000E+00 0.  1.
         21   -1    0    0  501  502  0.00000000000E+00 -0.00000000000E+00 -0.33939233573E+03  0.33939233573E+03  0.00000000000E+00 0. -1.
         21    1    1    2  503  505  0.25750635705E+02 -0.13338326223E+03  0.12451575128E+03  0.18427794822E+03  0.00000000000E+00 0. -1.
         21    1    1    2  504  503 -0.29410389947E+01 -0.38999732106E+02  0.47042642031E+03  0.47204941027E+03  0.00000000000E+00 0. -1.
         21    1    1    2  505  502 -0.29579228323E+02  0.19047740259E+02 -0.27949106999E+03  0.28169665487E+03  0.00000000000E+00 0. -1.
          2    1    1    2  501    0  0.67696316127E+01  0.15333525408E+03  0.18143682249E+03  0.23764858218E+03  0.00000000000E+00 0.  1.
<scales pt_clust_3="14000.00000" pt_clust_4="38.88137" pt_clust_5="35.18163" pt_clust_6="137.93889"></scales>
<clustering>
<clus scale="   35.182">  2  5  1 -1</clus>
<clus scale="   38.881">  1  4  2 -1</clus>
<clus scale="  137.939">  1  6  2 -1</clus>
<clus scale="   35.182">  2  3  1 -1</clus>
</clustering>
</event>
<event>
 6    0  0.1622933E+002  0.6559477E+02  0.7546771E-02  0.1375748E+00
          2   -1    0    0  503    0 -0.00000000000E+00  0.00000000000E+00  0.75868445209E+03  0.75868445209E+03  0.00000000000E+00 0.  1.
         21   -1    0    0  504  502  0.00000000000E+00 -0.00000000000E+00 -0.37861472250E+03  0.37861472250E+03  0.00000000000E+00 0.  1.
         21    1    1    2  503  505  0.67089192201E+02 -0.16160179152E+02  0.20771492889E+03  0.21887805460E+03  0.00000000000E+00 0.  1.
         21    1    1    2  504  501  0.49445986579E+02  0.19604478356E+02 -0.36186006997E+03  0.36574848106E+03  0.00000000000E+00 0.  1.
         21    1    1    2  505  502 -0.55584446639E+02  0.35888559620E+02  0.19942473782E+03  0.21011388692E+03  0.00000000000E+00 0.  1.
          2    1    1    2  501    0 -0.60950732140E+02 -0.39332858824E+02  0.33479013284E+03  0.34255875201E+03  0.00000000000E+00 0.  1.
<scales pt_clust_3="14000.00000" pt_clust_4="53.19061" pt_clust_5="57.18586" pt_clust_6="65.59477"></scales>
<clustering>
<clus scale="   53.191">  2  4  1 -1</clus>
<clus scale="   57.186">  2  5  1 -1</clus>
<clus scale="   65.595">  1  6  2 -1</clus>
<clus scale="   53.191">  2  3  1 -1</clus>
</clustering>
</event>
<event>
 6    0  0.1622933E+002  0.7728389E+02  0.7546771E-02  0.1336941E+00
          1   -1    0    0  504    0 -0.00000000000E+00  0.00000000000E+00  0.25004853053E+04  0.25004853053E+04  0.00000000000E+00 0. -1.
         21   -1    0    0  501  502  0.00000000000E+00 -0.00000000000E+00 -0.58395606146E+02  0.58395606146E+02  0.00000000000E+00 0. -1.
         21    1    1    2  503  505 -0.13947920144E+01 -0.74039236231E+02  0.44257384582E+03  0.44872637871E+03  0.00000000000E+00 0.  1.
         21    1    1    2  504  503  0.31243948640E+02  0.19248734656E+02  0.16040748535E+03  0.16455169239E+03  0.00000000000E+00 0.  1.
         21    1    1    2  505  502  0.75675722368E+02 -0.12476710509E+02 -0.22393260520E+02  0.79899570573E+02  0.00000000000E+00 0. -1.
          1    1    1    2  501    0 -0.10552487899E+03  0.67267212084E+02  0.18615016285E+04  0.18657032698E+04  0.00000000000E+00 0. -1.
<scales pt_clust_3="70.51784" pt_clust_4="36.69739" pt_clust_5="14000.00000" pt_clust_6="77.28389"></scales>
<clustering>
<clus scale="   36.697">  1  4  2 -1</clus>
<clus scale="   70.518">  1  3  2 -1</clus>
<clus scale="   77.284">  1  6  2 -1</clus>
<clus scale="   77.284">  2  3  1 -1</clus>
</clustering>
</event>
<event>
 6    0  0.1622933E+002  0.9497486E+02  0.7546771E-02  0.1291233E+00
         21   -1    0    0  503  502  0.00000000000E+00  0.00000000000E+00  0.24690991312E+03  0.24690991312E+03  0.00000000000E+00 0. -1.
         -3   -1    0    0    0  501 -0.00000000000E+00 -0.00000000000E+00 -0.40913258395E+03  0.40913258395E+03  0.00000000000E+00 0.  1.
         21    1    1    2  503  501 -0.29136371333E+02  0.12268945460E+02 -0.21696199466E+02  0.38342929315E+02  0.00000000000E+00 0. -1.
         21    1    1    2  504  502 -0.30513462723E+02  0.89882035242E+02  0.21091162592E+03  0.23128676057E+03  0.00000000000E+00 0. -1.
         21    1    1    2  505  504  0.83820727815E+02 -0.72123844497E+02 -0.18465316023E+03  0.21523139395E+03  0.00000000000E+00 0. -1.
         -3    1    1    2    0  505 -0.24170893759E+02 -0.30027136205E+02 -0.16678493705E+03  0.17118141325E+03  0.00000000000E+00 0.  1.
<scales pt_clust_3="31.61416" pt_clust_4="14000.00000" pt_clust_5="94.97486" pt_clust_6="44.54021"></scales>
<clustering>
<clus scale="   31.614">  2  3  1 -1</clus>
<clus scale="   44.540">  2  6  1 -1</clus>
<clus scale="   94.975">  2  5  1 -1</clus>
<clus scale="   94.975">  1  3  2 -1</clus>
</clustering>
</event>
<event>
 6    0  0.1622933E+002  0.1835826E+03  0.7546771E-02  0.1164380E+00
         -1   -1    0    0    0  501 -0.00000000000E+00  0.00000000000E+00  0.62902752120E+03  0.62902752120E+03  0.00000000000E+00 0. -1.
         21   -1    0    0  503  502  0.00000000000E+00 -0.00000000000E+00 -0.38176284769E+04  0.38176284769E+04  0.00000000000E+00 0. -1.
         21    1    1    2  503  504 -0.12738538464E+03 -0.13206391146E+03 -0.37322367545E+04  0.37367444527E+04  0.00000000000E+00 0. -1.
         21    1    1    2  504  505 -0.71455351595E+02  0.65921692244E+02  0.11926845100E+02  0.97947876005E+02  0.00000000000E+00 0. -1.
         21    1    1    2  505  501  0.44925018838E+01 -0.33762088139E+02 -0.31320082903E+01  0.34203371831E+02  0.00000000000E+00 0. -1.
         -1    1    1    2    0  502  0.19434823435E+03  0.99904307359E+02  0.53484096201E+03  0.57776029758E+03  0.00000000000E+00 0. -1.
<scales pt_clust_3="183.58259" pt_clust_4="94.89330" pt_clust_5="34.05967" pt_clust_6="14000.00000"></scales>
<clustering>
<clus scale="   34.060">  1  5  2 -1</clus>
<clus scale="   94.893">  1  4  2 -1</clus>
<clus scale="  183.583">  2  3  1 -1</clus>
<clus scale="  183.583">  2  3  1 -1</clus>
</clustering>
</event>
<event>
 6    0  0.1622933E+002  0.1233639E+03  0.7546771E-02  0.1237649E+00
         21   -1    0    0  503  502  0.00000000000E+00  0.00000000000E+00  0.75216418088E+02  0.75216418088E+02  0.00000000000E+00 0.  1.
          2   -1    0    0  504    0 -0.00000000000E+00 -0.00000000000E+00 -0.36002513944E+04  0.36002513944E+04  0.00000000000E+00 0. -1.
         21    1    1    2  503  501 -0.12317080792E+03  0.19071830315E+02  0.16026286480E+02  0.12566473051E+03  0.00000000000E+00 0.  1.
         21    1    1    2  504  505 -0.11522039799E+02  0.30307389192E+02 -0.13412041552E+03  0.13798398856E+03  0.00000000000E+00 0. -1.
         21    1    1    2  505  502  0.42444636677E+02 -0.73399839065E+02 -0.18741700468E+04  0.18760870043E+04  0.00000000000E+00 0. -1.
          2    1    1    2  501    0  0.92248211047E+02  0.24020619558E+02 -0.15327708005E+04  0.15357320891E+04  0.00000000000E+00 0. -1.
<scales pt_clust_3="123.36385" pt_clust_4="32.42368" pt_clust_5="67.52349" pt_clust_6="14000.00000"></scales>
<clustering>
<clus scale="   32.424">  2  4  1 -1</clus>
<clus scale="   67.523">  2  5  1 -1</clus>
<clus scale="  123.364">  1  3  2 -1</clus>
<clus scale="  123.364">  1  3  2 -1</clus>
</clustering>
</event>
<event>
 6    0  0.1622933E+002  0.6030909E+02  0.7546771E-02  0.1396539E+00
          2   -1    0    0  503    0 -0.00000000000E+00  0.00000000000E+00  0.13890128314E+04  0.13890128314E+04  0.00000000000E+00 0. -1.
         21   -1    0    0  505  502  0.00000000000E+00 -0.00000000000E+00 -0.14661767976E+03  0.14661767976E+03  0.00000000000E+00 0. -1.
         21    1    1    2  503  502 -0.20666160147E+02  0.39276320656E+02  0.12315637018E+03  0.13090917102E+03  0.00000000000E+00 0. -1.
         21    1    1    2  504  501  0.63119843432E+02 -0.12278548284E+03  0.30442164771E+03  0.33426475887E+03  0.00000000000E+00 0. -1.
         21    1    1    2  505  504 -0.13731166194E+02  0.57112559632E+02 -0.12064313422E+03  0.13418328967E+03  0.00000000000E+00 0. -1.
          2    1    1    2  501    0 -0.28722517091E+02  0.26396602550E+02  0.93546026796E+03  0.93627329159E+03  0.00000000000E+00 0. -1.
<scales pt_clust_3="54.80327" pt_clust_4="14000.00000" pt_clust_5="60.30909" pt_clust_6="39.00979"></scales>
<clustering>
<clus scale="   39.010">  1  6  2 -1</clus>
<clus scale="   54.803">  1  3  2 -1</clus>
<clus scale="   60.309">  2  5  1 -1</clus>
<clus scale="   60.309">  2  3  1 -1</clus>
</clustering>
</event>
<event>
 6    0  0.1622933E+002  0.8429157E+02  0.7546771E-02  0.1317296E+00
          2   -1    0    0  505    0 -0.00000000000E+00  0.00000000000E+00  0.13751780893E+03  0.13751780893E+03  0.00000000000E+00 0. -1.
         21   -1    0    0  503  502  0.00000000000E+00 -0.00000000000E+00 -0.64859468979E+03  0.64859468979E+03  0.00000000000E+00 0.  1.
         21    1    1    2  503  501 -0.72302390313E+02  0.24690246568E+02 -0.21648569203E+02  0.79409725280E+02  0.00000000000E+00 0. -1.
         21    1    1    2  504  502  0.32833718085E+02 -0.81813103063E+02 -0.55924503709E+03  0.56615055275E+03  0.00000000000E+00 0.  1.
         21    1    1    2  505  504  0.39125085868E+02 -0.37213409135E-01 -0.11839382632E+02  0.40877190585E+02  0.00000000000E+00 0. -1.
          2    1    1    2  501    0  0.34358636014E+00  0.57160069904E+02  0.81656108058E+02  0.99675030104E+02  0.00000000000E+00 0. -1.
<scales pt_clust_3="14000.00000" pt_clust_4="84.29157" pt_clust_5="39.12510" pt_clust_6="64.15469"></scales>
<clustering>
<clus scale="   39.125">  1  5  2 -1</clus>
<clus scale="   64.155">  1  6  2 -1</clus>
<clus scale="   84.292">  2  4  1 -1</clus>
<clus scale="   84.292">  2  3  1 -1</clus>
</clustering>
</event>
<event>
 6    0  0.1622933E+002  0.7230593E+02  0.7546771E-02  0.1352423E+00
         21   -1    0    0  504  502  0.00000000000E+00  0.00000000000E+00  0.24972942976E+03  0.24972942976E+03  0.00000000000E+00 0. -1.
          2   -1    0    0  505    0 -0.00000000000E+00 -0.00000000000E+00 -0.14341951858E+04  0.14341951858E+04  0.00000000000E+00 0.  1.
         21    1    1    2  503  502  0.24591981435E+02  0.19191051623E+02 -0.47020862494E+03  0.47124220204E+03  0.00000000000E+00 0.  1.
         21    1    1    2  504  501  0.11239911982E+02  0.71134498159E+02  0.23390848686E+03  0.24474401458E+03  0.00000000000E+00 0. -1.
         21    1    1    2  505  503  0.18579325357E+02  0.23732141047E+02 -0.35515182665E+02  0.46580404132E+02  0.00000000000E+00 0.  1.
          2    1    1    2  501    0 -0.54411218774E+02 -0.11405769083E+03 -0.91265043528E+03  0.92135799480E+03  0.00000000000E+00 0.  1.
<scales pt_clust_3="41.14986" pt_clust_4="14000.00000" pt_clust_5="30.13977" pt_clust_6="72.30593"></scales>
<clustering>
<clus scale="   30.140">  2  5  1 -1</clus>
<clus scale="   41.150">  2  3  1 -1</clus>
<clus scale="   72.306">  2  6  1 -1</clus>
<clus scale="   72.306">  1  3  2 -1</clus>
</clustering>
</event>
<event>
 6    0  0.1622933E+002  0.9519033E+02  0.7546771E-02  0.1290748E+00
         21   -1    0    0  501  502  0.00000000000E+00  0.00000000000E+00  0.16298290821E+03  0.16298290821E+03  0.00000000000E+00 0. -1.
          1   -1    0    0  504    0 -0.00000000000E+00 -0.00000000000E+00 -0.29529617464E+03  0.29529617464E+03  0.00000000000E+00 0. -1.
         21    1    1    2  503  505 -0.10199334758E+02 -0.40357226266E+02  0.32115590639E+02  0.52575120575E+02  0.00000000000E+00 0. -1.
         21    1    1    2  504  503  0.90222753950E+02  0.25345183162E+02 -0.21408537545E+03  0.23369867697E+03  0.00000000000E+00 0. -1.
         21    1    1    2  505  502  0.30269536697E+02 -0.15605549918E+01  0.52294127179E+02  0.60442997288E+02  0.00000000000E+00 0. -1.
          1    1    1    2  501    0 -0.11029295589E+03  0.16572598095E+02 -0.26376088083E+01  0.11156228801E+03  0.00000000000E+00 0. -1.
<scales pt_clust_3="41.01759" pt_clust_4="95.19033" pt_clust_5="30.30974" pt_clust_6="14000.00000"></scales>
<clustering>
<clus scale="   30.310">  1  5  2 -1</clus>
<clus scale="   41.018">  1  3  2 -1</clus>
<clus scale="   95.190">  2  4  1 -1</clus>
<clus scale="   30.310">  1  3  2 -1</clus>
</clustering>
</event>
<event>
 6    0  0.1622933E+002  0.9221870E+02  0.7546771E-02  0.1297566E+00
          2   -1    0    0  503    0 -0.00000000000E+00  0.00000000000E+00  0.19195355788E+04  0.19195355788E+04  0.00000000000E+00 0. -1.
         21   -1    0    0  505  502  0.00000000000E+00 -0.00000000000E+00 -0.12378154641E+03  0.12378154641E+03  0.00000000000E+00 0.  1.
         21    1    1    2  503  504 -0.51436465751E+02 -0.44173719621E+01  0.28196739280E+03  0.28665455480E+03  0.00000000000E+00 0.  1.
         21    1    1    2  504  502  0.93468570864E+02 -0.60292132912E+00 -0.10059350703E+03  0.13731638981E+03  0.00000000000E+00 0.  1.
         21    1    1    2  505  501 -0.27475975932E+02 -0.55780776389E+02  0.94918208433E+03  0.95121661754E+03  0.00000000000E+00 0.  1.
          2    1    1    2  501    0 -0.14556129181E+02  0.60801069681E+02  0.66519806228E+03  0.66812956305E+03  0.00000000000E+00 0. -1.
<scales pt_clust_3="51.62580" pt_clust_4="92.21870" pt_clust_5="14000.00000" pt_clust_6="68.87040"></scales>
<clustering>
<clus scale="   51.626">  1  3  2 -1</clus>
<clus scale="   68.870">  1  6  2 -1</clus>
<clus scale="   92.219">  2  4  1 -1</clus>
<clus scale="   92.219">  2  3  1 -1</clus>
</clustering>
</event>
<event>
 6    0  0.1622933E+002  0.6800148E+03  0.7546771E-02  0.9752033E-01
         21   -1    0    0  501  502  0.00000000000E+00  0.00000000000E+00  0.25378871615E+03  0.25378871615E+03  0.00000000000E+00 0.  1.
          1   -1    0    0  503    0 -0.00000000000E+00 -0.00000000000E+00 -0.32082966006E+04  0.32082966006E+04  0.00000000000E+00 0.  1.
         21    1    1    2  503  505  0.14996541714E+02 -0.29042305569E+02 -0.33049333936E+03  0.33210570477E+03  0.00000000000E+00 0.  1.
         21    1    1    2  504  502 -0.38369326811E+02  0.86229939967E+02  0.53891153402E+02  0.10868332072E+03  0.00000000000E+00 0.  1.
         21    1    1    2  505  504 -0.15872756637E+03  0.64229061347E+03 -0.14980349252E+04  0.16376325319E+04  0.00000000000E+00 0.  1.
          1    1    1    2  501    0  0.18210035146E+03 -0.69947824787E+03 -0.11798707733E+04  0.13836637593E+04  0.00000000000E+00 0.  1.
<scales pt_clust_3="32.68565" pt_clust_4="94.07046" pt_clust_5="680.01480" pt_clust_6="14000.00000"></scales>
<clustering>
<clus scale="   32.686">  2  3  1 -1</clus>
<clus scale="   94.070">  1  4  2 -1</clus>
<clus scale="  680.015">  2  5  1 -1</clus>
<clus scale="   94.070">  1  3  2 -1</clus>
</clustering>
</event>
<event>
 6    0  0.1622933E+002  0.1740562E+03  0.7546771E-02  0.1173683E+00
          1   -1    0    0  505    0 -0.00000000000E+00  0.00000000000E+00  0.36586784782E+03  0.36586784782E+03  0.00000000000E+00 0.  1.
         21   -1    0    0  503  502  0.00000000000E+00 -0.00000000000E+00 -0.22082893456E+03  0.22082893456E+03  0.00000000000E+00 0. -1.
         21    1    1    2  503  504 -0.42104343199E+02 -0.11526059303E+02 -0.11207544419E+03  0.12027689283E+03  0.00000000000E+00 0. -1.
         21    1    1    2  504  501 -0.40353056566E+02 -0.15610180551E+02  0.10281999107E+03  0.11155266682E+03  0.00000000000E+00 0.  1.
         21    1    1    2  505  502  0.19037394299E+03  0.50588928399E+02  0.50592198914E+02  0.20337415873E+03  0.00000000000E+00 0.  1.
          1    1    1    2  501    0 -0.10791654323E+03 -0.23452688545E+02  0.10370216747E+03  0.15149306400E+03  0.00000000000E+00 0.  1.
<scales pt_clust_3="43.65347" pt_clust_4="34.46515" pt_clust_5="165.11724" pt_clust_6="34.46515"></scales>
<clustering>
<clus scale="   34.465">  4  6 -1 -1</clus>
<clus scale="   43.653">  2  3  1 -1</clus>
<clus scale="  165.117">  2  5  1 -1</clus>
<clus scale="   43.653">  2  3  1 -1</clus>
</clustering>
</event>
<event>
 6    0  0.1622933E+002  0.1620997E+03  0.7546771E-02  0.1186346E+00
         21   -1    0    0  501  502  0.00000000000E+00  0.00000000000E+00  0.18949458690E+04  0.18949458690E+04  0.00000000000E+00 0. -1.
          2   -1    0    0  503    0 -0.00000000000E+00 -0.00000000000E+00 -0.17111661997E+03  0.17111661997E+03  0.00000000000E+00 0.  1.
         21    1    1    2  503  505  0.78221518368E+02 -0.67514009166E+02  0.37533554043E+02  0.10993413959E+03  0.00000000000E+00 0. -1.
         21    1    1    2  504  502 -0.72979184203E+01 -0.18722775513E+03  0.16502999026E+04  0.16609025439E+04  0.00000000000E+00 0. -1.
         21    1    1    2  505  504 -0.63845736665E+02  0.22209647197E+03 -0.17937188978E+02  0.23178624571E+03  0.00000000000E+00 0.  1.
          2    1    1    2  501    0 -0.70778632820E+01  0.32645292332E+02  0.53932981330E+02  0.63439559702E+02  0.00000000000E+00 0.  1.
<scales pt_clust_3="102.25988" pt_clust_4="162.09965" pt_clust_5="14000.00000" pt_clust_6="33.40376"></scales>
<clustering>
<clus scale="   33.404">  1  6  2 -1</clus>
<clus scale="  102.260">  2  3  1 -1</clus>
<clus scale="  162.100">  1  4  2 -1</clus>
<clus scale="   33.404">  1  3  2 -1</clus>
</clustering>
</event>
<event>
 6    0  0.1622933E+002  0.1366858E+03  0.7546771E-02  0.1217859E+00
         21   -1    0    0  503  502  0.00000000000E+00  0.00000000000E+00  0.54293982635E+02  0.54293982635E+02  0.00000000000E+00 0.  1.
          2   -1    0    0  505    0 -0.00000000000E+00 -0.00000000000E+00 -0.87364600784E+03  0.87364600784E+03  0.00000000000E+00 0. -1.
         21    1    1    2  503  504 -0.11091831129E+03  0.70143587908E+02 -0.28008203190E+03  0.30930395939E+03  0.00000000000E+00 0.  1.
         21    1    1    2  504  501  0.41540645462E+02  0.25036536696E+02 -0.14986322701E+03  0.15751647598E+03  0.00000000000E+00 0. -1.
         21    1    1    2  505  502 -0.12915659590E+02 -0.65138564161E+02 -0.47095784159E+01  0.66573470185E+02  0.00000000000E+00 0.  1.
          2    1    1    2  501    0  0.82293325413E+02 -0.30041560442E+02 -0.38469718788E+03  0.39454608492E+03  0.00000000000E+00 0. -1.
<scales pt_clust_3="122.57524" pt_clust_4="45.00457" pt_clust_5="66.40668" pt_clust_6="45.00457"></scales>
<clustering>
<clus scale="   45.005">  4  6 -1 -1</clus>
<clus scale="   66.407">  1  5  2 -1</clus>
<clus scale="  122.575">  1  3  2 -1</clus>
<clus scale="   66.407">  1  3  2 -1</clus>
</clustering>
</event>
<event>
 6    0  0.1948916E+002  0.1082539E+03  0.7546771E-02  0.1263838E+00
         21   -1    0    0  505  502  0.00000000000E+00  0.00000000000E+00  0.62169943090E+03  0.62169943090E+03  0.00000000000E+00 0.  1.
          3   -1    0    0  503    0 -0.00000000000E+00 -0.00000000000E+00 -0.19382075612E+04  0.19382075612E+04  0.00000000000E+00 0.  1.
         21    1    1    2  503  504 -0.11258594678E+03 -0.56973147000E+02 -0.45683437628E+03  0.47394006187E+03  0.00000000000E+00 0. -1.
         21    1    1    2  504  502  0.28844204980E+02  0.17580399551E+02 -0.16323265665E+02  0.37516764403E+02  0.00000000000E+00 0.  1.
         21    1    1    2  505  501 -0.21258930153E+02  0.27783031422E+02  0.60011017092E+03  0.60112898465E+03  0.00000000000E+00 0.  1.
          3    1    1    2  501    0  0.10500067196E+03  0.11609716026E+02 -0.14434606592E+04  0.14473211811E+04  0.00000000000E+00 0.  1.
<scales pt_clust_3="14000.00000" pt_clust_4="33.77956" pt_clust_5="45.61628" pt_clust_6="108.25386"></scales>
<clustering>
<clus scale="   33.780">  1  4  2 -1</clus>
<clus scale="   45.616">  1  5  2 -1</clus>
<clus scale="  108.254">  2  6  1 -1</clus>
<clus scale="   33.780">  1  3  2 -1</clus>
</clustering>
</event>
<event>
 6    0  0.1622933E+002  0.9369448E+02  0.7546771E-02  0.1294144E+00
          2   -1    0    0  504    0 -0.00000000000E+00  0.00000000000E+00  0.14245773367E+04  0.14245773367E+04  0.00000000000E+00 0. -1.
         21   -1    0    0  505  502  0.00000000000E+00 -0.00000000000E+00 -0.19301044804E+03  0.19301044804E+03  0.00000000000E+00 0.  1.
         21    1    1    2  503  501  0.55227656021E+02  0.29930471064E+02  0.22808900277E+02  0.66829432285E+02  0.00000000000E+00 0.  1.
         21    1    1    2  504  502  0.25929779384E+02 -0.20112383941E+02  0.21001824649E+03  0.21256651972E+03  0.00000000000E+00 0. -1.
         21    1    1    2  505  503  0.38280475658E+02 -0.14070072406E+01 -0.16445170886E+03  0.16885419460E+03  0.00000000000E+00 0.  1.
          2    1    1    2  501    0 -0.11943791106E+03 -0.84110798820E+01  0.11631914508E+04  0.11693376382E+04  0.00000000000E+00 0. -1.
<scales pt_clust_3="93.69448" pt_clust_4="32.81557" pt_clust_5="38.35469" pt_clust_6="14000.00000"></scales>
<clustering>
<clus scale="   32.816">  1  4  2 -1</clus>
<clus scale="   38.355">  2  5  1 -1</clus>
<clus scale="   93.694">  2  3  1 -1</clus>
<clus scale="   38.355">  2  3  1 -1</clus>
</clustering>
</event>
<event>
 6    0  0.1622933E+002  0.1566296E+03  0.7546771E-02  0.1192555E+00
         21   -1    0    0  505  502  0.00000000000E+00  0.00000000000E+00  0.30191450417E+03  0.30191450417E+03  0.00000000000E+00 0.  1.
          2   -1    0    0  504    0 -0.00000000000E+00 -0.00000000000E+00 -0.67571633916E+03  0.67571633916E+03  0.00000000000E+00 0. -1.
         21    1    1    2  503  502  0.24919101166E-01 -0.53734627158E+02 -0.12386055785E+03  0.13501425320E+03  0.00000000000E+00 0.  1.
         21    1    1    2  504  503  0.45318869290E+02 -0.75263418721E+02 -0.72723071335E+02  0.11404835473E+03  0.00000000000E+00 0.  1.
         21    1    1    2  505  501  0.35451874046E+02  0.97185160216E+01  0.26290665040E+03  0.26546410633E+03  0.00000000000E+00 0.  1.
          2    1    1    2  501    0 -0.80795662438E+02  0.11927952986E+03 -0.44012485620E+03  0.46310412906E+03  0.00000000000E+00 0. -1.
<scales pt_clust_3="50.86265" pt_clust_4="50.86265" pt_clust_5="36.75983" pt_clust_6="140.86281"></scales>
<clustering>
<clus scale="   36.760">  1  5  2 -1</clus>
<clus scale="   50.863">  3  4 -1 -1</clus>
<clus scale="  140.863">  2  6  1 -1</clus>
<clus scale="   36.760">  1  3  2 -1</clus>
</clustering>
</event>
<event>
 6    0  0.1622933E+002  0.1122019E+03  0.7546771E-02  0.1256546E+00
         21   -1    0    0  504  502  0.00000000000E+00  0.00000000000E+00  0.49549655326E+02  0.49549655326E+02  0.00000000000E+00 0.  1.
          1   -1    0    0  505    0 -0.00000000000E+00 -0.00000000000E+00 -0.11104454953E+04  0.11104454953E+04  0.00000000000E+00 0.  1.
         21    1    1    2  503  501 -0.70852227881E+02  0.57847079933E+02 -0.27245362013E+03  0.28739745645E+03  0.00000000000E+00 0.  1.
         21    1    1    2  504  503 -0.16444217875E+02  0.38491808959E+02  0.12438534439E+02  0.43666334829E+02  0.00000000000E+00 0.  1.
         21    1    1    2  505  502 -0.30584635996E+02 -0.42472877874E+02 -0.74311404134E+02  0.90893069583E+02  0.00000000000E+00 0.  1.
          1    1    1    2  501    0  0.11788108175E+03 -0.53866011019E+02 -0.72656935016E+03  0.73803828977E+03  0.00000000000E+00 0.  1.
<scales pt_clust_3="112.20190" pt_clust_4="41.85728" pt_clust_5="46.11802" pt_clust_6="14000.00000"></scales>
<clustering>
<clus scale="   41.857">  1  4  2 -1</clus>
<clus scale="   46.118">  1  5  2 -1</clus>
<clus scale="  112.202">  1  3  2 -1</clus>
<clus scale="   41.857">  1  3  2 -1</clus>
</clustering>
</event>
<event>
 6    0  0.1622933E+002  0.2004280E+03  0.7546771E-02  0.1149378E+00
         21   -1    0    0  503  502  0.00000000000E+00  0.00000000000E+00  0.50054185346E+03  0.50054185346E+03  0.00000000000E+00 0.  1.
         -2   -1    0    0    0  501 -0.00000000000E+00 -0.00000000000E+00 -0.24985988808E+03  0.24985988808E+03  0.00000000000E+00 0.  1.
         21    1    1    2  503  501 -0.10728614343E+02  0.43851097074E+02 -0.76274673700E-02  0.45144456343E+02  0.00000000000E+00 0.  1.
         21    1    1    2  504  505  0.15388758176E+02 -0.64665667115E+02 -0.15928179993E+02  0.68353268389E+02  0.00000000000E+00 0.  1.
         21    1    1    2  505  502  0.54450569553E+02  0.17225400938E+03  0.39198510632E+03  0.43161166788E+03  0.00000000000E+00 0.  1.
         -2    1    1    2    0  504 -0.59110713386E+02 -0.15143943934E+03 -0.12536733347E+03  0.20529234893E+03  0.00000000000E+00 0.  1.
<scales pt_clust_3="45.14446" pt_clust_4="51.70885" pt_clust_5="184.02959" pt_clust_6="51.70885"></scales>
<clustering>
<clus scale="   45.144">  2  3  1 -1</clus>
<clus scale="   51.709">  4  6 -1 -1</clus>
<clus scale="  184.030">  1  5  2 -1</clus>
<clus scale="  184.030">  1  3  2 -1</clus>
</clustering>
</event>
<event>
 6    0  0.1622933E+002  0.1413440E+03  0.7546771E-02  0.1211532E+00
         21   -1    0    0  505  502  0.00000000000E+00  0.00000000000E+00  0.74127431557E+02  0.74127431557E+02  0.00000000000E+00 0. -1.
          2   -1    0    0  503    0 -0.00000000000E+00 -0.00000000000E+00 -0.76119792677E+03  0.76119792677E+03  0.00000000000E+00 0. -1.
         21    1    1    2  503  504  0.12421924035E+03 -0.20494920621E+02 -0.37211100149E+03  0.39283210011E+03  0.00000000000E+00 0. -1.
         21    1    1    2  504  502  0.21276641511E+02  0.58179379183E+02  0.25478535619E+02  0.66982769527E+02  0.00000000000E+00 0. -1.
         21    1    1    2  505  501 -0.56301125909E+02  0.87368819601E+01 -0.10410539391E+03  0.11867637897E+03  0.00000000000E+00 0. -1.
          2    1    1    2  501    0 -0.89194755954E+02 -0.46421340522E+02 -0.23633263543E+03  0.25683410972E+03  0.00000000000E+00 0. -1.
<scales pt_clust_3="132.12583" pt_clust_4="61.94785" pt_clust_5="37.79425" pt_clust_6="37.79425"></scales>
<clustering>
<clus scale="   37.794">  5  6 -1 -1</clus>
<clus scale="   61.948">  1  4  2 -1</clus>
<clus scale="  132.126">  2  3  1 -1</clus>
<clus scale="   61.948">  1  3  2 -1</clus>
</clustering>
</event>
<event>
 6    0  0.1622933E+002  0.3590881E+03  0.7546771E-02  0.1058946E+00
          1   -1    0    0  505    0 -0.00000000000E+00  0.00000000000E+00  0.69892421180E+03  0.69892421180E+03  0.00000000000E+00 0. -1.
         21   -1    0    0  504  502  0.00000000000E+00 -0.00000000000E+00 -0.32687067096E+03  0.32687067096E+03  0.00000000000E+00 0. -1.
         21    1    1    2  503  502  0.83949444732E+01  0.32656821870E+02 -0.98895456876E+02  0.10448566647E+03  0.00000000000E+00 0. -1.
         21    1    1    2  504  501  0.16161675563E+03 -0.24681218812E+03 -0.94631039552E+01  0.29517076793E+03  0.00000000000E+00 0. -1.
         21    1    1    2  505  503 -0.19528813578E+03  0.27256887061E+03  0.42788724111E+03  0.54361635029E+03  0.00000000000E+00 0. -1.
          1    1    1    2  501    0  0.25276435675E+02 -0.58413504355E+02  0.52524860559E+02  0.82522098061E+02  0.00000000000E+00 0. -1.
<scales pt_clust_3="33.71859" pt_clust_4="52.97933" pt_clust_5="340.93761" pt_clust_6="52.97933"></scales>
<clustering>
<clus scale="   33.719">  2  3  1 -1</clus>
<clus scale="   52.979">  4  6 -1 -1</clus>
<clus scale="  340.938">  1  5  2 -1</clus>
<clus scale="   33.719">  2  3  1 -1</clus>
</clustering>
</event>
<event>
 6    0  0.1622933E+002  0.7879428E+02  0.7546771E-02  0.1332508E+00
          2   -1    0    0  504    0 -0.00000000000E+00  0.00000000000E+00  0.32555194375E+04  0.32555194375E+04  0.00000000000E+00 0.  1.
         21   -1    0    0  505  502  0.00000000000E+00 -0.00000000000E+00 -0.52439388014E+02  0.52439388014E+02  0.00000000000E+00 0. -1.
         21    1    1    2  503  501  0.58044990526E+02 -0.87532342933E+02  0.44657493149E+03  0.45875952461E+03  0.00000000000E+00 0. -1.
         21    1    1    2  504  502  0.20950174997E+02  0.67600977778E+02  0.86969233107E+03  0.87256721961E+03  0.00000000000E+00 0. -1.
         21    1    1    2  505  503 -0.13088802733E+02  0.76316062700E+02 -0.97902514048E+01  0.78046827005E+02  0.00000000000E+00 0. -1.
          2    1    1    2  501    0 -0.65906362791E+02 -0.56384697545E+02  0.18966030384E+04  0.18985852543E+04  0.00000000000E+00 0.  1.
<scales pt_clust_3="78.79428" pt_clust_4="70.77289" pt_clust_5="14000.00000" pt_clust_6="49.30118"></scales>
<clustering>
<clus scale="   70.773">  1  4  2 -1</clus>
<clus scale="   49.301">  1  6  2 -1</clus>
<clus scale="   78.794">  1  3  2 -1</clus>
<clus scale="   78.794">  2  3  1 -1</clus>
</clustering>
</event>
<event>
 6    0  0.1622933E+002  0.9988639E+02  0.7546771E-02  0.1280535E+00
         21   -1    0    0  503  502  0.00000000000E+00  0.00000000000E+00  0.30254575876E+03  0.30254575876E+03  0.00000000000E+00 0.  1.
          2   -1    0    0  504    0 -0.00000000000E+00 -0.00000000000E+00 -0.27495231522E+04  0.27495231522E+04  0.00000000000E+00 0.  1.
         21    1    1    2  503  501 -0.78502954259E+02 -0.61687805357E+02  0.28919258202E+03  0.30594190405E+03  0.00000000000E+00 0.  1.
         21    1    1    2  504  505  0.29853939872E+02 -0.11641256037E+02 -0.10972553073E+03  0.11430865524E+03  0.00000000000E+00 0. -1.
         21    1    1    2  505  502 -0.46954778166E+02  0.14397151487E+02 -0.49883521696E+03  0.50124704772E+03  0.00000000000E+00 0.  1.
          2    1    1    2  501    0  0.95603792553E+02  0.58931909907E+02 -0.21276092277E+04  0.21305713039E+04  0.00000000000E+00 0.  1.
<scales pt_clust_3="99.88639" pt_clust_4="32.04335" pt_clust_5="43.05647" pt_clust_6="14000.00000"></scales>
<clustering>
<clus scale="   32.043">  2  4  1 -1</clus>
<clus scale="   43.056">  2  5  1 -1</clus>
<clus scale="   99.886">  1  3  2 -1</clus>
<clus scale="   99.886">  1  3  2 -1</clus>
</clustering>
</event>
<event>
 6    0  0.1622933E+002  0.1621459E+03  0.7546771E-02  0.1186295E+00
         21   -1    0    0  503  502  0.00000000000E+00  0.00000000000E+00  0.14095293669E+03  0.14095293669E+03  0.00000000000E+00 0.  1.
          2   -1    0    0  505    0 -0.00000000000E+00 -0.00000000000E+00 -0.69085559413E+03  0.69085559413E+03  0.00000000000E+00 0.  1.
         21    1    1    2  503  501 -0.38501657716E+02 -0.56689517808E+01 -0.68156326345E+02  0.78484390053E+02  0.00000000000E+00 0. -1.
         21    1    1    2  504  502  0.15157743346E+03  0.20030544634E+01  0.64906520420E+02  0.16490174940E+03  0.00000000000E+00 0.  1.
         21    1    1    2  505  504 -0.21758848839E+02  0.73155958325E+02 -0.92127770561E+02  0.11963598058E+03  0.00000000000E+00 0.  1.
          2    1    1    2  501    0 -0.91316926907E+02 -0.69490061008E+02 -0.45452508096E+03  0.46878641079E+03  0.00000000000E+00 0.  1.
<scales pt_clust_3="35.93557" pt_clust_4="149.94515" pt_clust_5="76.32327" pt_clust_6="35.93557"></scales>
<clustering>
<clus scale="   35.936">  3  6 -1 -1</clus>
<clus scale="   76.323">  2  5  1 -1</clus>
<clus scale="  149.945">  1  4  2 -1</clus>
<clus scale="  149.945">  1  3  2 -1</clus>
</clustering>
</event>
<event>
 6    0  0.1622933E+002  0.1864499E+03  0.7546771E-02  0.1161703E+00
         21   -1    0    0  503  502  0.00000000000E+00  0.00000000000E+00  0.10647990936E+04  0.10647990936E+04  0.00000000000E+00 0. -1.
         -4   -1    0    0    0  501 -0.00000000000E+00 -0.00000000000E+00 -0.11410598938E+04  0.11410598938E+04  0.00000000000E+00 0.  1.
         21    1    1    2  503  501 -0.16550402957E+02  0.41828929530E+02  0.99766539012E+03  0.99867903044E+03  0.00000000000E+00 0. -1.
         21    1    1    2  504  502  0.49493971834E+02 -0.83527158912E+02 -0.57734013779E+02  0.11295864673E+03  0.00000000000E+00 0. -1.
         21    1    1    2  505  504  0.29750590265E+02 -0.12362607559E+03 -0.10178446947E+03  0.16287597249E+03  0.00000000000E+00 0.  1.
         -4    1    1    2    0  505 -0.62694159142E+02  0.16532430497E+03 -0.91440770707E+03  0.93134533776E+03  0.00000000000E+00 0.  1.
<scales pt_clust_3="44.98417" pt_clust_4="33.23287" pt_clust_5="33.23287" pt_clust_6="182.52985"></scales>
<clustering>
<clus scale="   33.233">  4  5 -1 -1</clus>
<clus scale="   44.984">  1  3  2 -1</clus>
<clus scale="  182.530">  2  6  1 -1</clus>
<clus scale="   44.984">  1  3  2 -1</clus>
</clustering>
</event>
<event>
 6    0  0.1622933E+002  0.1516566E+03  0.7546771E-02  0.1198452E+00
          2   -1    0    0  505    0 -0.00000000000E+00  0.00000000000E+00  0.21199216861E+04  0.21199216861E+04  0.00000000000E+00 0. -1.
         21   -1    0    0  501  502  0.00000000000E+00 -0.00000000000E+00 -0.15309790469E+03  0.15309790469E+03  0.00000000000E+00 0.  1.
         21    1    1    2  503  504 -0.78507566398E+02 -0.10625810375E+03  0.10891379448E+03  0.17122043459E+03  0.00000000000E+00 0.  1.
         21    1    1    2  504  502  0.10715562756E+02 -0.55290272810E+02 -0.99401929646E+02  0.11424789350E+03  0.00000000000E+00 0.  1.
         21    1    1    2  505  503  0.14540156013E+03  0.16725926659E+02  0.49926819580E+03  0.52027886912E+03  0.00000000000E+00 0. -1.
          2    1    1    2  501    0 -0.77609556490E+02  0.14482244990E+03  0.14580437208E+04  0.14672723936E+04  0.00000000000E+00 0. -1.
<scales pt_clust_3="14000.00000" pt_clust_4="56.31907" pt_clust_5="147.89321" pt_clust_6="151.65659"></scales>
<clustering>
<clus scale="   56.319">  2  4  1 -1</clus>
<clus scale="  147.893">  1  5  2 -1</clus>
<clus scale="  151.657">  1  6  2 -1</clus>
<clus scale="   56.319">  2  3  1 -1</clus>
</clustering>
</event>
<event>
 6    0  0.1622933E+002  0.2541971E+03  0.7546771E-02  0.1110681E+00
         21   -1    0    0  504  502  0.00000000000E+00  0.00000000000E+00  0.19912104832E+03  0.19912104832E+03  0.00000000000E+00 0.  1.
          2   -1    0    0  505    0 -0.00000000000E+00 -0.00000000000E+00 -0.58531610041E+03  0.58531610041E+03  0.00000000000E+00 0.  1.
         21    1    1    2  503  501  0.96977052781E+02  0.15632832624E+03 -0.19010145022E+03  0.26454046142E+03  0.00000000000E+00 0.  1.
         21    1    1    2  504  503 -0.14856529881E+03 -0.17282118113E+03 -0.14177947794E+03  0.26840310919E+03  0.00000000000E+00 0.  1.
         21    1    1    2  505  502 -0.59944538948E+01 -0.41545013672E+02  0.82241750859E+02  0.92334323103E+02  0.00000000000E+00 0.  1.
          2    1    1    2  501    0  0.57582699923E+02  0.58037868561E+02 -0.13655587479E+03  0.15915925502E+03  0.00000000000E+00 0.  1.
<scales pt_clust_3="36.36030" pt_clust_4="248.27665" pt_clust_5="41.97525" pt_clust_6="36.36030"></scales>
<clustering>
<clus scale="   36.360">  3  6 -1 -1</clus>
<clus scale="   41.975">  1  5  2 -1</clus>
<clus scale="  248.277">  1  4  2 -1</clus>
<clus scale="   41.975">  1  3  2 -1</clus>
</clustering>
</event>
<event>
 6    0  0.1622933E+002  0.1220773E+03  0.7546771E-02  0.1239709E+00
          1   -1    0    0  505    0 -0.00000000000E+00  0.00000000000E+00  0.12546345975E+04  0.12546345975E+04  0.00000000000E+00 0.  1.
         21   -1    0    0  503  502  0.00000000000E+00 -0.00000000000E+00 -0.16340539464E+03  0.16340539464E+03  0.00000000000E+00 0. -1.
         21    1    1    2  503  501 -0.62961927955E+01 -0.40605872476E+02 -0.14666157987E+03  0.15230921815E+03  0.00000000000E+00 0. -1.
         21    1    1    2  504  502  0.25619684126E+02 -0.36195739058E+02  0.66213395367E+02  0.79691363815E+02  0.00000000000E+00 0.  1.
         21    1    1    2  505  504  0.28933803074E+02 -0.38917775016E+02  0.17816327840E+03  0.18464536805E+03  0.00000000000E+00 0.  1.
          1    1    1    2  501    0 -0.48257294404E+02  0.11571938655E+03  0.99351410895E+03  0.10013940421E+04  0.00000000000E+00 0.  1.
<scales pt_clust_3="41.09111" pt_clust_4="37.47541" pt_clust_5="37.47541" pt_clust_6="115.61588"></scales>
<clustering>
<clus scale="   37.475">  4  5 -1 -1</clus>
<clus scale="   41.091">  2  3  1 -1</clus>
<clus scale="  115.616">  1  6  2 -1</clus>
<clus scale="   41.091">  2  3  1 -1</clus>
</clustering>
</event>
<event>
 6    0  0.1622933E+002  0.1004616E+03  0.7546771E-02  0.1279328E+00
          2   -1    0    0  504    0 -0.00000000000E+00  0.00000000000E+00  0.17806124857E+03  0.17806124857E+03  0.00000000000E+00 0. -1.
         21   -1    0    0  501  502  0.00000000000E+00 -0.00000000000E+00 -0.97902637259E+02  0.97902637259E+02  0.00000000000E+00 0.  1.
         21    1    1    2  503  502 -0.55479872241E+02 -0.83666459435E+02  0.53727547368E+01  0.10053337332E+03  0.00000000000E+00 0.  1.
         21    1    1    2  504  505  0.14872510811E+02  0.56900387399E+02  0.16997820756E+02  0.61219045847E+02  0.00000000000E+00 0.  1.
         21    1    1    2  505  503 -0.21038696752E+02  0.28779155736E+02  0.29867543137E+02  0.46507383273E+02  0.00000000000E+00 0. -1.
          2    1    1    2  501    0  0.61646058181E+02 -0.20130836991E+01  0.27920492679E+02  0.67704083383E+02  0.00000000000E+00 0. -1.
<scales pt_clust_3="89.79376" pt_clust_4="35.07511" pt_clust_5="35.07511" pt_clust_6="61.67892"></scales>
<clustering>
<clus scale="   35.075">  4  5 -1 -1</clus>
<clus scale="   61.679">  1  6  2 -1</clus>
<clus scale="   89.794">  2  3  1 -1</clus>
<clus scale="   89.794">  2  3  1 -1</clus>
</clustering>
</event>
<event>
 6    0  0.1622933E+002  0.1051768E+03  0.7546771E-02  0.1269772E+00
         21   -1    0    0  501  502  0.00000000000E+00  0.00000000000E+00  0.67084834852E+02  0.67084834852E+02  0.00000000000E+00 0. -1.
          1   -1    0    0  504    0 -0.00000000000E+00 -0.00000000000E+00 -0.63852475267E+03  0.63852475267E+03  0.00000000000E+00 0.  1.
         21    1    1    2  503  502  0.40151879837E+02  0.15310684079E+02 -0.52728048945E+01  0.43294260276E+02  0.00000000000E+00 0. -1.
         21    1    1    2  504  505 -0.47804376859E+01  0.51831635369E+02 -0.31677413319E+03  0.32102215262E+03  0.00000000000E+00 0. -1.
         21    1    1    2  505  503 -0.10381994561E+03  0.34737659037E+02 -0.10374844580E+03  0.15082780270E+03  0.00000000000E+00 0. -1.
          1    1    1    2  501    0  0.68448503455E+02 -0.10187997849E+03 -0.14564453394E+03  0.19046537194E+03  0.00000000000E+00 0.  1.
<scales pt_clust_3="42.97197" pt_clust_4="52.59409" pt_clust_5="105.17683" pt_clust_6="14000.00000"></scales>
<clustering>
<clus scale="   42.972">  1  3  2 -1</clus>
<clus scale="   52.594">  2  4  1 -1</clus>
<clus scale="  105.177">  1  5  2 -1</clus>
<clus scale="   42.972">  1  3  2 -1</clus>
</clustering>
</event>
<event>
 6    0  0.1622933E+002  0.1276101E+03  0.7546771E-02  0.1231046E+00
         21   -1    0    0  504  502  0.00000000000E+00  0.00000000000E+00  0.10168705744E+03  0.10168705744E+03  0.00000000000E+00 0. -1.
          2   -1    0    0  505    0 -0.00000000000E+00 -0.00000000000E+00 -0.11431760153E+04  0.11431760153E+04  0.00000000000E+00 0.  1.
         21    1    1    2  503  502  0.38264166722E+02  0.81803332367E+02 -0.96201572424E+02  0.13194951375E+03  0.00000000000E+00 0. -1.
         21    1    1    2  504  501  0.25008448865E+02  0.36326303558E+02  0.59309286582E+02  0.73909500876E+02  0.00000000000E+00 0. -1.
         21    1    1    2  505  503 -0.36095306225E+01  0.53397505907E+02 -0.49746310547E+03  0.50033375226E+03  0.00000000000E+00 0.  1.
          2    1    1    2  501    0 -0.59663084964E+02 -0.17152714183E+03 -0.50713356653E+03  0.53867030584E+03  0.00000000000E+00 0.  1.
<scales pt_clust_3="14000.00000" pt_clust_4="44.10241" pt_clust_5="54.94482" pt_clust_6="127.61013"></scales>
<clustering>
<clus scale="   44.102">  1  4  2 -1</clus>
<clus scale="   54.945">  2  5  1 -1</clus>
<clus scale="  127.610">  2  6  1 -1</clus>
<clus scale="   44.102">  1  3  2 -1</clus>
</clustering>
</event>
<event>
 6    0  0.1622933E+002  0.1022817E+03  0.7546771E-02  0.1275570E+00
          2   -1    0    0  505    0 -0.00000000000E+00  0.00000000000E+00  0.14223702219E+04  0.14223702219E+04  0.00000000000E+00 0. -1.
         21   -1    0    0  501  502  0.00000000000E+00 -0.00000000000E+00 -0.43432134294E+03  0.43432134294E+03  0.00000000000E+00 0.  1.
         21    1    1    2  503  504  0.38047829712E+02  0.33860633525E+02  0.16138812375E+03  0.16923447147E+03  0.00000000000E+00 0.  1.
         21    1    1    2  504  502  0.77728156047E+02 -0.66498207521E+02 -0.41878594515E+03  0.43109783774E+03  0.00000000000E+00 0.  1.
         21    1    1    2  505  503 -0.28772805608E+02 -0.19991558097E+02  0.92102734943E+02  0.98541618222E+02  0.00000000000E+00 0.  1.
          2    1    1    2  501    0 -0.87003180151E+02  0.52629132092E+02  0.11533439655E+04  0.11578176374E+04  0.00000000000E+00 0. -1.
<scales pt_clust_3="46.60292" pt_clust_4="14000.00000" pt_clust_5="35.03622" pt_clust_6="102.28173"></scales>
<clustering>
<clus scale="   35.036">  1  5  2 -1</clus>
<clus scale="   46.603">  1  3  2 -1</clus>
<clus scale="  102.282">  1  6  2 -1</clus>
<clus scale="  102.282">  2  3  1 -1</clus>
</clustering>
</event>
<event>
 6    0  0.1622933E+002  0.1218623E+03  0.7546771E-02  0.1240056E+00
          2   -1    0    0  504    0 -0.00000000000E+00  0.00000000000E+00  0.21077713037E+04  0.21077713037E+04  0.00000000000E+00 0. -1.
         21   -1    0    0  503  502  0.00000000000E+00 -0.00000000000E+00 -0.10468719255E+03  0.10468719255E+03  0.00000000000E+00 0.  1.
         21    1    1    2  503  505  0.11629634905E+03  0.37534077963E+02 -0.60815281144E+02  0.13649961989E+03  0.00000000000E+00 0.  1.
         21    1    1    2  504  502 -0.21488588897E+00  0.30050899094E+02  0.70345019862E+02  0.76495258230E+02  0.00000000000E+00 0. -1.
         21    1    1    2  505  501 -0.88707499891E+02 -0.80331772190E+02  0.13851277961E+04  0.13902881808E+04  0.00000000000E+00 0. -1.
          2    1    1    2  501    0 -0.27373963268E+02  0.12746795133E+02  0.60842657633E+03  0.60917543732E+03  0.00000000000E+00 0. -1.
<scales pt_clust_3="14000.00000" pt_clust_4="30.05167" pt_clust_5="121.86229" pt_clust_6="35.00685"></scales>
<clustering>
<clus scale="   30.052">  1  4  2 -1</clus>
<clus scale="   35.007">  1  6  2 -1</clus>
<clus scale="  121.862">  1  5  2 -1</clus>
<clus scale="  121.862">  2  3  1 -1</clus>
</clustering>
</event>
<event>
 6    0  0.1622933E+002  0.9652747E+02  0.7546771E-02  0.1287772E+00
         21   -1    0    0  505  502  0.00000000000E+00  0.00000000000E+00  0.25261081717E+03  0.25261081717E+03  0.00000000000E+00 0. -1.
          1   -1    0    0  503    0 -0.00000000000E+00 -0.00000000000E+00 -0.11254321498E+04  0.11254321498E+04  0.00000000000E+00 0.  1.
         21    1    1    2  503  504  0.49173785076E+02  0.86605557331E+02 -0.38861331333E+03  0.40117189707E+03  0.00000000000E+00 0.  1.
         21    1    1    2  504  502  0.23844661798E+02 -0.27251794957E+02  0.23706778478E+03  0.23981735301E+03  0.00000000000E+00 0. -1.
         21    1    1    2  505  501  0.29837180001E+02 -0.28956199622E+02 -0.14326372388E+03  0.14917510981E+03  0.00000000000E+00 0.  1.
          1    1    1    2  501    0 -0.10285562687E+03 -0.30397562752E+02 -0.57801208016E+03  0.58787860704E+03  0.00000000000E+00 0.  1.
<scales pt_clust_3="14000.00000" pt_clust_4="36.21089" pt_clust_5="49.11070" pt_clust_6="96.52747"></scales>
<clustering>
<clus scale="   36.211">  1  4  2 -1</clus>
<clus scale="   49.111">  1  5  2 -1</clus>
<clus scale="   96.527">  2  6  1 -1</clus>
<clus scale="   36.211">  1  3  2 -1</clus>
</clustering>
</event>
<event>
 6    0  0.1622933E+002  0.7822654E+02  0.7546771E-02  0.1334161E+00
         -1   -1    0    0    0  501 -0.00000000000E+00  0.00000000000E+00  0.21717966855E+04  0.21717966855E+04  0.00000000000E+00 0.  1.
         21   -1    0    0  503  502  0.00000000000E+00 -0.00000000000E+00 -0.13471077480E+04  0.13471077480E+04  0.00000000000E+00 0. -1.
         21    1    1    2  503  504  0.62643190427E+02  0.94844547244E+02  0.16360433725E+03  0.19921354526E+03  0.00000000000E+00 0.  1.
         21    1    1    2  504  501  0.85145544217E+01 -0.29179239942E+02  0.58068092658E+03  0.58147593602E+03  0.00000000000E+00 0.  1.
         21    1    1    2  505  502 -0.37681411679E+02 -0.68300162566E+02 -0.13275605744E+04  0.13298503222E+04  0.00000000000E+00 0. -1.
         -1    1    1    2    0  505 -0.33476333170E+02  0.26348552640E+01  0.14079642480E+04  0.14083646300E+04  0.00000000000E+00 0.  1.
<scales pt_clust_3="78.22654" pt_clust_4="30.39615" pt_clust_5="14000.00000" pt_clust_6="34.79755"></scales>
<clustering>
<clus scale="   30.396">  1  4  2 -1</clus>
<clus scale="   34.798">  1  6  2 -1</clus>
<clus scale="   78.227">  1  3  2 -1</clus>
<clus scale="   78.227">  2  3  1 -1</clus>
</clustering>
</event>
<event>
 6    0  0.1622933E+002  0.1269360E+03  0.7546771E-02  0.1232074E+00
         21   -1    0    0  503  502  0.00000000000E+00  0.00000000000E+00  0.69533444827E+03  0.69533444827E+03  0.00000000000E+00 0.  1.
         -2   -1    0    0    0  501 -0.00000000000E+00 -0.00000000000E+00 -0.43065009986E+03  0.43065009986E+03  0.00000000000E+00 0. -1.
         21    1    1    2  503  501 -0.30203479640E+02  0.29469393444E+01 -0.30765716415E+02  0.43214163655E+02  0.00000000000E+00 0. -1.
         21    1    1    2  504  505  0.58410476170E+02  0.69749634889E+02 -0.27804828621E+02  0.95130982272E+02  0.00000000000E+00 0.  1.
         21    1    1    2  505  502  0.54738817423E+02  0.36670998230E+02  0.63950245358E+03  0.64288761722E+03  0.00000000000E+00 0.  1.
         -2    1    1    2    0  504 -0.82945813953E+02 -0.10936757246E+03 -0.31624756013E+03  0.34475178498E+03  0.00000000000E+00 0. -1.
<scales pt_clust_3="30.34690" pt_clust_4="126.93596" pt_clust_5="65.78624" pt_clust_6="14000.00000"></scales>
<clustering>
<clus scale="   30.347">  2  3  1 -1</clus>
<clus scale="   65.786">  1  5  2 -1</clus>
<clus scale="  126.936">  1  4  2 -1</clus>
<clus scale="   65.786">  1  3  2 -1</clus>
</clustering>
</event>
<event>
 6    0  0.1622933E+002  0.9898547E+02  0.7546771E-02  0.1282444E+00
          1   -1    0    0  503    0 -0.00000000000E+00  0.00000000000E+00  0.11233407930E+03  0.11233407930E+03  0.00000000000E+00 0.  1.
         21   -1    0    0  505  502  0.00000000000E+00 -0.00000000000E+00 -0.70143144370E+03  0.70143144370E+03  0.00000000000E+00 0.  1.
         21    1    1    2  503  504  0.23140349480E+02 -0.20951321787E+02  0.43032522271E+02  0.53162314017E+02  0.00000000000E+00 0.  1.
         21    1    1    2  504  502 -0.32054917442E+02 -0.79356756552E+02 -0.65148109857E+02  0.10756062830E+03  0.00000000000E+00 0. -1.
         21    1    1    2  505  501 -0.96756273464E+02  0.27013386409E+02 -0.49616352987E+03  0.50623092347E+03  0.00000000000E+00 0.  1.
          1    1    1    2  501    0  0.10567084143E+03  0.73294691929E+02 -0.70818246946E+02  0.14681165721E+03  0.00000000000E+00 0.  1.
<scales pt_clust_3="31.21592" pt_clust_4="89.66168" pt_clust_5="14000.00000" pt_clust_6="98.98547"></scales>
<clustering>
<clus scale="   31.216">  1  3  2 -1</clus>
<clus scale="   89.662">  1  4  2 -1</clus>
<clus scale="   98.985">  1  6  2 -1</clus>
<clus scale="   98.985">  2  3  1 -1</clus>
</clustering>
</event>
<event>
 6    0  0.1622933E+002  0.1720573E+03  0.7546771E-02  0.1175719E+00
         21   -1    0    0  501  502  0.00000000000E+00  0.00000000000E+00  0.11639047225E+03  0.11639047225E+03  0.00000000000E+00 0.  1.
          2   -1    0    0  504    0 -0.00000000000E+00 -0.00000000000E+00 -0.22956730659E+04  0.22956730659E+04  0.00000000000E+00 0.  1.
         21    1    1    2  503  502  0.52952582411E+02  0.15800043957E+03  0.22003455396E+01  0.16665220193E+03  0.00000000000E+00 0.  1.
         21    1    1    2  504  505  0.80346275867E+02 -0.29409697938E+02 -0.14940547764E+04  0.14965026326E+04  0.00000000000E+00 0.  1.
         21    1    1    2  505  503 -0.59266149570E+02  0.65261493088E+02 -0.17194780912E+03  0.19322936637E+03  0.00000000000E+00 0.  1.
          2    1    1    2  501    0 -0.74032708708E+02 -0.19385223472E+03 -0.51548035361E+03  0.55567933723E+03  0.00000000000E+00 0.  1.
<scales pt_clust_3="172.05734" pt_clust_4="85.55965" pt_clust_5="71.44405" pt_clust_6="14000.00000"></scales>
<clustering>
<clus scale="   85.560">  2  4  1 -1</clus>
<clus scale="   71.444">  2  5  1 -1</clus>
<clus scale="  172.057">  1  3  2 -1</clus>
<clus scale="  172.057">  1  3  2 -1</clus>
</clustering>
</event>
<event>
 6    0  0.1622933E+002  0.1230318E+03  0.7546771E-02  0.1238178E+00
         21   -1    0    0  504  502  0.00000000000E+00  0.00000000000E+00  0.72207430039E+03  0.72207430039E+03  0.00000000000E+00 0.  1.
          2   -1    0    0  503    0 -0.00000000000E+00 -0.00000000000E+00 -0.95673802718E+03  0.95673802718E+03  0.00000000000E+00 0. -1.
         21    1    1    2  503  502  0.35303139006E+02  0.72871212024E+02 -0.77233248723E+02  0.11189950792E+03  0.00000000000E+00 0. -1.
         21    1    1    2  504  505  0.15821380184E+02  0.41248864326E+02  0.69895344588E+03  0.70034827364E+03  0.00000000000E+00 0.  1.
         21    1    1    2  505  501 -0.40896154723E+01 -0.49235728203E+02 -0.24333368845E+03  0.24829854172E+03  0.00000000000E+00 0. -1.
          2    1    1    2  501    0 -0.47034903717E+02 -0.64884348147E+02 -0.61305023550E+03  0.61826600428E+03  0.00000000000E+00 0. -1.
<scales pt_clust_3="115.03586" pt_clust_4="44.17901" pt_clust_5="34.25706" pt_clust_6="34.25706"></scales>
<clustering>
<clus scale="   34.257">  5  6 -1 -1</clus>
<clus scale="   44.179">  1  4  2 -1</clus>
<clus scale="  115.036">  1  3  2 -1</clus>
<clus scale="   44.179">  1  3  2 -1</clus>
</clustering>
</event>
<event>
 6    0  0.1622933E+002  0.1468570E+03  0.7546771E-02  0.1204389E+00
          1   -1    0    0  503    0 -0.00000000000E+00  0.00000000000E+00  0.91320341222E+03  0.91320341222E+03  0.00000000000E+00 0.  1.
         21   -1    0    0  505  502  0.00000000000E+00 -0.00000000000E+00 -0.85065747268E+03  0.85065747268E+03  0.00000000000E+00 0.  1.
         21    1    1    2  503  504 -0.38513430438E+02  0.22857878900E+02  0.43251615441E+02  0.62261297691E+02  0.00000000000E+00 0.  1.
         21    1    1    2  504  502  0.47534090497E+02  0.11211927063E+03  0.45537602245E+03  0.47137834319E+03  0.00000000000E+00 0.  1.
         21    1    1    2  505  501  0.39337962831E+02  0.41186709773E+02 -0.81108830342E+03  0.81308551600E+03  0.00000000000E+00 0.  1.
          1    1    1    2  501    0 -0.48358622890E+02 -0.17616385930E+03  0.37500660508E+03  0.41713572802E+03  0.00000000000E+00 0.  1.
<scales pt_clust_3="44.78579" pt_clust_4="146.85700" pt_clust_5="56.94288" pt_clust_6="14000.00000"></scales>
<clustering>
<clus scale="   44.786">  1  3  2 -1</clus>
<clus scale="   56.943">  2  5  1 -1</clus>
<clus scale="  146.857">  1  4  2 -1</clus>
<clus scale="   56.943">  2  3  1 -1</clus>
</clustering>
</event>
<event>
 6    0  0.1622933E+002  0.7072641E+02  0.7546771E-02  0.1357640E+00
         21   -1    0    0  503  502  0.00000000000E+00  0.00000000000E+00  0.17272256286E+03  0.17272256286E+03  0.00000000000E+00 0. -1.
          4   -1    0    0  504    0 -0.00000000000E+00 -0.00000000000E+00 -0.18177370234E+03  0.18177370234E+03  0.00000000000E+00 0.  1.
         21    1    1    2  503  501  0.68167909339E+02 -0.24804718313E+02  0.10664354707E+03  0.12897668024E+03  0.00000000000E+00 0. -1.
         21    1    1    2  504  505 -0.14505332293E+01  0.36611177828E+02 -0.32928524189E+01  0.36787569445E+02  0.00000000000E+00 0.  1.
         21    1    1    2  505  502 -0.30263891283E+02 -0.70063614527E+02 -0.31457123933E+02  0.82549160155E+02  0.00000000000E+00 0.  1.
          4    1    1    2  501    0 -0.36453484827E+02  0.58257155012E+02 -0.80944710190E+02  0.10618285537E+03  0.00000000000E+00 0.  1.
<scales pt_clust_3="70.72641" pt_clust_4="36.63990" pt_clust_5="64.91818" pt_clust_6="14000.00000"></scales>
<clustering>
<clus scale="   36.640">  2  4  1 -1</clus>
<clus scale="   64.918">  2  5  1 -1</clus>
<clus scale="   70.726">  1  3  2 -1</clus>
<clus scale="   70.726">  1  3  2 -1</clus>
</clustering>
</event>
<event>
 6    0  0.1622933E+002  0.8447713E+02  0.7546771E-02  0.1316806E+00
         21   -1    0    0  501  502  0.00000000000E+00  0.00000000000E+00  0.43028591961E+03  0.43028591961E+03  0.00000000000E+00 0. -1.
          2   -1    0    0  505    0 -0.00000000000E+00 -0.00000000000E+00 -0.13685520858E+04  0.13685520858E+04  0.00000000000E+00 0.  1.
         21    1    1    2  503  502 -0.51201782429E+02 -0.67143279796E+02  0.41160987241E+03  0.42018154364E+03  0.00000000000E+00 0. -1.
         21    1    1    2  504  503 -0.69998216182E+02  0.29795008554E+02 -0.32520114414E+03  0.33398095298E+03  0.00000000000E+00 0.  1.
         21    1    1    2  505  504  0.33223846308E+02 -0.13023654980E+02 -0.35556650527E+02  0.50375737704E+02  0.00000000000E+00 0.  1.
          2    1    1    2  501    0  0.87976152303E+02  0.50371926222E+02 -0.98911824397E+03  0.99429977113E+03  0.00000000000E+00 0.  1.
<scales pt_clust_3="84.47713" pt_clust_4="67.20703" pt_clust_5="35.68528" pt_clust_6="14000.00000"></scales>
<clustering>
<clus scale="   35.685">  2  5  1 -1</clus>
<clus scale="   67.207">  2  4  1 -1</clus>
<clus scale="   84.477">  1  3  2 -1</clus>
<clus scale="   84.477">  1  3  2 -1</clus>
</clustering>
</event>
<event>
 6    0  0.1622933E+002  0.1962679E+03  0.7546771E-02  0.1152927E+00
          1   -1    0    0  503    0 -0.00000000000E+00  0.00000000000E+00  0.10146024134E+04  0.10146024134E+04  0.00000000000E+00 0. -1.
         21   -1    0    0  501  502  0.00000000000E+00 -0.00000000000E+00 -0.59302847001E+02  0.59302847001E+02  0.00000000000E+00 0. -1.
         21    1    1    2  503  504 -0.30265668571E+02  0.48788800518E+01  0.29739605543E+03  0.29897195177E+03  0.00000000000E+00 0. -1.
         21    1    1    2  504  505 -0.28457655264E+02  0.54315608573E+02  0.11879579024E+03  0.13368793235E+03  0.00000000000E+00 0.  1.
         21    1    1    2  505  502 -0.81930252608E+02  0.81604176626E+02  0.79298808630E+02  0.14021451061E+03  0.00000000000E+00 0. -1.
          1    1    1    2  501    0  0.14065357644E+03 -0.14079866525E+03  0.45980891213E+03  0.50103086569E+03  0.00000000000E+00 0. -1.
<scales pt_clust_3="30.65639" pt_clust_4="52.66218" pt_clust_5="52.66218" pt_clust_6="182.75579"></scales>
<clustering>
<clus scale="   30.656">  1  3  2 -1</clus>
<clus scale="   52.662">  4  5 -1 -1</clus>
<clus scale="  182.756">  1  6  2 -1</clus>
<clus scale="  196.268">  2  3  1 -1</clus>
</clustering>
</event>
<event>
 6    0  0.1622933E+002  0.1516073E+03  0.7546771E-02  0.1198512E+00
          1   -1    0    0  505    0 -0.00000000000E+00  0.00000000000E+00  0.81554006360E+03  0.81554006360E+03  0.00000000000E+00 0.  1.
         21   -1    0    0  504  502  0.00000000000E+00 -0.00000000000E+00 -0.15372417135E+03  0.15372417135E+03  0.00000000000E+00 0. -1.
         21    1    1    2  503  502 -0.33637491461E+02  0.62776752904E+02 -0.11290204568E+03  0.13348885143E+03  0.00000000000E+00 0. -1.
         21    1    1    2  504  501  0.79592474820E+02 -0.66120473993E+01  0.20912553827E+03  0.22385748139E+03  0.00000000000E+00 0.  1.
         21    1    1    2  505  503 -0.12481215093E+03 -0.66449511807E+02  0.25794717860E+03  0.29416042832E+03  0.00000000000E+00 0.  1.
          1    1    1    2  501    0  0.78857167572E+02  0.10284806302E+02  0.30764522107E+03  0.31775747381E+03  0.00000000000E+00 0.  1.
<scales pt_clust_3="71.22079" pt_clust_4="34.20436" pt_clust_5="147.68146" pt_clust_6="34.20436"></scales>
<clustering>
<clus scale="   34.204">  4  6 -1 -1</clus>
<clus scale="   71.221">  2  3  1 -1</clus>
<clus scale="  147.681">  2  5  1 -1</clus>
<clus scale="   71.221">  2  3  1 -1</clus>
</clustering>
</event>
<event>
 6    0  0.1622933E+002  0.1506326E+03  0.7546771E-02  0.1199698E+00
          1   -1    0    0  505    0 -0.00000000000E+00  0.00000000000E+00  0.12820808101E+04  0.12820808101E+04  0.00000000000E+00 0. -1.
         21   -1    0    0  503  502  0.00000000000E+00 -0.00000000000E+00 -0.16395550287E+04  0.16395550287E+04  0.00000000000E+00 0.  1.
         21    1    1    2  503  501 -0.14448442537E+02  0.13649235952E+03 -0.16268369031E+04  0.16326166822E+04  0.00000000000E+00 0.  1.
         21    1    1    2  504  502 -0.25779090242E+02 -0.87763516096E+02  0.29044738401E+03  0.30451055668E+03  0.00000000000E+00 0.  1.
         21    1    1    2  505  504 -0.14708728494E+01 -0.57472406193E+02  0.41159873372E+03  0.41559446404E+03  0.00000000000E+00 0. -1.
          1    1    1    2  501    0  0.41698405628E+02  0.87435627701E+01  0.56731656685E+03  0.56891413582E+03  0.00000000000E+00 0. -1.
<scales pt_clust_3="137.27249" pt_clust_4="50.97332" pt_clust_5="50.97332" pt_clust_6="42.60525"></scales>
<clustering>
<clus scale="   42.605">  1  6  2 -1</clus>
<clus scale="   50.973">  4  5 -1 -1</clus>
<clus scale="  137.272">  2  3  1 -1</clus>
<clus scale="  137.272">  2  3  1 -1</clus>
</clustering>
</event>
<event>
 6    0  0.1622933E+002  0.7799307E+02  0.7546771E-02  0.1334845E+00
         21   -1    0    0  504  502  0.00000000000E+00  0.00000000000E+00  0.16569946615E+03  0.16569946615E+03  0.00000000000E+00 0. -1.
          2   -1    0    0  505    0 -0.00000000000E+00 -0.00000000000E+00 -0.39394886841E+03  0.39394886841E+03  0.00000000000E+00 0. -1.
         21    1    1    2  503  502  0.63340298651E+02 -0.40018162535E+02 -0.73989327206E+02  0.10529894257E+03  0.00000000000E+00 0. -1.
         21    1    1    2  504  501 -0.46322148609E+02 -0.62694221138E+02  0.12569628164E+03  0.14790490876E+03  0.00000000000E+00 0. -1.
         21    1    1    2  505  503 -0.31185202789E+02  0.15716525672E+02 -0.59057087801E+02  0.68609515898E+02  0.00000000000E+00 0.  1.
          2    1    1    2  501    0  0.14167052747E+02  0.86995858001E+02 -0.22089926889E+03  0.23783496734E+03  0.00000000000E+00 0. -1.
<scales pt_clust_3="65.49047" pt_clust_4="77.99307" pt_clust_5="34.92171" pt_clust_6="14000.00000"></scales>
<clustering>
<clus scale="   34.922">  2  5  1 -1</clus>
<clus scale="   65.490">  2  3  1 -1</clus>
<clus scale="   77.993">  1  4  2 -1</clus>
<clus scale="   77.993">  1  3  2 -1</clus>
</clustering>
</event>
<event>
 6    0  0.1622933E+002  0.6277640E+02  0.7546771E-02  0.1386536E+00
         -4   -1    0    0    0  501 -0.00000000000E+00  0.00000000000E+00  0.33420976647E+03  0.33420976647E+03  0.00000000000E+00 0. -1.
         21   -1    0    0  505  502  0.00000000000E+00 -0.00000000000E+00 -0.36054218631E+03  0.36054218631E+03  0.00000000000E+00 0. -1.
         21    1    1    2  503  501 -0.27064391072E+01  0.40168969637E+02  0.13287081633E+03  0.13883632365E+03  0.00000000000E+00 0. -1.
         21    1    1    2  504  502  0.61932763651E+02 -0.26279918474E+01 -0.30344478525E+03  0.30971165824E+03  0.00000000000E+00 0. -1.
         21    1    1    2  505  503  0.48478628714E+02  0.22023727083E+02 -0.41555547080E+01  0.53408713067E+02  0.00000000000E+00 0. -1.
         -4    1    1    2    0  504 -0.10770495326E+03 -0.59564704873E+02  0.14839710379E+03  0.19279525781E+03  0.00000000000E+00 0. -1.
<scales pt_clust_3="40.26004" pt_clust_4="62.77640" pt_clust_5="55.20233" pt_clust_6="14000.00000"></scales>
<clustering>
<clus scale="   40.260">  1  3  2 -1</clus>
<clus scale="   55.202">  1  5  2 -1</clus>
<clus scale="   62.776">  2  4  1 -1</clus>
<clus scale="   62.776">  2  3  1 -1</clus>
</clustering>
</event>
<event>
 6    0  0.1622933E+002  0.6604002E+02  0.7546771E-02  0.1374102E+00
         21   -1    0    0  505  502  0.00000000000E+00  0.00000000000E+00  0.16343288642E+03  0.16343288642E+03  0.00000000000E+00 0. -1.
          2   -1    0    0  504    0 -0.00000000000E+00 -0.00000000000E+00 -0.15036001253E+04  0.15036001253E+04  0.00000000000E+00 0.  1.
         21    1    1    2  503  502 -0.26613965785E+01  0.42103614841E+02  0.13451029185E+03  0.14097097583E+03  0.00000000000E+00 0. -1.
         21    1    1    2  504  503 -0.34074276133E+02 -0.64086157071E+02 -0.88187584666E+02  0.11421533133E+03  0.00000000000E+00 0. -1.
         21    1    1    2  505  501  0.33905827273E+02  0.75933342578E+02 -0.13081318724E+03  0.15500828234E+03  0.00000000000E+00 0. -1.
          2    1    1    2  501    0  0.28298454387E+01 -0.53950800348E+02 -0.12556767588E+04  0.12568384222E+04  0.00000000000E+00 0.  1.
<scales pt_clust_3="42.18765" pt_clust_4="66.04002" pt_clust_5="14000.00000" pt_clust_6="53.07127"></scales>
<clustering>
<clus scale="   42.188">  1  3  2 -1</clus>
<clus scale="   53.071">  2  6  1 -1</clus>
<clus scale="   66.040">  1  4  2 -1</clus>
<clus scale="   42.188">  1  3  2 -1</clus>
</clustering>
</event>
<event>
 6    0  0.1622933E+002  0.1655154E+03  0.7546771E-02  0.1182607E+00
         21   -1    0    0  501  502  0.00000000000E+00  0.00000000000E+00  0.22250582487E+03  0.22250582487E+03  0.00000000000E+00 0. -1.
          1   -1    0    0  505    0 -0.00000000000E+00 -0.00000000000E+00 -0.19599459482E+04  0.19599459482E+04  0.00000000000E+00 0.  1.
         21    1    1    2  503  502  0.14636185023E+03  0.75922173232E+02  0.17074485717E+03  0.23736000894E+03  0.00000000000E+00 0. -1.
         21    1    1    2  504  503  0.59679206375E+02 -0.27896198729E+02 -0.11211194373E+03  0.13003420129E+03  0.00000000000E+00 0. -1.
         21    1    1    2  505  504  0.83576800140E+01 -0.32487693556E+02 -0.10138208150E+03  0.10678776848E+03  0.00000000000E+00 0.  1.
          1    1    1    2  501    0 -0.21439873662E+03 -0.15538280946E+02 -0.16946909553E+04  0.17082697944E+04  0.00000000000E+00 0.  1.
<scales pt_clust_3="165.51544" pt_clust_4="67.28984" pt_clust_5="33.54551" pt_clust_6="14000.00000"></scales>
<clustering>
<clus scale="   33.546">  2  5  1 -1</clus>
<clus scale="   67.290">  2  4  1 -1</clus>
<clus scale="  165.515">  1  3  2 -1</clus>
<clus scale="  165.515">  1  3  2 -1</clus>
</clustering>
</event>
<event>
 6    0  0.1622933E+002  0.7520224E+02  0.7546771E-02  0.1343246E+00
          2   -1    0    0  505    0 -0.00000000000E+00  0.00000000000E+00  0.11202093176E+04  0.11202093176E+04  0.00000000000E+00 0. -1.
         21   -1    0    0  501  502  0.00000000000E+00 -0.00000000000E+00 -0.29953215504E+02  0.29953215504E+02  0.00000000000E+00 0. -1.
         21    1    1    2  503  502 -0.12911868501E+02  0.71455453408E+02  0.40087672278E+02  0.82943472550E+02  0.00000000000E+00 0. -1.
         21    1    1    2  504  503  0.51764873341E+02  0.37747957828E+01  0.30760888032E+03  0.31195684709E+03  0.00000000000E+00 0. -1.
         21    1    1    2  505  504 -0.27565006465E+02  0.24422633057E+02  0.23793083898E+03  0.24076415581E+03  0.00000000000E+00 0. -1.
          2    1    1    2  501    0 -0.11287998375E+02 -0.99652882248E+02  0.50462871054E+03  0.51449805767E+03  0.00000000000E+00 0. -1.
<scales pt_clust_3="14000.00000" pt_clust_4="43.84989" pt_clust_5="36.82791" pt_clust_6="75.20224"></scales>
<clustering>
<clus scale="   36.828">  1  5  2 -1</clus>
<clus scale="   43.850">  1  4  2 -1</clus>
<clus scale="   75.202">  1  6  2 -1</clus>
<clus scale="   75.202">  2  3  1 -1</clus>
</clustering>
</event>
<event>
 6    0  0.1622933E+002  0.9224714E+02  0.7546771E-02  0.1297499E+00
         21   -1    0    0  504  502  0.00000000000E+00  0.00000000000E+00  0.61074120622E+03  0.61074120622E+03  0.00000000000E+00 0.  1.
          1   -1    0    0  503    0 -0.00000000000E+00 -0.00000000000E+00 -0.56174987460E+02  0.56174987460E+02  0.00000000000E+00 0.  1.
         21    1    1    2  503  505  0.23754184679E+02 -0.20929721973E+02  0.28440807978E+02  0.42558126251E+02  0.00000000000E+00 0.  1.
         21    1    1    2  504  501 -0.30283034896E+02  0.22385972080E+02  0.69699002441E+02  0.79222123739E+02  0.00000000000E+00 0.  1.
         21    1    1    2  505  502 -0.81806332374E+01 -0.10218598646E+03  0.42705319847E+03  0.43918485051E+03  0.00000000000E+00 0.  1.
          1    1    1    2  501    0  0.14709483454E+02  0.10072973635E+03  0.29373209871E+02  0.10595109318E+03  0.00000000000E+00 0.  1.
<scales pt_clust_3="31.65935" pt_clust_4="34.60198" pt_clust_5="14000.00000" pt_clust_6="92.24714"></scales>
<clustering>
<clus scale="   31.659">  2  3  1 -1</clus>
<clus scale="   34.602">  1  4  2 -1</clus>
<clus scale="   92.247">  2  6  1 -1</clus>
<clus scale="   34.602">  1  3  2 -1</clus>
</clustering>
</event>
<event>
 6    0  0.1622933E+002  0.8830058E+02  0.7546771E-02  0.1307020E+00
         -1   -1    0    0    0  501 -0.00000000000E+00  0.00000000000E+00  0.35251609386E+02  0.35251609386E+02  0.00000000000E+00 0.  1.
         21   -1    0    0  504  502  0.00000000000E+00 -0.00000000000E+00 -0.90266182826E+03  0.90266182826E+03  0.00000000000E+00 0.  1.
         21    1    1    2  503  501 -0.17874649831E+02  0.80093409498E+02 -0.14422904439E+03  0.16594117812E+03  0.00000000000E+00 0.  1.
         21    1    1    2  504  505 -0.62386970503E+01  0.39807754986E+02 -0.52554545342E+03  0.52708785066E+03  0.00000000000E+00 0.  1.
         21    1    1    2  505  503 -0.27407070479E+02 -0.38668124473E+02 -0.79291086506E+02  0.92376662431E+02  0.00000000000E+00 0. -1.
         -1    1    1    2    0  502  0.51520417360E+02 -0.81233040011E+02 -0.11834463456E+03  0.15250774644E+03  0.00000000000E+00 0.  1.
<scales pt_clust_3="88.30058" pt_clust_4="40.29366" pt_clust_5="41.31198" pt_clust_6="14000.00000"></scales>
<clustering>
<clus scale="   40.294">  2  4  1 -1</clus>
<clus scale="   41.312">  2  5  1 -1</clus>
<clus scale="   88.301">  2  3  1 -1</clus>
<clus scale="   40.294">  2  3  1 -1</clus>
</clustering>
</event>
<event>
 6    0  0.1622933E+002  0.1213973E+03  0.7546771E-02  0.1240810E+00
          2   -1    0    0  503    0 -0.00000000000E+00  0.00000000000E+00  0.23171549850E+04  0.23171549850E+04  0.00000000000E+00 0. -1.
         21   -1    0    0  504  502  0.00000000000E+00 -0.00000000000E+00 -0.10299315815E+03  0.10299315815E+03  0.00000000000E+00 0.  1.
         21    1    1    2  503  505 -0.47014914271E+02  0.13793934669E+02  0.94785020021E+03  0.94911573417E+03  0.00000000000E+00 0.  1.
         21    1    1    2  504  501 -0.74095864032E+02 -0.40227593580E+01 -0.71355438964E+02  0.10294648284E+03  0.00000000000E+00 0.  1.
         21    1    1    2  505  502 -0.76885442282E+02 -0.13485267087E+02  0.56855168593E+03  0.57388521783E+03  0.00000000000E+00 0. -1.
          2    1    1    2  501    0  0.19799622058E+03  0.37140917762E+01  0.76911537970E+03  0.79420070835E+03  0.00000000000E+00 0. -1.
<scales pt_clust_3="48.99668" pt_clust_4="74.73838" pt_clust_5="121.39731" pt_clust_6="14000.00000"></scales>
<clustering>
<clus scale="   48.997">  1  3  2 -1</clus>
<clus scale="   74.738">  2  4  1 -1</clus>
<clus scale="  121.397">  1  5  2 -1</clus>
<clus scale="   74.738">  2  3  1 -1</clus>
</clustering>
</event>
<event>
 6    0  0.1622933E+002  0.1172719E+03  0.7546771E-02  0.1247667E+00
         21   -1    0    0  501  502  0.00000000000E+00  0.00000000000E+00  0.71903840764E+03  0.71903840764E+03  0.00000000000E+00 0. -1.
          1   -1    0    0  504    0 -0.00000000000E+00 -0.00000000000E+00 -0.16924309073E+03  0.16924309073E+03  0.00000000000E+00 0.  1.
         21    1    1    2  503  502 -0.40108041104E+02 -0.90985184931E+01  0.60753834083E+03  0.60892879188E+03  0.00000000000E+00 0. -1.
         21    1    1    2  504  505  0.25589021577E+02  0.22233797216E+02 -0.65103587096E+01  0.34518466572E+02  0.00000000000E+00 0.  1.
         21    1    1    2  505  503 -0.10127397882E+03  0.15256021424E+02  0.22221967391E+02  0.10479971760E+03  0.00000000000E+00 0.  1.
          1    1    1    2  501    0  0.11579299834E+03 -0.28391300148E+02 -0.73454632599E+02  0.14003452231E+03  0.00000000000E+00 0.  1.
<scales pt_clust_3="40.98752" pt_clust_4="33.89896" pt_clust_5="14000.00000" pt_clust_6="117.27190"></scales>
<clustering>
<clus scale="   33.899">  2  4  1 -1</clus>
<clus scale="   40.988">  1  3  2 -1</clus>
<clus scale="  117.272">  2  6  1 -1</clus>
<clus scale="   40.988">  1  3  2 -1</clus>
</clustering>
</event>
<event>
 6    0  0.1622933E+002  0.1042639E+03  0.7546771E-02  0.1271577E+00
          2   -1    0    0  503    0 -0.00000000000E+00  0.00000000000E+00  0.86791829162E+03  0.86791829162E+03  0.00000000000E+00 0. -1.
         21   -1    0    0  504  502  0.00000000000E+00 -0.00000000000E+00 -0.93929463868E+02  0.93929463868E+02  0.00000000000E+00 0.  1.
         21    1    1    2  503  502  0.55373114225E+02  0.39576704767E+02  0.13007697585E+03  0.14680775520E+03  0.00000000000E+00 0. -1.
         21    1    1    2  504  505 -0.43958749403E+02 -0.34751951013E+02 -0.44942358750E+02  0.71832342008E+02  0.00000000000E+00 0.  1.
         21    1    1    2  505  501 -0.11329245266E+03 -0.13853203688E+02  0.12147261485E+03  0.16668139440E+03  0.00000000000E+00 0.  1.
          2    1    1    2  501    0  0.10187808784E+03  0.90284499333E+01  0.56738159580E+03  0.57652626388E+03  0.00000000000E+00 0. -1.
<scales pt_clust_3="54.89260" pt_clust_4="56.03633" pt_clust_5="14000.00000" pt_clust_6="104.26388"></scales>
<clustering>
<clus scale="   56.036">  2  4  1 -1</clus>
<clus scale="   54.893">  2  3  1 -1</clus>
<clus scale="  104.264">  1  6  2 -1</clus>
<clus scale="   56.036">  2  3  1 -1</clus>
</clustering>
</event>
<event>
 6    0  0.1622933E+002  0.1136121E+03  0.7546771E-02  0.1254023E+00
         21   -1    0    0  505  502  0.00000000000E+00  0.00000000000E+00  0.23421499799E+03  0.23421499799E+03  0.00000000000E+00 0. -1.
          2   -1    0    0  504    0 -0.00000000000E+00 -0.00000000000E+00 -0.24083958829E+04  0.24083958829E+04  0.00000000000E+00 0.  1.
         21    1    1    2  503  502 -0.68197103371E+01 -0.73254372418E+02 -0.22836482343E+03  0.23992332964E+03  0.00000000000E+00 0.  1.
         21    1    1    2  504  503 -0.32220399202E+02 -0.23752858429E+01 -0.64776541459E+03  0.64857060406E+03  0.00000000000E+00 0.  1.
         21    1    1    2  505  501  0.49827813628E+02  0.10522573538E+03  0.21299721757E+03  0.24274076932E+03  0.00000000000E+00 0. -1.
          2    1    1    2  501    0 -0.10787704088E+02 -0.29596077124E+02 -0.15110478645E+04  0.15113761779E+04  0.00000000000E+00 0.  1.
<scales pt_clust_3="14000.00000" pt_clust_4="46.53499" pt_clust_5="113.61208" pt_clust_6="31.50083"></scales>
<clustering>
<clus scale="   31.501">  2  6  1 -1</clus>
<clus scale="   46.535">  2  4  1 -1</clus>
<clus scale="  113.612">  1  5  2 -1</clus>
<clus scale="  113.612">  1  3  2 -1</clus>
</clustering>
</event>
<event>
 6    0  0.1622933E+002  0.8605541E+02  0.7546771E-02  0.1312695E+00
         21   -1    0    0  505  502  0.00000000000E+00  0.00000000000E+00  0.11076373548E+03  0.11076373548E+03  0.00000000000E+00 0. -1.
          2   -1    0    0  503    0 -0.00000000000E+00 -0.00000000000E+00 -0.55661736248E+03  0.55661736248E+03  0.00000000000E+00 0. -1.
         21    1    1    2  503  504 -0.21684865328E+02 -0.25245188103E+02 -0.11952417694E+03  0.12407087402E+03  0.00000000000E+00 0. -1.
         21    1    1    2  504  502 -0.56144585835E+02  0.11313780063E+02 -0.33878771321E+03  0.34359471876E+03  0.00000000000E+00 0. -1.
         21    1    1    2  505  501  0.74537573705E+02 -0.66257553886E+02  0.49482813992E+02  0.11133041912E+03  0.00000000000E+00 0. -1.
          2    1    1    2  501    0  0.32918774572E+01  0.80188961925E+02 -0.37024550839E+02  0.88385086053E+02  0.00000000000E+00 0. -1.
<scales pt_clust_3="33.27992" pt_clust_4="73.65170" pt_clust_5="14000.00000" pt_clust_6="86.05541"></scales>
<clustering>
<clus scale="   33.280">  2  3  1 -1</clus>
<clus scale="   73.652">  2  4  1 -1</clus>
<clus scale="   86.055">  2  6  1 -1</clus>
<clus scale="   86.055">  1  3  2 -1</clus>
</clustering>
</event>
<event>
 6    0  0.1622933E+002  0.1683038E+03  0.7546771E-02  0.1179628E+00
          1   -1    0    0  503    0 -0.00000000000E+00  0.00000000000E+00  0.42363694212E+03  0.42363694212E+03  0.00000000000E+00 0.  1.
         21   -1    0    0  505  502  0.00000000000E+00 -0.00000000000E+00 -0.33194538903E+03  0.33194538903E+03  0.00000000000E+00 0.  1.
         21    1    1    2  503  504  0.66340001850E+01 -0.69055575758E+02  0.18205085797E+03  0.19482093674E+03  0.00000000000E+00 0.  1.
         21    1    1    2  504  502 -0.10520130071E+03 -0.10778755898E+03 -0.25181982671E+03  0.29342579414E+03  0.00000000000E+00 0.  1.
         21    1    1    2  505  501  0.92546434712E+01  0.54847954710E+02  0.74312002319E+02  0.92823597486E+02  0.00000000000E+00 0. -1.
          1    1    1    2  501    0  0.89312657056E+02  0.12199518003E+03  0.87148519511E+02  0.17451200278E+03  0.00000000000E+00 0.  1.
<scales pt_clust_3="69.37350" pt_clust_4="154.64914" pt_clust_5="40.27832" pt_clust_6="40.27832"></scales>
<clustering>
<clus scale="   40.278">  5  6 -1 -1</clus>
<clus scale="   69.373">  1  3  2 -1</clus>
<clus scale="  154.649">  2  4  1 -1</clus>
<clus scale="  154.649">  2  3  1 -1</clus>
</clustering>
</event>
<event>
 6    0  0.1622933E+002  0.2380178E+03  0.7546771E-02  0.1121120E+00
         -1   -1    0    0    0  501 -0.00000000000E+00  0.00000000000E+00  0.17700187982E+04  0.17700187982E+04  0.00000000000E+00 0. -1.
         21   -1    0    0  504  502  0.00000000000E+00 -0.00000000000E+00 -0.40681888681E+03  0.40681888681E+03  0.00000000000E+00 0. -1.
         21    1    1    2  503  501 -0.37276031306E+02  0.16843370997E+01  0.62360967365E+02  0.72672069958E+02  0.00000000000E+00 0.  1.
         21    1    1    2  504  503 -0.24270855363E+03  0.54200971443E+02 -0.34436989152E+03  0.42477736462E+03  0.00000000000E+00 0. -1.
         21    1    1    2  505  502  0.13143344219E+03 -0.44480145718E+02  0.36407234422E+03  0.38961763938E+03  0.00000000000E+00 0. -1.
         -1    1    1    2    0  505  0.14855114275E+03 -0.11405162824E+02  0.12811364913E+04  0.12897706110E+04  0.00000000000E+00 0. -1.
<scales pt_clust_3="37.31407" pt_clust_4="238.01783" pt_clust_5="14000.00000" pt_clust_6="120.83199"></scales>
<clustering>
<clus scale="   37.314">  1  3  2 -1</clus>
<clus scale="  120.832">  1  6  2 -1</clus>
<clus scale="  238.018">  2  4  1 -1</clus>
<clus scale="  238.018">  2  3  1 -1</clus>
</clustering>
</event>
<event>
 6    0  0.1622933E+002  0.1234689E+03  0.7546771E-02  0.1237482E+00
         21   -1    0    0  505  502  0.00000000000E+00  0.00000000000E+00  0.58297901684E+02  0.58297901684E+02  0.00000000000E+00 0.  1.
          1   -1    0    0  504    0 -0.00000000000E+00 -0.00000000000E+00 -0.14855931991E+04  0.14855931991E+04  0.00000000000E+00 0. -1.
         21    1    1    2  503  502 -0.11203389233E+03 -0.45709757408E+02 -0.15312320804E+02  0.12196492168E+03  0.00000000000E+00 0.  1.
         21    1    1    2  504  503  0.41702598735E+02  0.57326668507E+02 -0.36542872818E+03  0.37224133172E+03  0.00000000000E+00 0. -1.
         21    1    1    2  505  501  0.24058657700E+02 -0.22889452487E+02 -0.39635424433E+03  0.39774292331E+03  0.00000000000E+00 0. -1.
          1    1    1    2  501    0  0.46272635894E+02  0.11272541388E+02 -0.65020000412E+03  0.65194192409E+03  0.00000000000E+00 0. -1.
<scales pt_clust_3="117.31808" pt_clust_4="70.89043" pt_clust_5="32.13518" pt_clust_6="32.13518"></scales>
<clustering>
<clus scale="   32.135">  5  6 -1 -1</clus>
<clus scale="   70.890">  2  4  1 -1</clus>
<clus scale="  117.318">  1  3  2 -1</clus>
<clus scale="  117.318">  1  3  2 -1</clus>
</clustering>
</event>
<event>
 6    0  0.1622933E+002  0.1354558E+03  0.7546771E-02  0.1219578E+00
         -1   -1    0    0    0  501 -0.00000000000E+00  0.00000000000E+00  0.73597043421E+03  0.73597043421E+03  0.00000000000E+00 0.  1.
         21   -1    0    0  504  502  0.00000000000E+00 -0.00000000000E+00 -0.24244245126E+03  0.24244245126E+03  0.00000000000E+00 0.  1.
         21    1    1    2  503  505  0.33390889158E+02 -0.79006673738E+02  0.12119982045E+03  0.14848030998E+03  0.00000000000E+00 0. -1.
         21    1    1    2  504  503  0.13491935100E+03  0.13128443595E+02 -0.18857761461E+03  0.23224363078E+03  0.00000000000E+00 0.  1.
         21    1    1    2  505  501 -0.29907589452E+02  0.87917844382E+01  0.21440536896E+02  0.37834587388E+02  0.00000000000E+00 0. -1.
         -1    1    1    2    0  502 -0.13840265071E+03  0.57086445705E+02  0.53946524022E+03  0.55985435732E+03  0.00000000000E+00 0.  1.
<scales pt_clust_3="82.13362" pt_clust_4="135.45581" pt_clust_5="31.17306" pt_clust_6="14000.00000"></scales>
<clustering>
<clus scale="   31.173">  1  5  2 -1</clus>
<clus scale="   82.134">  1  3  2 -1</clus>
<clus scale="  135.456">  2  4  1 -1</clus>
<clus scale="  135.456">  2  3  1 -1</clus>
</clustering>
</event>
<event>
 6    0  0.1622933E+002  0.2290400E+03  0.7546771E-02  0.1127317E+00
          2   -1    0    0  504    0 -0.00000000000E+00  0.00000000000E+00  0.66024649517E+03  0.66024649517E+03  0.00000000000E+00 0.  1.
         21   -1    0    0  505  502  0.00000000000E+00 -0.00000000000E+00 -0.80164059966E+03  0.80164059966E+03  0.00000000000E+00 0.  1.
         21    1    1    2  503  502 -0.11462306495E+03  0.74875989354E+02  0.22271596084E+03  0.26143308898E+03  0.00000000000E+00 0.  1.
         21    1    1    2  504  503 -0.17371589107E+02 -0.54000872127E+02  0.33257487431E+02  0.65756572058E+02  0.00000000000E+00 0. -1.
         21    1    1    2  505  501  0.21834422663E+01 -0.23003474982E+03 -0.70448798854E+03  0.74109653861E+03  0.00000000000E+00 0.  1.
          2    1    1    2  501    0  0.12981121179E+03  0.20915963260E+03  0.30712043577E+03  0.39360089518E+03  0.00000000000E+00 0.  1.
<scales pt_clust_3="132.75383" pt_clust_4="56.72624" pt_clust_5="14000.00000" pt_clust_6="229.03999"></scales>
<clustering>
<clus scale="   56.726">  1  4  2 -1</clus>
<clus scale="  132.754">  1  3  2 -1</clus>
<clus scale="  229.040">  1  6  2 -1</clus>
<clus scale="  229.040">  2  3  1 -1</clus>
</clustering>
</event>
<event>
 6    0  0.1622933E+002  0.7549468E+02  0.7546771E-02  0.1342346E+00
          2   -1    0    0  504    0 -0.00000000000E+00  0.00000000000E+00  0.17544639935E+04  0.17544639935E+04  0.00000000000E+00 0.  1.
         21   -1    0    0  505  502  0.00000000000E+00 -0.00000000000E+00 -0.32835487503E+02  0.32835487503E+02  0.00000000000E+00 0.  1.
         21    1    1    2  503  502 -0.36060142589E+02 -0.90456534913E+02  0.29420035090E+03  0.30989766869E+03  0.00000000000E+00 0.  1.
         21    1    1    2  504  503 -0.11627578524E+01  0.69149497250E+02  0.28530609172E+03  0.29356868183E+03  0.00000000000E+00 0.  1.
         21    1    1    2  505  501 -0.10331381147E+02  0.41695040676E+02  0.24909833984E+01  0.43028116990E+02  0.00000000000E+00 0.  1.
          2    1    1    2  501    0  0.47554281588E+02 -0.20388003014E+02  0.11396310800E+04  0.11408050135E+04  0.00000000000E+00 0.  1.
<scales pt_clust_3="75.49468" pt_clust_4="14000.00000" pt_clust_5="42.95595" pt_clust_6="50.55493"></scales>
<clustering>
<clus scale="   42.956">  2  5  1 -1</clus>
<clus scale="   50.555">  1  6  2 -1</clus>
<clus scale="   75.495">  2  3  1 -1</clus>
<clus scale="   42.956">  2  3  1 -1</clus>
</clustering>
</event>
<event>
 6    0  0.1622933E+002  0.1819244E+03  0.7546771E-02  0.1165954E+00
         21   -1    0    0  501  502  0.00000000000E+00  0.00000000000E+00  0.25108354803E+02  0.25108354803E+02  0.00000000000E+00 0.  1.
          1   -1    0    0  505    0 -0.00000000000E+00 -0.00000000000E+00 -0.25375518319E+04  0.25375518319E+04  0.00000000000E+00 0.  1.
         21    1    1    2  503  504 -0.22047500814E+02  0.43119858003E+02 -0.27486055965E+03  0.27909450316E+03  0.00000000000E+00 0. -1.
         21    1    1    2  504  502  0.17202983999E+03 -0.63255775548E+02 -0.56178898581E+03  0.59093351874E+03  0.00000000000E+00 0.  1.
         21    1    1    2  505  503  0.31760231832E+02 -0.17143084608E+00 -0.64220725462E+03  0.64299214583E+03  0.00000000000E+00 0.  1.
          1    1    1    2  501    0 -0.18174257101E+03  0.20307348391E+02 -0.10335866770E+04  0.10496400190E+04  0.00000000000E+00 0.  1.
<scales pt_clust_3="46.47692" pt_clust_4="14000.00000" pt_clust_5="31.76069" pt_clust_6="181.92438"></scales>
<clustering>
<clus scale="   31.761">  2  5  1 -1</clus>
<clus scale="   46.477">  2  3  1 -1</clus>
<clus scale="  181.924">  2  6  1 -1</clus>
<clus scale="  181.924">  1  3  2 -1</clus>
</clustering>
</event>
<event>
 6    0  0.1622933E+002  0.1789183E+03  0.7546771E-02  0.1168854E+00
         21   -1    0    0  503  502  0.00000000000E+00  0.00000000000E+00  0.20953868473E+03  0.20953868473E+03  0.00000000000E+00 0. -1.
          2   -1    0    0  505    0 -0.00000000000E+00 -0.00000000000E+00 -0.68123818987E+03  0.68123818987E+03  0.00000000000E+00 0. -1.
         21    1    1    2  503  504  0.31432842828E+02 -0.72849676276E+02  0.12242057172E+03  0.14588315640E+03  0.00000000000E+00 0. -1.
         21    1    1    2  504  501  0.27245315459E+02 -0.80654201515E+02  0.31043312587E+02  0.90615090867E+02  0.00000000000E+00 0. -1.
         21    1    1    2  505  502  0.21006151572E+02  0.26290505826E+02 -0.53236572913E+02  0.62980804980E+02  0.00000000000E+00 0.  1.
          2    1    1    2  501    0 -0.79684309859E+02  0.12721337196E+03 -0.57192681654E+03  0.59129782235E+03  0.00000000000E+00 0. -1.
<scales pt_clust_3="70.99550" pt_clust_4="70.99550" pt_clust_5="33.65188" pt_clust_6="163.21174"></scales>
<clustering>
<clus scale="   33.652">  2  5  1 -1</clus>
<clus scale="   70.995">  3  4 -1 -1</clus>
<clus scale="  163.212">  2  6  1 -1</clus>
<clus scale="  178.918">  1  3  2 -1</clus>
</clustering>
</event>
<event>
 6    0  0.1622933E+002  0.1895756E+03  0.7546771E-02  0.1158845E+00
         21   -1    0    0  504  502  0.00000000000E+00  0.00000000000E+00  0.11024129485E+04  0.11024129485E+04  0.00000000000E+00 0. -1.
          1   -1    0    0  503    0 -0.00000000000E+00 -0.00000000000E+00 -0.41193297156E+03  0.41193297156E+03  0.00000000000E+00 0. -1.
         21    1    1    2  503  502 -0.97564428607E+02 -0.32854909081E+02  0.97062433231E+03  0.97606857200E+03  0.00000000000E+00 0. -1.
         21    1    1    2  504  505 -0.74025657221E+02  0.94901908205E+02  0.65232112545E+02  0.13689922796E+03  0.00000000000E+00 0. -1.
         21    1    1    2  505  501  0.31316134892E+02 -0.52124941832E+02 -0.74428129931E+02  0.96110646604E+02  0.00000000000E+00 0. -1.
          1    1    1    2  501    0  0.14027395093E+03 -0.99220572923E+01 -0.27094833797E+03  0.30526747351E+03  0.00000000000E+00 0. -1.
<scales pt_clust_3="102.94786" pt_clust_4="165.56695" pt_clust_5="60.72091" pt_clust_6="60.72091"></scales>
<clustering>
<clus scale="   60.721">  5  6 -1 -1</clus>
<clus scale="  102.948">  1  3  2 -1</clus>
<clus scale="  165.567">  1  4  2 -1</clus>
<clus scale="  102.948">  1  3  2 -1</clus>
</clustering>
</event>
<event>
 6    0  0.1622933E+002  0.9066727E+02  0.7546771E-02  0.1301244E+00
         21   -1    0    0  505  502  0.00000000000E+00  0.00000000000E+00  0.29155178298E+03  0.29155178298E+03  0.00000000000E+00 0. -1.
          2   -1    0    0  503    0 -0.00000000000E+00 -0.00000000000E+00 -0.10902512405E+04  0.10902512405E+04  0.00000000000E+00 0.  1.
         21    1    1    2  503  504  0.54211721486E+02 -0.40384588534E+02 -0.15657940525E+03  0.17054892520E+03  0.00000000000E+00 0.  1.
         21    1    1    2  504  502  0.39237321222E+01  0.92171191782E+02 -0.14480489435E+03  0.17169560768E+03  0.00000000000E+00 0.  1.
         21    1    1    2  505  501 -0.85393024701E+02  0.31541118765E+02  0.26088253116E+03  0.27630871486E+03  0.00000000000E+00 0. -1.
          2    1    1    2  501    0  0.27257571093E+02 -0.83327722012E+02 -0.75819768911E+03  0.76324977576E+03  0.00000000000E+00 0.  1.
<scales pt_clust_3="67.60049" pt_clust_4="86.28748" pt_clust_5="90.66727" pt_clust_6="14000.00000"></scales>
<clustering>
<clus scale="   67.600">  2  3  1 -1</clus>
<clus scale="   86.287">  2  4  1 -1</clus>
<clus scale="   90.667">  1  5  2 -1</clus>
<clus scale="   90.667">  1  3  2 -1</clus>
</clustering>
</event>
<event>
 6    0  0.1622933E+002  0.1381039E+03  0.7546771E-02  0.1215903E+00
         -2   -1    0    0    0  501 -0.00000000000E+00  0.00000000000E+00  0.40109520878E+03  0.40109520878E+03  0.00000000000E+00 0. -1.
         21   -1    0    0  503  502  0.00000000000E+00 -0.00000000000E+00 -0.10706030043E+04  0.10706030043E+04  0.00000000000E+00 0. -1.
         21    1    1    2  503  505 -0.27258422066E+02 -0.15637051764E+02 -0.92232022676E+03  0.92285542727E+03  0.00000000000E+00 0. -1.
         21    1    1    2  504  502 -0.24312361860E+02 -0.40703690441E+02  0.94967226371E+02  0.10614450263E+03  0.00000000000E+00 0. -1.
         21    1    1    2  505  501  0.13214390627E+03  0.87806725456E+02 -0.88456148180E+02  0.18164945128E+03  0.00000000000E+00 0. -1.
         -2    1    1    2    0  504 -0.80573122347E+02 -0.31465983251E+02  0.24630135302E+03  0.26104883192E+03  0.00000000000E+00 0. -1.
<scales pt_clust_3="31.42513" pt_clust_4="34.45402" pt_clust_5="130.05927" pt_clust_6="34.45402"></scales>
<clustering>
<clus scale="   31.425">  2  3  1 -1</clus>
<clus scale="   34.454">  4  6 -1 -1</clus>
<clus scale="  130.059">  2  5  1 -1</clus>
<clus scale="   31.425">  2  3  1 -1</clus>
</clustering>
</event>
<event>
 6    0  0.1622933E+002  0.9876009E+02  0.7546771E-02  0.1282925E+00
         21   -1    0    0  504  502  0.00000000000E+00  0.00000000000E+00  0.14256330058E+03  0.14256330058E+03  0.00000000000E+00 0.  1.
          1   -1    0    0  503    0 -0.00000000000E+00 -0.00000000000E+00 -0.86405319774E+03  0.86405319774E+03  0.00000000000E+00 0.  1.
         21    1    1    2  503  505 -0.31967070434E+02 -0.87207756845E+02 -0.36016425311E+03  0.37194808195E+03  0.00000000000E+00 0.  1.
         21    1    1    2  504  501 -0.17365419727E+02  0.26389785874E+02  0.11826283174E+03  0.12240946031E+03  0.00000000000E+00 0.  1.
         21    1    1    2  505  502  0.44134454015E+02 -0.51313416091E+02 -0.18771572373E+03  0.19954475597E+03  0.00000000000E+00 0.  1.
          1    1    1    2  501    0  0.51980361459E+01  0.11213138706E+03 -0.29187275206E+03  0.31271420009E+03  0.00000000000E+00 0.  1.
<scales pt_clust_3="14000.00000" pt_clust_4="31.59080" pt_clust_5="59.35521" pt_clust_6="98.76009"></scales>
<clustering>
<clus scale="   31.591">  1  4  2 -1</clus>
<clus scale="   59.355">  1  5  2 -1</clus>
<clus scale="   98.760">  1  6  2 -1</clus>
<clus scale="   31.591">  1  3  2 -1</clus>
</clustering>
</event>
<event>
 6    0  0.1622933E+002  0.8568955E+02  0.7546771E-02  0.1313639E+00
          2   -1    0    0  505    0 -0.00000000000E+00  0.00000000000E+00  0.11356455651E+04  0.11356455651E+04  0.00000000000E+00 0. -1.
         21   -1    0    0  504  502  0.00000000000E+00 -0.00000000000E+00 -0.27730703201E+02  0.27730703201E+02  0.00000000000E+00 0. -1.
         21    1    1    2  503  502 -0.28467517691E+01 -0.31916138999E+02  0.76824487244E+02  0.83239087961E+02  0.00000000000E+00 0. -1.
         21    1    1    2  504  501  0.63941642940E+02  0.78510660405E+02  0.11465355132E+03  0.15296370266E+03  0.00000000000E+00 0. -1.
         21    1    1    2  505  503 -0.92375550200E+02 -0.50013708620E+02  0.78633044616E+03  0.79331594203E+03  0.00000000000E+00 0. -1.
          2    1    1    2  501    0  0.31280659029E+02  0.34191872140E+01  0.13010637720E+03  0.13385753568E+03  0.00000000000E+00 0. -1.
<scales pt_clust_3="31.64546" pt_clust_4="85.68955" pt_clust_5="14000.00000" pt_clust_6="31.46697"></scales>
<clustering>
<clus scale="   31.467">  1  6  2 -1</clus>
<clus scale="   31.645">  2  3  1 -1</clus>
<clus scale="   85.690">  2  4  1 -1</clus>
<clus scale="   31.645">  2  3  1 -1</clus>
</clustering>
</event>
<event>
 6    0  0.1622933E+002  0.8002042E+02  0.7546771E-02  0.1328993E+00
          2   -1    0    0  504    0 -0.00000000000E+00  0.00000000000E+00  0.47519304090E+03  0.47519304090E+03  0.00000000000E+00 0. -1.
         21   -1    0    0  503  502  0.00000000000E+00 -0.00000000000E+00 -0.16609905501E+04  0.16609905501E+04  0.00000000000E+00 0.  1.
         21    1    1    2  503  505  0.69837607133E+02  0.39063578747E+02 -0.16309368333E+04  0.16328987135E+04  0.00000000000E+00 0.  1.
         21    1    1    2  504  502 -0.41752093043E+02 -0.10544402313E+02  0.17110897656E+02  0.46337938152E+02  0.00000000000E+00 0.  1.
         21    1    1    2  505  501 -0.85461663084E+02 -0.11081964745E+02  0.15437191424E+03  0.17679704099E+03  0.00000000000E+00 0. -1.
          2    1    1    2  501    0  0.57376148994E+02 -0.17437211689E+02  0.27365651222E+03  0.28014989827E+03  0.00000000000E+00 0. -1.
<scales pt_clust_3="80.02042" pt_clust_4="43.06300" pt_clust_5="14000.00000" pt_clust_6="39.45989"></scales>
<clustering>
<clus scale="   43.063">  1  4  2 -1</clus>
<clus scale="   39.460">  1  6  2 -1</clus>
<clus scale="   80.020">  2  3  1 -1</clus>
<clus scale="   80.020">  2  3  1 -1</clus>
</clustering>
</event>
<event>
 6    0  0.1622933E+002  0.5411595E+02  0.7546771E-02  0.1424326E+00
         21   -1    0    0  501  502  0.00000000000E+00  0.00000000000E+00  0.86339750363E+02  0.86339750363E+02  0.00000000000E+00 0.  1.
          1   -1    0    0  504    0 -0.00000000000E+00 -0.00000000000E+00 -0.32388983207E+04  0.32388983207E+04  0.00000000000E+00 0. -1.
         21    1    1    2  503  502 -0.83002025622E+01  0.52351239315E+02  0.74728807023E+02  0.91618449121E+02  0.00000000000E+00 0.  1.
         21    1    1    2  504  505 -0.10010442019E+02  0.47650277378E+02 -0.77980986416E+03  0.78132847262E+03  0.00000000000E+00 0.  1.
         21    1    1    2  505  503  0.58583577940E+02 -0.24634544334E+02 -0.76051434768E+03  0.76316509971E+03  0.00000000000E+00 0. -1.
          1    1    1    2  501    0 -0.40272933359E+02 -0.75366972359E+02 -0.16869631655E+04  0.16891260496E+04  0.00000000000E+00 0. -1.
<scales pt_clust_3="53.17220" pt_clust_4="48.69043" pt_clust_5="14000.00000" pt_clust_6="54.11595"></scales>
<clustering>
<clus scale="   48.690">  2  4  1 -1</clus>
<clus scale="   53.172">  1  3  2 -1</clus>
<clus scale="   54.116">  2  6  1 -1</clus>
<clus scale="   53.172">  1  3  2 -1</clus>
</clustering>
</event>
<event>
 6    0  0.1622933E+002  0.1108213E+03  0.7546771E-02  0.1259057E+00
         21   -1    0    0  503  502  0.00000000000E+00  0.00000000000E+00  0.31080542283E+03  0.31080542283E+03  0.00000000000E+00 0.  1.
          1   -1    0    0  504    0 -0.00000000000E+00 -0.00000000000E+00 -0.15513286206E+04  0.15513286206E+04  0.00000000000E+00 0. -1.
         21    1    1    2  503  501 -0.36837085362E+02 -0.34369210324E+02  0.33608546470E+02  0.60561934183E+02  0.00000000000E+00 0.  1.
         21    1    1    2  504  505  0.42360416683E+02  0.12932238251E+03 -0.69649625813E+03  0.70966592218E+03  0.00000000000E+00 0. -1.
         21    1    1    2  505  502 -0.29795783514E+02  0.66452315140E+01  0.25294621156E+03  0.25478173750E+03  0.00000000000E+00 0.  1.
          1    1    1    2  501    0  0.24272452193E+02 -0.10159840370E+03 -0.83058169764E+03  0.83712444955E+03  0.00000000000E+00 0. -1.
<scales pt_clust_3="67.91868" pt_clust_4="110.82126" pt_clust_5="30.52782" pt_clust_6="14000.00000"></scales>
<clustering>
<clus scale="   30.528">  1  5  2 -1</clus>
<clus scale="   67.919">  1  3  2 -1</clus>
<clus scale="  110.821">  1  4  2 -1</clus>
<clus scale="   30.528">  1  3  2 -1</clus>
</clustering>
</event>
<event>
 6    0  0.1622933E+002  0.1575286E+03  0.7546771E-02  0.1191515E+00
         -4   -1    0    0    0  501 -0.00000000000E+00  0.00000000000E+00  0.77359312578E+03  0.77359312578E+03  0.00000000000E+00 0. -1.
         21   -1    0    0  503  502  0.00000000000E+00 -0.00000000000E+00 -0.24798812662E+03  0.24798812662E+03  0.00000000000E+00 0. -1.
         21    1    1    2  503  501  0.37159773815E+02  0.20441017542E+01  0.23177193321E+02  0.43843008931E+02  0.00000000000E+00 0.  1.
         21    1    1    2  504  502  0.31307850196E+02 -0.14070717004E+03 -0.20514192808E+03  0.25072275493E+03  0.00000000000E+00 0. -1.
         21    1    1    2  505  504 -0.38574797642E+02  0.24629106049E+02  0.26962326257E+03  0.27348000219E+03  0.00000000000E+00 0. -1.
         -4    1    1    2    0  505 -0.29892826369E+02  0.11403396223E+03  0.43794647135E+03  0.45353548635E+03  0.00000000000E+00 0. -1.
<scales pt_clust_3="37.21595" pt_clust_4="144.33967" pt_clust_5="35.02054" pt_clust_6="35.02054"></scales>
<clustering>
<clus scale="   37.216">  1  3  2 -1</clus>
<clus scale="   35.021">  5  6 -1 -1</clus>
<clus scale="  144.340">  2  4  1 -1</clus>
<clus scale="  144.340">  2  3  1 -1</clus>
</clustering>
</event>
<event>
 6    0  0.1622933E+002  0.1512954E+03  0.7546771E-02  0.1198890E+00
         -1   -1    0    0    0  501 -0.00000000000E+00  0.00000000000E+00  0.47245008268E+03  0.47245008268E+03  0.00000000000E+00 0.  1.
         21   -1    0    0  503  502  0.00000000000E+00 -0.00000000000E+00 -0.56408620475E+03  0.56408620475E+03  0.00000000000E+00 0. -1.
         21    1    1    2  503  504  0.37212787320E+02  0.40423123605E+02  0.28736403455E+02  0.62004849372E+02  0.00000000000E+00 0.  1.
         21    1    1    2  504  501  0.49573896108E+01  0.68235409094E+02  0.66948386792E+02  0.95722167025E+02  0.00000000000E+00 0.  1.
         21    1    1    2  505  502  0.92513491772E+01  0.43606267273E+02 -0.51337072486E+03  0.51530243077E+03  0.00000000000E+00 0. -1.
         -1    1    1    2    0  505 -0.51421526108E+02 -0.15226479997E+03  0.32604981255E+03  0.36350684027E+03  0.00000000000E+00 0.  1.
<scales pt_clust_3="41.42940" pt_clust_4="41.42940" pt_clust_5="44.57683" pt_clust_6="144.05928"></scales>
<clustering>
<clus scale="   41.429">  3  4 -1 -1</clus>
<clus scale="   44.577">  2  5  1 -1</clus>
<clus scale="  144.059">  1  6  2 -1</clus>
<clus scale="   44.577">  2  3  1 -1</clus>
</clustering>
</event>
<event>
 6    0  0.1622933E+002  0.1105830E+03  0.7546771E-02  0.1259494E+00
          1   -1    0    0  505    0 -0.00000000000E+00  0.00000000000E+00  0.76178862355E+03  0.76178862355E+03  0.00000000000E+00 0.  1.
         21   -1    0    0  504  502  0.00000000000E+00 -0.00000000000E+00 -0.78037296687E+02  0.78037296687E+02  0.00000000000E+00 0. -1.
         21    1    1    2  503  502  0.62172554685E+02 -0.71304167689E+02 -0.34362588806E+02  0.10065037703E+03  0.00000000000E+00 0. -1.
         21    1    1    2  504  501 -0.33700889234E+02  0.99034027346E+01  0.92369142536E+02  0.98822496496E+02  0.00000000000E+00 0.  1.
         21    1    1    2  505  503  0.15131730196E+02 -0.28787820763E+02  0.22181930310E+03  0.22419079177E+03  0.00000000000E+00 0.  1.
          1    1    1    2  501    0 -0.43603395647E+02  0.90188585718E+02  0.40392547003E+03  0.41616225495E+03  0.00000000000E+00 0.  1.
<scales pt_clust_3="96.55054" pt_clust_4="31.92448" pt_clust_5="32.52242" pt_clust_6="31.92448"></scales>
<clustering>
<clus scale="   31.924">  4  6 -1 -1</clus>
<clus scale="   32.522">  1  5  2 -1</clus>
<clus scale="   96.551">  2  3  1 -1</clus>
<clus scale="   96.551">  2  3  1 -1</clus>
</clustering>
</event>
<event>
 6    0  0.1622933E+002  0.9039063E+02  0.7546771E-02  0.1301908E+00
         21   -1    0    0  501  502  0.00000000000E+00  0.00000000000E+00  0.13280760289E+04  0.13280760289E+04  0.00000000000E+00 0.  1.
          2   -1    0    0  503    0 -0.00000000000E+00 -0.00000000000E+00 -0.11427619956E+04  0.11427619956E+04  0.00000000000E+00 0.  1.
         21    1    1    2  503  504  0.46746886225E+02  0.35183624397E+02 -0.34345097416E+03  0.34839880949E+03  0.00000000000E+00 0. -1.
         21    1    1    2  504  505 -0.79092271583E+02  0.42141690762E+02 -0.25411125802E+03  0.26945137034E+03  0.00000000000E+00 0.  1.
         21    1    1    2  505  502  0.66705651614E+02 -0.61029923754E+02  0.13157029924E+04  0.13188057702E+04  0.00000000000E+00 0.  1.
          2    1    1    2  501    0 -0.34360266256E+02 -0.16295391405E+02 -0.53282672690E+03  0.53418207437E+03  0.00000000000E+00 0.  1.
<scales pt_clust_3="37.60764" pt_clust_4="90.39063" pt_clust_5="14000.00000" pt_clust_6="38.02851"></scales>
<clustering>
<clus scale="   38.029">  2  6  1 -1</clus>
<clus scale="   37.608">  2  3  1 -1</clus>
<clus scale="   90.391">  2  4  1 -1</clus>
<clus scale="   90.391">  1  3  2 -1</clus>
</clustering>
</event>
<event>
 6    0  0.1622933E+002  0.9036368E+02  0.7546771E-02  0.1301973E+00
         21   -1    0    0  505  502  0.00000000000E+00  0.00000000000E+00  0.11255665451E+04  0.11255665451E+04  0.00000000000E+00 0. -1.
         -1   -1    0    0    0  501 -0.00000000000E+00 -0.00000000000E+00 -0.24479011617E+03  0.24479011617E+03  0.00000000000E+00 0.  1.
         21    1    1    2  503  501  0.68086911866E+01 -0.11231101719E+03  0.72581276229E+02  0.13389609597E+03  0.00000000000E+00 0. -1.
         21    1    1    2  504  502 -0.11963641436E+02  0.53662728488E+02  0.83585183925E+02  0.10004648978E+03  0.00000000000E+00 0. -1.
         21    1    1    2  505  503  0.80207789150E+02  0.16351749781E+02  0.91960224218E+03  0.92323829697E+03  0.00000000000E+00 0. -1.
         -1    1    1    2    0  504 -0.75052838901E+02  0.42296538922E+02 -0.19499227345E+03  0.21317577850E+03  0.00000000000E+00 0.  1.
<scales pt_clust_3="90.36368" pt_clust_4="54.98015" pt_clust_5="14000.00000" pt_clust_6="86.47473"></scales>
<clustering>
<clus scale="   54.980">  1  4  2 -1</clus>
<clus scale="   86.475">  2  6  1 -1</clus>
<clus scale="   90.364">  2  3  1 -1</clus>
<clus scale="   54.980">  1  3  2 -1</clus>
</clustering>
</event>
<event>
 6    0  0.1622933E+002  0.6760158E+02  0.7546771E-02  0.1368444E+00
         21   -1    0    0  503  502  0.00000000000E+00  0.00000000000E+00  0.30137483236E+03  0.30137483236E+03  0.00000000000E+00 0.  1.
          1   -1    0    0  505    0 -0.00000000000E+00 -0.00000000000E+00 -0.55671679296E+03  0.55671679296E+03  0.00000000000E+00 0.  1.
         21    1    1    2  503  501  0.71591449332E+01 -0.67514532330E+02  0.26850120792E+03  0.27695191656E+03  0.00000000000E+00 0.  1.
         21    1    1    2  504  502  0.89213927201E+02  0.46435930158E+02 -0.33997230697E+03  0.35453714886E+03  0.00000000000E+00 0.  1.
         21    1    1    2  505  504 -0.49764868858E+02 -0.32683928132E+02 -0.65699632369E+02  0.88663538301E+02  0.00000000000E+00 0. -1.
          1    1    1    2  501    0 -0.46608203276E+02  0.53762530304E+02 -0.11817122918E+03  0.13793902161E+03  0.00000000000E+00 0.  1.
<scales pt_clust_3="14000.00000" pt_clust_4="57.84589" pt_clust_5="59.53807" pt_clust_6="67.60158"></scales>
<clustering>
<clus scale="   59.538">  2  5  1 -1</clus>
<clus scale="   57.846">  2  4  1 -1</clus>
<clus scale="   67.602">  2  6  1 -1</clus>
<clus scale="   67.602">  1  3  2 -1</clus>
</clustering>
</event>
<event>
 6    0  0.1622933E+002  0.1922701E+03  0.7546771E-02  0.1156430E+00
         -2   -1    0    0    0  501 -0.00000000000E+00  0.00000000000E+00  0.35588513685E+03  0.35588513685E+03  0.00000000000E+00 0.  1.
         21   -1    0    0  504  502  0.00000000000E+00 -0.00000000000E+00 -0.13729006247E+04  0.13729006247E+04  0.00000000000E+00 0.  1.
         21    1    1    2  503  505 -0.18578130554E+02  0.10126095182E+03  0.11440847100E+03  0.15390979675E+03  0.00000000000E+00 0.  1.
         21    1    1    2  504  501 -0.35428310841E+02 -0.23141552683E+02  0.29245851838E+01  0.42417565561E+02  0.00000000000E+00 0.  1.
         21    1    1    2  505  502  0.97211961003E+02 -0.15510291594E+03 -0.13169640201E+04  0.13296244996E+04  0.00000000000E+00 0.  1.
         -2    1    1    2    0  503 -0.43205519608E+02  0.76983516802E+02  0.18261547597E+03  0.20283389965E+03  0.00000000000E+00 0.  1.
<scales pt_clust_3="56.43449" pt_clust_4="42.31662" pt_clust_5="183.06623" pt_clust_6="56.43449"></scales>
<clustering>
<clus scale="   42.317">  1  4  2 -1</clus>
<clus scale="   56.434">  3  6 -1 -1</clus>
<clus scale="  183.066">  2  5  1 -1</clus>
<clus scale="  183.066">  2  3  1 -1</clus>
</clustering>
</event>
<event>
 6    0  0.1622933E+002  0.8133051E+02  0.7546771E-02  0.1325317E+00
          2   -1    0    0  505    0 -0.00000000000E+00  0.00000000000E+00  0.13107183472E+04  0.13107183472E+04  0.00000000000E+00 0. -1.
         21   -1    0    0  503  502  0.00000000000E+00 -0.00000000000E+00 -0.20157249949E+02  0.20157249949E+02  0.00000000000E+00 0. -1.
         21    1    1    2  503  501 -0.22195121744E+02  0.42521422267E+02  0.69049299192E+02  0.84074374810E+02  0.00000000000E+00 0. -1.
         21    1    1    2  504  502 -0.16832715342E+02 -0.39676182764E+02  0.64226752333E+02  0.77347369055E+02  0.00000000000E+00 0. -1.
         21    1    1    2  505  504  0.91672714393E+02 -0.34334617869E+02  0.88205552085E+03  0.88747095412E+03  0.00000000000E+00 0. -1.
          2    1    1    2  501    0 -0.52644877307E+02  0.31489378366E+02  0.27522952488E+03  0.28198289916E+03  0.00000000000E+00 0. -1.
<scales pt_clust_3="37.63391" pt_clust_4="43.09919" pt_clust_5="14000.00000" pt_clust_6="81.33051"></scales>
<clustering>
<clus scale="   43.099">  2  4  1 -1</clus>
<clus scale="   37.634">  2  3  1 -1</clus>
<clus scale="   81.331">  2  6  1 -1</clus>
<clus scale="   43.099">  2  3  1 -1</clus>
</clustering>
</event>
<event>
 6    0  0.1622933E+002  0.9145724E+02  0.7546771E-02  0.1299361E+00
          2   -1    0    0  504    0 -0.00000000000E+00  0.00000000000E+00  0.43356036601E+04  0.43356036601E+04  0.00000000000E+00 0. -1.
         21   -1    0    0  501  502  0.00000000000E+00 -0.00000000000E+00 -0.42927414583E+02  0.42927414583E+02  0.00000000000E+00 0.  1.
         21    1    1    2  503  502  0.60355005026E+01  0.91633857988E+02  0.14312735486E+02  0.92941086680E+02  0.00000000000E+00 0.  1.
         21    1    1    2  504  505  0.42649574728E+02  0.21194668556E+01  0.22331648200E+03  0.22736255078E+03  0.00000000000E+00 0. -1.
         21    1    1    2  505  503 -0.75625189875E+02 -0.14740002877E+02  0.20202911077E+04  0.20217597773E+04  0.00000000000E+00 0. -1.
          2    1    1    2  501    0  0.26940114645E+02 -0.79013321967E+02  0.20347559202E+04  0.20364676599E+04  0.00000000000E+00 0. -1.
<scales pt_clust_3="91.45724" pt_clust_4="42.70221" pt_clust_5="56.34469" pt_clust_6="14000.00000"></scales>
<clustering>
<clus scale="   42.702">  1  4  2 -1</clus>
<clus scale="   56.345">  1  5  2 -1</clus>
<clus scale="   91.457">  2  3  1 -1</clus>
<clus scale="   91.457">  2  3  1 -1</clus>
</clustering>
</event>
<event>
 6    0  0.1622933E+002  0.1335156E+03  0.7546771E-02  0.1222331E+00
          2   -1    0    0  505    0 -0.00000000000E+00  0.00000000000E+00  0.21508547728E+04  0.21508547728E+04  0.00000000000E+00 0.  1.
         21   -1    0    0  503  502  0.00000000000E+00 -0.00000000000E+00 -0.13241877012E+03  0.13241877012E+03  0.00000000000E+00 0. -1.
         21    1    1    2  503  501 -0.11368970314E+03  0.42175993203E+02  0.79845911625E+03  0.80761446454E+03  0.00000000000E+00 0.  1.
         21    1    1    2  504  502  0.12198285691E+03 -0.10336064374E+02 -0.84437364985E+02  0.14871556816E+03  0.00000000000E+00 0. -1.
         21    1    1    2  505  504  0.71316494644E+02 -0.89593500827E+02  0.36867186689E+03  0.38604660759E+03  0.00000000000E+00 0.  1.
          2    1    1    2  501    0 -0.79609648416E+02  0.57753571999E+02  0.93574238456E+03  0.94089690267E+03  0.00000000000E+00 0.  1.
<scales pt_clust_3="44.90916" pt_clust_4="123.85403" pt_clust_5="114.51217" pt_clust_6="44.90916"></scales>
<clustering>
<clus scale="   44.909">  3  6 -1 -1</clus>
<clus scale="  114.512">  1  5  2 -1</clus>
<clus scale="  123.854">  2  4  1 -1</clus>
<clus scale="  123.854">  2  3  1 -1</clus>
</clustering>
</event>
<event>
 6    0  0.1622933E+002  0.1768347E+03  0.7546771E-02  0.1170902E+00
          2   -1    0    0  505    0 -0.00000000000E+00  0.00000000000E+00  0.23086504254E+04  0.23086504254E+04  0.00000000000E+00 0.  1.
         21   -1    0    0  504  502  0.00000000000E+00 -0.00000000000E+00 -0.65072333369E+03  0.65072333369E+03  0.00000000000E+00 0. -1.
         21    1    1    2  503  501 -0.73098233717E+02 -0.69019474586E+02  0.93122521350E+03  0.93663623563E+03  0.00000000000E+00 0.  1.
         21    1    1    2  504  503  0.46874845117E+02  0.52903108863E+02 -0.63465930980E+03  0.63858314224E+03  0.00000000000E+00 0. -1.
         21    1    1    2  505  502  0.11584161777E+03  0.71202404834E+02  0.57896282288E+03  0.59471590961E+03  0.00000000000E+00 0. -1.
          2    1    1    2  501    0 -0.89618229175E+02 -0.55086039111E+02  0.78239836515E+03  0.78943847163E+03  0.00000000000E+00 0.  1.
<scales pt_clust_3="30.12042" pt_clust_4="70.68232" pt_clust_5="174.12990" pt_clust_6="30.12042"></scales>
<clustering>
<clus scale="   30.120">  3  6 -1 -1</clus>
<clus scale="   70.682">  2  4  1 -1</clus>
<clus scale="  174.130">  2  5  1 -1</clus>
<clus scale="   70.682">  2  3  1 -1</clus>
</clustering>
</event>
<event>
 6    0  0.1622933E+002  0.1022224E+03  0.7546771E-02  0.1275691E+00
          1   -1    0    0  505    0 -0.00000000000E+00  0.00000000000E+00  0.28080088697E+03  0.28080088697E+03  0.00000000000E+00 0.  1.
         21   -1    0    0  504  502  0.00000000000E+00 -0.00000000000E+00 -0.83858829727E+03  0.83858829727E+03  0.00000000000E+00 0. -1.
         21    1    1    2  503  502 -0.68492350810E+02 -0.71587582294E+02 -0.68289772665E+03  0.69004730934E+03  0.00000000000E+00 0. -1.
         21    1    1    2  504  501  0.82770304784E+02  0.18156333427E+03 -0.20497732327E+01  0.19955041787E+03  0.00000000000E+00 0.  1.
         21    1    1    2  505  503 -0.36357753336E+02 -0.41987985917E+02 -0.25581909067E+02  0.61149908099E+02  0.00000000000E+00 0.  1.
          1    1    1    2  501    0  0.22079799363E+02 -0.67987766055E+02  0.15274199865E+03  0.16864154893E+03  0.00000000000E+00 0.  1.
<scales pt_clust_3="102.22237" pt_clust_4="14000.00000" pt_clust_5="55.54167" pt_clust_6="93.64068"></scales>
<clustering>
<clus scale="   55.542">  1  5  2 -1</clus>
<clus scale="   93.641">  1  6  2 -1</clus>
<clus scale="  102.222">  2  3  1 -1</clus>
<clus scale="  102.222">  2  3  1 -1</clus>
</clustering>
</event>
<event>
 6    0  0.1622933E+002  0.1392641E+03  0.7546771E-02  0.1214323E+00
         -1   -1    0    0    0  501 -0.00000000000E+00  0.00000000000E+00  0.44544609140E+03  0.44544609140E+03  0.00000000000E+00 0. -1.
         21   -1    0    0  504  502  0.00000000000E+00 -0.00000000000E+00 -0.94019823872E+03  0.94019823872E+03  0.00000000000E+00 0. -1.
         21    1    1    2  503  501 -0.31811920979E+02 -0.29631521265E+01  0.18353905026E+03  0.18629911851E+03  0.00000000000E+00 0.  1.
         21    1    1    2  504  503 -0.35881939564E+02 -0.14755862767E+03 -0.12650322073E+03  0.19764646985E+03  0.00000000000E+00 0. -1.
         21    1    1    2  505  502  0.62366405257E+02  0.10786177033E+02 -0.75355632954E+03  0.75620966134E+03  0.00000000000E+00 0. -1.
         -1    1    1    2    0  505  0.53274552868E+01  0.13973560277E+03  0.20176835268E+03  0.24548908042E+03  0.00000000000E+00 0. -1.
<scales pt_clust_3="31.94963" pt_clust_4="139.26412" pt_clust_5="63.13007" pt_clust_6="14000.00000"></scales>
<clustering>
<clus scale="   31.950">  1  3  2 -1</clus>
<clus scale="   63.130">  2  5  1 -1</clus>
<clus scale="  139.264">  2  4  1 -1</clus>
<clus scale="   63.130">  2  3  1 -1</clus>
</clustering>
</event>
<event>
 6    0  0.1622933E+002  0.1003345E+03  0.7546771E-02  0.1279594E+00
         21   -1    0    0  504  502  0.00000000000E+00  0.00000000000E+00  0.44869508408E+02  0.44869508408E+02  0.00000000000E+00 0.  1.
          1   -1    0    0  503    0 -0.00000000000E+00 -0.00000000000E+00 -0.84314348134E+03  0.84314348134E+03  0.00000000000E+00 0. -1.
         21    1    1    2  503  505  0.31551124823E+02 -0.37044537783E+02 -0.19118822567E+03  0.19728332137E+03  0.00000000000E+00 0.  1.
         21    1    1    2  504  501  0.58319168525E+01 -0.10258588292E+03 -0.59316243482E+02  0.11864354752E+03  0.00000000000E+00 0.  1.
         21    1    1    2  505  502  0.16751614615E+02  0.55880029376E+02 -0.12852999037E+03  0.14114939851E+03  0.00000000000E+00 0.  1.
          1    1    1    2  501    0 -0.54134656291E+02  0.83750391323E+02 -0.41923951341E+03  0.43093672235E+03  0.00000000000E+00 0. -1.
<scales pt_clust_3="48.65975" pt_clust_4="14000.00000" pt_clust_5="53.52376" pt_clust_6="100.33452"></scales>
<clustering>
<clus scale="   48.660">  2  3  1 -1</clus>
<clus scale="   53.524">  2  5  1 -1</clus>
<clus scale="  100.335">  2  6  1 -1</clus>
<clus scale="  100.335">  1  3  2 -1</clus>
</clustering>
</event>
<event>
 6    0  0.1622933E+002  0.1284540E+03  0.7546771E-02  0.1229768E+00
         21   -1    0    0  504  502  0.00000000000E+00  0.00000000000E+00  0.18284733799E+03  0.18284733799E+03  0.00000000000E+00 0.  1.
          2   -1    0    0  505    0 -0.00000000000E+00 -0.00000000000E+00 -0.78568150603E+03  0.78568150603E+03  0.00000000000E+00 0.  1.
         21    1    1    2  503  501 -0.43183463382E+02  0.80556848889E+01 -0.14539023433E+03  0.15188161774E+03  0.00000000000E+00 0.  1.
         21    1    1    2  504  503  0.53562185268E+02  0.47206188526E+02  0.13814262104E+03  0.15550149733E+03  0.00000000000E+00 0.  1.
         21    1    1    2  505  502  0.76961632967E+02 -0.47746595435E+02 -0.40556399885E+02  0.99235335925E+02  0.00000000000E+00 0. -1.
          2    1    1    2  501    0 -0.87340354853E+02 -0.75152779799E+01 -0.55503015486E+03  0.56191039302E+03  0.00000000000E+00 0.  1.
<scales pt_clust_3="30.64061" pt_clust_4="71.39560" pt_clust_5="120.94159" pt_clust_6="30.64061"></scales>
<clustering>
<clus scale="   30.641">  3  6 -1 -1</clus>
<clus scale="   71.396">  1  4  2 -1</clus>
<clus scale="  120.942">  1  5  2 -1</clus>
<clus scale="   71.396">  1  3  2 -1</clus>
</clustering>
</event>
<event>
 6    0  0.1622933E+002  0.1149415E+03  0.7546771E-02  0.1251683E+00
          2   -1    0    0  503    0 -0.00000000000E+00  0.00000000000E+00  0.73862937861E+03  0.73862937861E+03  0.00000000000E+00 0.  1.
         21   -1    0    0  505  502  0.00000000000E+00 -0.00000000000E+00 -0.40097256729E+03  0.40097256729E+03  0.00000000000E+00 0.  1.
         21    1    1    2  503  504 -0.84515396776E+02 -0.10018825043E+03  0.11795132296E+03  0.17633222169E+03  0.00000000000E+00 0.  1.
         21    1    1    2  504  502  0.39360669790E+02 -0.13454376757E+02 -0.23183448815E+01  0.41661220617E+02  0.00000000000E+00 0.  1.
         21    1    1    2  505  501  0.81134837521E+02 -0.36537029058E+01 -0.33834977735E+03  0.34796089326E+03  0.00000000000E+00 0.  1.
          2    1    1    2  501    0 -0.35980110535E+02  0.11729633010E+03  0.56037361059E+03  0.57364761034E+03  0.00000000000E+00 0.  1.
<scales pt_clust_3="14000.00000" pt_clust_4="41.59667" pt_clust_5="117.84342" pt_clust_6="114.94147"></scales>
<clustering>
<clus scale="   41.597">  2  4  1 -1</clus>
<clus scale="  117.843">  2  5  1 -1</clus>
<clus scale="  114.941">  1  6  2 -1</clus>
<clus scale="   41.597">  2  3  1 -1</clus>
</clustering>
</event>
<event>
 6    0  0.1622933E+002  0.1095744E+03  0.7546771E-02  0.1261360E+00
         21   -1    0    0  501  502  0.00000000000E+00  0.00000000000E+00  0.52936759304E+02  0.52936759304E+02  0.00000000000E+00 0. -1.
          1   -1    0    0  503    0 -0.00000000000E+00 -0.00000000000E+00 -0.15732954129E+04  0.15732954129E+04  0.00000000000E+00 0.  1.
         21    1    1    2  503  504  0.22448695481E+02  0.26758550492E+02 -0.18148654191E+03  0.18481701450E+03  0.00000000000E+00 0.  1.
         21    1    1    2  504  505 -0.47480966743E+02  0.35123081664E+01 -0.21272788864E+03  0.21799067209E+03  0.00000000000E+00 0.  1.
         21    1    1    2  505  502  0.70557698373E+02 -0.86690601915E+02 -0.18362686792E+02  0.11327328691E+03  0.00000000000E+00 0. -1.
          1    1    1    2  501    0 -0.45525427112E+02  0.56419743256E+02 -0.11077815363E+04  0.11101511987E+04  0.00000000000E+00 0.  1.
<scales pt_clust_3="34.92798" pt_clust_4="44.66459" pt_clust_5="109.57436" pt_clust_6="14000.00000"></scales>
<clustering>
<clus scale="   34.928">  2  3  1 -1</clus>
<clus scale="   44.665">  2  4  1 -1</clus>
<clus scale="  109.574">  1  5  2 -1</clus>
<clus scale="  109.574">  1  3  2 -1</clus>
</clustering>
</event>
<event>
 6    0  0.1622933E+002  0.1638534E+03  0.7546771E-02  0.1184414E+00
          1   -1    0    0  503    0 -0.00000000000E+00  0.00000000000E+00  0.21836506672E+04  0.21836506672E+04  0.00000000000E+00 0.  1.
         21   -1    0    0  505  502  0.00000000000E+00 -0.00000000000E+00 -0.57807187712E+02  0.57807187712E+02  0.00000000000E+00 0.  1.
         21    1    1    2  503  502 -0.61178715808E+01  0.10682522171E+03  0.13410912502E+04  0.13453530384E+04  0.00000000000E+00 0.  1.
         21    1    1    2  504  501  0.16202583050E+02 -0.62820699516E+02  0.11105864687E+03  0.12861954373E+03  0.00000000000E+00 0. -1.
         21    1    1    2  505  504 -0.10050533170E+03  0.81767767862E+02  0.76359015128E+02  0.15039278159E+03  0.00000000000E+00 0.  1.
          1    1    1    2  501    0  0.90420620234E+02 -0.12577229006E+03  0.59733456726E+03  0.61709249125E+03  0.00000000000E+00 0.  1.
<scales pt_clust_3="107.00026" pt_clust_4="55.40613" pt_clust_5="139.70774" pt_clust_6="55.40613"></scales>
<clustering>
<clus scale="   55.406">  4  6 -1 -1</clus>
<clus scale="  107.000">  1  3  2 -1</clus>
<clus scale="  139.708">  2  5  1 -1</clus>
<clus scale="  139.708">  2  3  1 -1</clus>
</clustering>
</event>
<event>
 6    0  0.1622933E+002  0.1043336E+03  0.7546771E-02  0.1271438E+00
         21   -1    0    0  503  502  0.00000000000E+00  0.00000000000E+00  0.23411615913E+03  0.23411615913E+03  0.00000000000E+00 0. -1.
          2   -1    0    0  505    0 -0.00000000000E+00 -0.00000000000E+00 -0.57680627515E+03  0.57680627515E+03  0.00000000000E+00 0. -1.
         21    1    1    2  503  501  0.17139121494E+03  0.10142956950E+03 -0.13289925338E+03  0.23942664363E+03  0.00000000000E+00 0. -1.
         21    1    1    2  504  502 -0.53746091538E+02 -0.26310632542E+01  0.15091209444E+03  0.16021867899E+03  0.00000000000E+00 0. -1.
         21    1    1    2  505  504 -0.56195242756E+02 -0.28166410031E+02 -0.34083588793E+02  0.71504845902E+02  0.00000000000E+00 0. -1.
          2    1    1    2  501    0 -0.61449880649E+02 -0.70632096218E+02 -0.32661936828E+03  0.33977226577E+03  0.00000000000E+00 0. -1.
<scales pt_clust_3="14000.00000" pt_clust_4="53.81045" pt_clust_5="74.76424" pt_clust_6="104.33361"></scales>
<clustering>
<clus scale="   53.810">  1  4  2 -1</clus>
<clus scale="   74.764">  1  5  2 -1</clus>
<clus scale="  104.334">  2  6  1 -1</clus>
<clus scale="   53.810">  1  3  2 -1</clus>
</clustering>
</event>
<event>
 6    0  0.1622933E+002  0.1208592E+03  0.7546771E-02  0.1241686E+00
         21   -1    0    0  501  502  0.00000000000E+00  0.00000000000E+00  0.37398443724E+03  0.37398443724E+03  0.00000000000E+00 0.  1.
          3   -1    0    0  503    0 -0.00000000000E+00 -0.00000000000E+00 -0.18373540463E+03  0.18373540463E+03  0.00000000000E+00 0. -1.
         21    1    1    2  503  504  0.40920229172E+02 -0.70069119275E+01  0.27050485216E+01  0.41603837056E+02  0.00000000000E+00 0.  1.
         21    1    1    2  504  505  0.41910272183E+02  0.73297610029E+02  0.76148535659E+01  0.84776155523E+02  0.00000000000E+00 0.  1.
         21    1    1    2  505  502  0.10163037544E+02  0.71204742207E+02  0.24326583815E+03  0.25367631079E+03  0.00000000000E+00 0.  1.
          3    1    1    2  501    0 -0.92993538899E+02 -0.13749544031E+03 -0.63336707622E+02  0.17766353851E+03  0.00000000000E+00 0. -1.
<scales pt_clust_3="41.51580" pt_clust_4="120.85918" pt_clust_5="71.90181" pt_clust_6="14000.00000"></scales>
<clustering>
<clus scale="   41.516">  2  3  1 -1</clus>
<clus scale="   71.902">  1  5  2 -1</clus>
<clus scale="  120.859">  1  4  2 -1</clus>
<clus scale="   71.902">  1  3  2 -1</clus>
</clustering>
</event>
<event>
 6    0  0.1622933E+002  0.6659205E+02  0.7546771E-02  0.1372081E+00
          3   -1    0    0  503    0 -0.00000000000E+00  0.00000000000E+00  0.58396980946E+02  0.58396980946E+02  0.00000000000E+00 0. -1.
         21   -1    0    0  505  502  0.00000000000E+00 -0.00000000000E+00 -0.20402006109E+04  0.20402006109E+04  0.00000000000E+00 0.  1.
         21    1    1    2  503  504 -0.22539790108E+02  0.58665685427E+02 -0.35618780154E+02  0.72238509705E+02  0.00000000000E+00 0. -1.
         21    1    1    2  504  502 -0.70548744561E+01 -0.57599679201E+02 -0.26961070565E+03  0.27578511001E+03  0.00000000000E+00 0.  1.
         21    1    1    2  505  501  0.73674048711E+02  0.64306328492E+02 -0.16684478733E+04  0.16713113041E+04  0.00000000000E+00 0.  1.
          3    1    1    2  501    0 -0.44079384147E+02 -0.65372334718E+02 -0.81262707690E+01  0.79262667946E+02  0.00000000000E+00 0. -1.
<scales pt_clust_3="61.28899" pt_clust_4="58.03012" pt_clust_5="66.59205" pt_clust_6="14000.00000"></scales>
<clustering>
<clus scale="   58.030">  2  4  1 -1</clus>
<clus scale="   61.289">  1  3  2 -1</clus>
<clus scale="   66.592">  2  5  1 -1</clus>
<clus scale="   58.030">  2  3  1 -1</clus>
</clustering>
</event>
<event>
 6    0  0.1622933E+002  0.1233180E+03  0.7546771E-02  0.1237722E+00
         21   -1    0    0  505  502  0.00000000000E+00  0.00000000000E+00  0.48864467642E+03  0.48864467642E+03  0.00000000000E+00 0.  1.
          1   -1    0    0  504    0 -0.00000000000E+00 -0.00000000000E+00 -0.17850521835E+04  0.17850521835E+04  0.00000000000E+00 0.  1.
         21    1    1    2  503  502  0.10064744217E+03 -0.11197611936E+03  0.14897049879E+01  0.15056818436E+03  0.00000000000E+00 0. -1.
         21    1    1    2  504  503 -0.14558318954E+02  0.27002789281E+02 -0.90630741026E+02  0.95681902670E+02  0.00000000000E+00 0.  1.
         21    1    1    2  505  501 -0.35583741556E+02  0.74360907522E+01  0.40795768281E+03  0.40957413135E+03  0.00000000000E+00 0.  1.
          1    1    1    2  501    0 -0.50505381658E+02  0.77537239326E+02 -0.16152241539E+04  0.16178726416E+04  0.00000000000E+00 0.  1.
<scales pt_clust_3="14000.00000" pt_clust_4="30.67728" pt_clust_5="36.36186" pt_clust_6="123.31803"></scales>
<clustering>
<clus scale="   30.677">  2  4  1 -1</clus>
<clus scale="   36.362">  1  5  2 -1</clus>
<clus scale="  123.318">  2  6  1 -1</clus>
<clus scale="   36.362">  1  3  2 -1</clus>
</clustering>
</event>
<event>
 6    0  0.1622933E+002  0.7649033E+02  0.7546771E-02  0.1339317E+00
         21   -1    0    0  501  502  0.00000000000E+00  0.00000000000E+00  0.11394331512E+04  0.11394331512E+04  0.00000000000E+00 0. -1.
          4   -1    0    0  505    0 -0.00000000000E+00 -0.00000000000E+00 -0.54469972106E+02  0.54469972106E+02  0.00000000000E+00 0. -1.
         21    1    1    2  503  502  0.36013675403E+02  0.72630978374E+02  0.75398284739E+03  0.75832867412E+03  0.00000000000E+00 0. -1.
         21    1    1    2  504  503 -0.78493488862E+02 -0.21628297506E+02  0.19582628515E+03  0.21207768625E+03  0.00000000000E+00 0. -1.
         21    1    1    2  505  504 -0.10015933880E+02  0.54569334911E+02  0.20814835102E+02  0.59256970935E+02  0.00000000000E+00 0. -1.
          4    1    1    2  501    0  0.52495747340E+02 -0.10557201578E+03  0.11433921147E+03  0.16423979202E+03  0.00000000000E+00 0. -1.
<scales pt_clust_3="14000.00000" pt_clust_4="76.49033" pt_clust_5="55.48091" pt_clust_6="80.89191"></scales>
<clustering>
<clus scale="   55.481">  2  5  1 -1</clus>
<clus scale="   80.892">  2  6  1 -1</clus>
<clus scale="   76.490">  2  4  1 -1</clus>
<clus scale="   76.490">  1  3  2 -1</clus>
</clustering>
</event>
<event>
 6    0  0.1622933E+002  0.1098495E+03  0.7546771E-02  0.1260849E+00
         21   -1    0    0  503  502  0.00000000000E+00  0.00000000000E+00  0.54811474839E+03  0.54811474839E+03  0.00000000000E+00 0. -1.
          2   -1    0    0  504    0 -0.00000000000E+00 -0.00000000000E+00 -0.36696262255E+03  0.36696262255E+03  0.00000000000E+00 0. -1.
         21    1    1    2  503  505  0.47041644434E+02  0.27234052824E+01  0.51517792149E+03  0.51732835225E+03  0.00000000000E+00 0. -1.
         21    1    1    2  504  502  0.44539755570E+01 -0.92142838293E+02 -0.97680140630E+02  0.13435605837E+03  0.00000000000E+00 0. -1.
         21    1    1    2  505  501 -0.34271521698E+02  0.12208713920E+02 -0.89113920352E+02  0.96254250273E+02  0.00000000000E+00 0.  1.
          2    1    1    2  501    0 -0.17224098293E+02  0.77210719091E+02 -0.14723173467E+03  0.16713871005E+03  0.00000000000E+00 0. -1.
<scales pt_clust_3="47.12041" pt_clust_4="95.90602" pt_clust_5="36.32353" pt_clust_6="36.32353"></scales>
<clustering>
<clus scale="   36.324">  5  6 -1 -1</clus>
<clus scale="   47.120">  1  3  2 -1</clus>
<clus scale="   95.906">  1  4  2 -1</clus>
<clus scale="   47.120">  1  3  2 -1</clus>
</clustering>
</event>
<event>
 6    0  0.1622933E+002  0.1656785E+03  0.7546771E-02  0.1182431E+00
         -4   -1    0    0    0  501 -0.00000000000E+00  0.00000000000E+00  0.24214973045E+03  0.24214973045E+03  0.00000000000E+00 0.  1.
         21   -1    0    0  503  502  0.00000000000E+00 -0.00000000000E+00 -0.76634583993E+03  0.76634583993E+03  0.00000000000E+00 0. -1.
         21    1    1    2  503  504  0.53382044630E+02  0.14954605621E+03 -0.69450431963E+03  0.71242537546E+03  0.00000000000E+00 0. -1.
         21    1    1    2  504  501 -0.48094613028E+01  0.33169476077E+02 -0.59139893574E+01  0.34034105415E+02  0.00000000000E+00 0. -1.
         21    1    1    2  505  502  0.24832264499E+00 -0.75762600309E+02  0.79212554006E+02  0.10961141356E+03  0.00000000000E+00 0.  1.
         -4    1    1    2    0  505 -0.48820905972E+02 -0.10695293198E+03  0.97009645501E+02  0.15242467595E+03  0.00000000000E+00 0.  1.
<scales pt_clust_3="159.95301" pt_clust_4="33.51634" pt_clust_5="33.57385" pt_clust_6="33.57385"></scales>
<clustering>
<clus scale="   33.516">  1  4  2 -1</clus>
<clus scale="   33.574">  5  6 -1 -1</clus>
<clus scale="  159.953">  2  3  1 -1</clus>
<clus scale="  159.953">  2  3  1 -1</clus>
</clustering>
</event>
<event>
 6    0  0.1622933E+002  0.8288759E+02  0.7546771E-02  0.1321051E+00
         21   -1    0    0  503  502  0.00000000000E+00  0.00000000000E+00  0.66366555433E+02  0.66366555433E+02  0.00000000000E+00 0. -1.
          2   -1    0    0  505    0 -0.00000000000E+00 -0.00000000000E+00 -0.10074398320E+04  0.10074398320E+04  0.00000000000E+00 0. -1.
         21    1    1    2  503  501  0.56161347136E+02 -0.60868482008E+02  0.22887611204E+02  0.85923871891E+02  0.00000000000E+00 0. -1.
         21    1    1    2  504  502 -0.46752933188E+02 -0.25872773906E+02 -0.86195755234E+02  0.10141471990E+03  0.00000000000E+00 0. -1.
         21    1    1    2  505  504  0.33348517939E+02  0.11509219928E+02 -0.18648089346E+03  0.18978859138E+03  0.00000000000E+00 0. -1.
          2    1    1    2  501    0 -0.42756931887E+02  0.75232035986E+02 -0.69128423912E+03  0.69667920431E+03  0.00000000000E+00 0. -1.
<scales pt_clust_3="82.88759" pt_clust_4="49.46051" pt_clust_5="35.27869" pt_clust_6="14000.00000"></scales>
<clustering>
<clus scale="   35.279">  2  5  1 -1</clus>
<clus scale="   49.461">  2  4  1 -1</clus>
<clus scale="   82.888">  1  3  2 -1</clus>
<clus scale="   82.888">  1  3  2 -1</clus>
</clustering>
</event>
<event>
 6    0  0.1622933E+002  0.8340584E+02  0.7546771E-02  0.1319655E+00
         21   -1    0    0  503  502  0.00000000000E+00  0.00000000000E+00  0.29581167193E+02  0.29581167193E+02  0.00000000000E+00 0. -1.
          2   -1    0    0  504    0 -0.00000000000E+00 -0.00000000000E+00 -0.24955380517E+04  0.24955380517E+04  0.00000000000E+00 0. -1.
         21    1    1    2  503  505  0.17284515536E+00 -0.34560507598E+02  0.87438987496E+01  0.35649885360E+02  0.00000000000E+00 0. -1.
         21    1    1    2  504  502 -0.85330925200E+02 -0.19365882121E+02 -0.73328730382E+03  0.73848945431E+03  0.00000000000E+00 0. -1.
         21    1    1    2  505  501  0.82164748269E+02 -0.29524015696E+01 -0.40023406764E+03  0.40859157044E+03  0.00000000000E+00 0. -1.
          2    1    1    2  501    0  0.29933317763E+01  0.56878791288E+02 -0.13411794118E+04  0.13423883088E+04  0.00000000000E+00 0. -1.
<scales pt_clust_3="34.56094" pt_clust_4="83.40584" pt_clust_5="14000.00000" pt_clust_6="54.13341"></scales>
<clustering>
<clus scale="   34.561">  1  3  2 -1</clus>
<clus scale="   54.133">  2  6  1 -1</clus>
<clus scale="   83.406">  2  4  1 -1</clus>
<clus scale="   34.561">  1  3  2 -1</clus>
</clustering>
</event>
<event>
 6    0  0.1622933E+002  0.1003330E+03  0.7546771E-02  0.1279597E+00
         21   -1    0    0  504  502  0.00000000000E+00  0.00000000000E+00  0.23536361866E+03  0.23536361866E+03  0.00000000000E+00 0. -1.
          2   -1    0    0  505    0 -0.00000000000E+00 -0.00000000000E+00 -0.17491521380E+03  0.17491521380E+03  0.00000000000E+00 0. -1.
         21    1    1    2  503  502 -0.24928982908E+00  0.99136090248E+02  0.16809390006E+03  0.19515016211E+03  0.00000000000E+00 0. -1.
         21    1    1    2  504  501 -0.13108865707E+02 -0.11069594222E+03 -0.91452068615E+02  0.14418361501E+03  0.00000000000E+00 0. -1.
         21    1    1    2  505  503 -0.15360585072E+02  0.30857416097E+02 -0.84107904337E+01  0.35480545340E+02  0.00000000000E+00 0. -1.
          2    1    1    2  501    0  0.28718740609E+02 -0.19297564129E+02 -0.77826361509E+01  0.35464509991E+02  0.00000000000E+00 0. -1.
<scales pt_clust_3="100.33304" pt_clust_4="14000.00000" pt_clust_5="34.46923" pt_clust_6="30.46040"></scales>
<clustering>
<clus scale="   34.469">  2  5  1 -1</clus>
<clus scale="   30.460">  2  6  1 -1</clus>
<clus scale="  100.333">  1  3  2 -1</clus>
<clus scale="  100.333">  1  3  2 -1</clus>
</clustering>
</event>
<event>
 6    0  0.1622933E+002  0.8858478E+02  0.7546771E-02  0.1306316E+00
         21   -1    0    0  503  502  0.00000000000E+00  0.00000000000E+00  0.38837195832E+03  0.38837195832E+03  0.00000000000E+00 0.  1.
         -1   -1    0    0    0  501 -0.00000000000E+00 -0.00000000000E+00 -0.14128352715E+03  0.14128352715E+03  0.00000000000E+00 0.  1.
         21    1    1    2  503  501 -0.33887042241E+01 -0.45116149539E+02 -0.15484045973E+02  0.47819514272E+02  0.00000000000E+00 0. -1.
         21    1    1    2  504  502 -0.76774498265E+02 -0.55933487988E+02  0.31463112202E+03  0.32865730116E+03  0.00000000000E+00 0.  1.
         21    1    1    2  505  504  0.45804747030E+02  0.43715657153E+02  0.73620662306E+01  0.63744282489E+02  0.00000000000E+00 0.  1.
         -1    1    1    2    0  505  0.34358455459E+02  0.57333980374E+02 -0.59420711108E+02  0.89434387546E+02  0.00000000000E+00 0.  1.
<scales pt_clust_3="45.24323" pt_clust_4="88.58478" pt_clust_5="14000.00000" pt_clust_6="41.72383"></scales>
<clustering>
<clus scale="   45.243">  2  3  1 -1</clus>
<clus scale="   41.724">  2  6  1 -1</clus>
<clus scale="   88.585">  1  4  2 -1</clus>
<clus scale="   88.585">  1  3  2 -1</clus>
</clustering>
</event>
<event>
 6    0  0.1622933E+002  0.1904261E+03  0.7546771E-02  0.1158078E+00
         21   -1    0    0  503  502  0.00000000000E+00  0.00000000000E+00  0.10763529007E+03  0.10763529007E+03  0.00000000000E+00 0. -1.
          2   -1    0    0  504    0 -0.00000000000E+00 -0.00000000000E+00 -0.33763481123E+04  0.33763481123E+04  0.00000000000E+00 0.  1.
         21    1    1    2  503  501  0.20324046077E+03 -0.36864364305E+01 -0.23981781949E+02  0.20468365976E+03  0.00000000000E+00 0. -1.
         21    1    1    2  504  505 -0.41021970278E+02 -0.21862562877E+02 -0.25982960343E+03  0.26395491380E+03  0.00000000000E+00 0. -1.
         21    1    1    2  505  502 -0.23205394349E+02 -0.49877393016E+02 -0.25809396220E+04  0.25815258234E+04  0.00000000000E+00 0.  1.
          2    1    1    2  501    0 -0.13901309614E+03  0.75426392323E+02 -0.40396181489E+03  0.43381900540E+03  0.00000000000E+00 0.  1.
<scales pt_clust_3="190.42610" pt_clust_4="46.48412" pt_clust_5="88.85875" pt_clust_6="14000.00000"></scales>
<clustering>
<clus scale="   46.484">  2  4  1 -1</clus>
<clus scale="   88.859">  2  5  1 -1</clus>
<clus scale="  190.426">  1  3  2 -1</clus>
<clus scale="  190.426">  1  3  2 -1</clus>
</clustering>
</event>
<event>
 6    0  0.1622933E+002  0.7358501E+02  0.7546771E-02  0.1348310E+00
          2   -1    0    0  505    0 -0.00000000000E+00  0.00000000000E+00  0.27446486207E+04  0.27446486207E+04  0.00000000000E+00 0.  1.
         21   -1    0    0  504  502  0.00000000000E+00 -0.00000000000E+00 -0.83935826062E+01  0.83935826062E+01  0.00000000000E+00 0.  1.
         21    1    1    2  503  501  0.34912093141E+02 -0.35620184730E+02  0.30586237807E+03  0.30990231707E+03  0.00000000000E+00 0.  1.
         21    1    1    2  504  503 -0.35684873144E+02 -0.32035944805E+02  0.19648020950E+03  0.20224782979E+03  0.00000000000E+00 0.  1.
         21    1    1    2  505  502 -0.60745410454E+02 -0.22024317842E+02  0.10538440534E+04  0.10558230743E+04  0.00000000000E+00 0.  1.
          2    1    1    2  501    0  0.61518190457E+02  0.89680447377E+02  0.11800683972E+04  0.11850689822E+04  0.00000000000E+00 0.  1.
<scales pt_clust_3="52.15338" pt_clust_4="47.95531" pt_clust_5="14000.00000" pt_clust_6="73.58501"></scales>
<clustering>
<clus scale="   47.955">  2  4  1 -1</clus>
<clus scale="   52.153">  2  3  1 -1</clus>
<clus scale="   73.585">  2  6  1 -1</clus>
<clus scale="   47.955">  2  3  1 -1</clus>
</clustering>
</event>
<event>
 6    0  0.1622933E+002  0.1370064E+03  0.7546771E-02  0.1217415E+00
          1   -1    0    0  503    0 -0.00000000000E+00  0.00000000000E+00  0.38153592043E+04  0.38153592043E+04  0.00000000000E+00 0.  1.
         21   -1    0    0  504  502  0.00000000000E+00 -0.00000000000E+00 -0.19428309371E+03  0.19428309371E+03  0.00000000000E+00 0. -1.
         21    1    1    2  503  502  0.11070390742E+01  0.46824527343E+02 -0.18575210345E+03  0.19156619178E+03  0.00000000000E+00 0. -1.
         21    1    1    2  504  505  0.61386100537E+02  0.78772157437E+02  0.64112292921E+03  0.64885431068E+03  0.00000000000E+00 0. -1.
         21    1    1    2  505  501 -0.30447279932E+02 -0.77863580842E+02  0.13359316654E+04  0.13385451762E+04  0.00000000000E+00 0.  1.
          1    1    1    2  501    0 -0.32045859679E+02 -0.47733103937E+02  0.18297736194E+04  0.18306766193E+04  0.00000000000E+00 0.  1.
<scales pt_clust_3="46.83761" pt_clust_4="127.17642" pt_clust_5="42.25898" pt_clust_6="42.25898"></scales>
<clustering>
<clus scale="   42.259">  5  6 -1 -1</clus>
<clus scale="   46.838">  2  3  1 -1</clus>
<clus scale="  127.176">  2  4  1 -1</clus>
<clus scale="   46.838">  2  3  1 -1</clus>
</clustering>
</event>
<event>
 6    0  0.1622933E+002  0.9086234E+02  0.7546771E-02  0.1300777E+00
         21   -1    0    0  503  502  0.00000000000E+00  0.00000000000E+00  0.11790033628E+04  0.11790033628E+04  0.00000000000E+00 0. -1.
         -1   -1    0    0    0  501 -0.00000000000E+00 -0.00000000000E+00 -0.43005931970E+02  0.43005931970E+02  0.00000000000E+00 0.  1.
         21    1    1    2  503  504  0.44930275133E+02 -0.17537607524E+02  0.58200137460E+03  0.58399648744E+03  0.00000000000E+00 0. -1.
         21    1    1    2  504  501  0.35082167664E+02  0.35099203226E+01  0.26139077027E+02  0.43889968973E+02  0.00000000000E+00 0. -1.
         21    1    1    2  505  502 -0.39261236052E+02  0.10415902496E+03  0.46216383750E+03  0.47537980587E+03  0.00000000000E+00 0. -1.
         -1    1    1    2    0  505 -0.40751206745E+02 -0.90131337762E+02  0.65693141702E+02  0.11874303249E+03  0.00000000000E+00 0.  1.
<scales pt_clust_3="49.15182" pt_clust_4="35.25731" pt_clust_5="90.86234" pt_clust_6="14000.00000"></scales>
<clustering>
<clus scale="   35.257">  2  4  1 -1</clus>
<clus scale="   49.152">  1  3  2 -1</clus>
<clus scale="   90.862">  1  5  2 -1</clus>
<clus scale="   49.152">  1  3  2 -1</clus>
</clustering>
</event>
<event>
 6    0  0.1622933E+002  0.1156068E+03  0.7546771E-02  0.1250526E+00
         21   -1    0    0  505  502  0.00000000000E+00  0.00000000000E+00  0.87844145214E+03  0.87844145214E+03  0.00000000000E+00 0.  1.
          2   -1    0    0  503    0 -0.00000000000E+00 -0.00000000000E+00 -0.12191217261E+03  0.12191217261E+03  0.00000000000E+00 0.  1.
         21    1    1    2  503  504 -0.21439477276E+02  0.11477911761E+03 -0.73528508559E+02  0.13798673340E+03  0.00000000000E+00 0.  1.
         21    1    1    2  504  502  0.24163788064E+01 -0.92626144013E+02  0.66700348341E+03  0.67340855973E+03  0.00000000000E+00 0.  1.
         21    1    1    2  505  501  0.24590511377E+02  0.31971881810E+02  0.57946968443E+02  0.70602731024E+02  0.00000000000E+00 0. -1.
          2    1    1    2  501    0 -0.55674129074E+01 -0.54124855402E+02  0.10510733624E+03  0.11835560059E+03  0.00000000000E+00 0.  1.
<scales pt_clust_3="14000.00000" pt_clust_4="115.60683" pt_clust_5="40.33478" pt_clust_6="49.78553"></scales>
<clustering>
<clus scale="   40.335">  1  5  2 -1</clus>
<clus scale="   49.786">  1  6  2 -1</clus>
<clus scale="  115.607">  1  4  2 -1</clus>
<clus scale="   40.335">  1  3  2 -1</clus>
</clustering>
</event>
<event>
 6    0  0.1622933E+002  0.7887631E+02  0.7546771E-02  0.1332271E+00
          2   -1    0    0  503    0 -0.00000000000E+00  0.00000000000E+00  0.13786238235E+04  0.13786238235E+04  0.00000000000E+00 0. -1.
         21   -1    0    0  501  502  0.00000000000E+00 -0.00000000000E+00 -0.16206208302E+03  0.16206208302E+03  0.00000000000E+00 0.  1.
         21    1    1    2  503  505  0.45024178642E+02 -0.49554503033E+01  0.16932282863E+03  0.17527679095E+03  0.00000000000E+00 0.  1.
         21    1    1    2  504  502 -0.75413503583E+02  0.23700951062E+02 -0.14549221640E+03  0.16558054426E+03  0.00000000000E+00 0.  1.
         21    1    1    2  505  504 -0.41369370266E+02 -0.32812790783E+02  0.35407411483E+03  0.35798964067E+03  0.00000000000E+00 0. -1.
          2    1    1    2  501    0  0.71758695208E+02  0.14067290025E+02  0.83865701339E+03  0.84183893061E+03  0.00000000000E+00 0. -1.
<scales pt_clust_3="45.29606" pt_clust_4="14000.00000" pt_clust_5="44.30962" pt_clust_6="78.87631"></scales>
<clustering>
<clus scale="   45.296">  1  3  2 -1</clus>
<clus scale="   44.310">  1  5  2 -1</clus>
<clus scale="   78.876">  1  6  2 -1</clus>
<clus scale="   78.876">  2  3  1 -1</clus>
</clustering>
</event>
<event>
 6    0  0.1622933E+002  0.2036305E+03  0.7546771E-02  0.1146712E+00
         21   -1    0    0  501  502  0.00000000000E+00  0.00000000000E+00  0.10998502819E+03  0.10998502819E+03  0.00000000000E+00 0.  1.
          1   -1    0    0  503    0 -0.00000000000E+00 -0.00000000000E+00 -0.89665588097E+03  0.89665588097E+03  0.00000000000E+00 0.  1.
         21    1    1    2  503  505  0.36983349127E+02  0.15212263570E+02 -0.10837820136E+03  0.11552062849E+03  0.00000000000E+00 0. -1.
         21    1    1    2  504  502 -0.12932425902E+03 -0.16882236161E+02 -0.11515298881E+03  0.17398271380E+03  0.00000000000E+00 0.  1.
         21    1    1    2  505  504 -0.82008373119E+02  0.13714788505E+03 -0.65473411087E+02  0.17268955728E+03  0.00000000000E+00 0.  1.
          1    1    1    2  501    0  0.17434928301E+03 -0.13547791246E+03 -0.49766625151E+03  0.54444800959E+03  0.00000000000E+00 0.  1.
<scales pt_clust_3="39.98976" pt_clust_4="123.31716" pt_clust_5="203.63050" pt_clust_6="14000.00000"></scales>
<clustering>
<clus scale="   39.990">  2  3  1 -1</clus>
<clus scale="  123.317">  1  4  2 -1</clus>
<clus scale="  203.631">  1  5  2 -1</clus>
<clus scale="  123.317">  1  3  2 -1</clus>
</clustering>
</event>
<event>
 6    0  0.1622933E+002  0.1425459E+03  0.7546771E-02  0.1209944E+00
         21   -1    0    0  501  502  0.00000000000E+00  0.00000000000E+00  0.76287733871E+03  0.76287733871E+03  0.00000000000E+00 0.  1.
          1   -1    0    0  505    0 -0.00000000000E+00 -0.00000000000E+00 -0.26191621474E+04  0.26191621474E+04  0.00000000000E+00 0. -1.
         21    1    1    2  503  502  0.13556742631E+03 -0.36946577910E+02  0.68012213262E+03  0.69448519925E+03  0.00000000000E+00 0.  1.
         21    1    1    2  504  503  0.22319319851E+01  0.67629855171E+02 -0.75782207585E+02  0.10159587500E+03  0.00000000000E+00 0.  1.
         21    1    1    2  505  504  0.48062875997E+02 -0.39506608418E+02 -0.23838635285E+04  0.23846752681E+04  0.00000000000E+00 0. -1.
          1    1    1    2  501    0 -0.18586223429E+03  0.88233311567E+01 -0.76761205267E+02  0.20128314371E+03  0.00000000000E+00 0. -1.
<scales pt_clust_3="142.54594" pt_clust_4="56.51545" pt_clust_5="62.21585" pt_clust_6="14000.00000"></scales>
<clustering>
<clus scale="   62.216">  2  5  1 -1</clus>
<clus scale="   56.515">  2  4  1 -1</clus>
<clus scale="  142.546">  1  3  2 -1</clus>
<clus scale="  142.546">  1  3  2 -1</clus>
</clustering>
</event>
<event>
 6    0  0.1622933E+002  0.1380714E+03  0.7546771E-02  0.1215948E+00
          1   -1    0    0  503    0 -0.00000000000E+00  0.00000000000E+00  0.62547333232E+03  0.62547333232E+03  0.00000000000E+00 0.  1.
         21   -1    0    0  504  502  0.00000000000E+00 -0.00000000000E+00 -0.19648669486E+03  0.19648669486E+03  0.00000000000E+00 0. -1.
         21    1    1    2  503  505 -0.29022163154E+02 -0.39320698772E+02  0.13666561637E+03  0.14514094530E+03  0.00000000000E+00 0.  1.
         21    1    1    2  504  501  0.35155031181E+02 -0.59956207926E+02  0.23453762519E+03  0.24461913400E+03  0.00000000000E+00 0. -1.
         21    1    1    2  505  502 -0.70052302499E+02  0.10007399287E+03 -0.16223572092E+03  0.20308263903E+03  0.00000000000E+00 0. -1.
          1    1    1    2  501    0  0.63919434472E+02 -0.79708617356E+00  0.22001911682E+03  0.22911730886E+03  0.00000000000E+00 0.  1.
<scales pt_clust_3="48.87129" pt_clust_4="53.14186" pt_clust_5="121.51564" pt_clust_6="53.14186"></scales>
<clustering>
<clus scale="   48.871">  1  3  2 -1</clus>
<clus scale="   53.142">  4  6 -1 -1</clus>
<clus scale="  121.516">  2  5  1 -1</clus>
<clus scale="  121.516">  2  3  1 -1</clus>
</clustering>
</event>
<event>
 6    0  0.1622933E+002  0.9748192E+02  0.7546771E-02  0.1285682E+00
          4   -1    0    0  505    0 -0.00000000000E+00  0.00000000000E+00  0.29376108639E+04  0.29376108639E+04  0.00000000000E+00 0.  1.
         21   -1    0    0  503  502  0.00000000000E+00 -0.00000000000E+00 -0.35077514245E+02  0.35077514245E+02  0.00000000000E+00 0. -1.
         21    1    1    2  503  501 -0.29394907509E+02 -0.34186529166E+02 -0.58291318350E+01  0.45461611738E+02  0.00000000000E+00 0. -1.
         21    1    1    2  504  502  0.11425478430E+03  0.10962390051E+02  0.48614477448E+03  0.49951083220E+03  0.00000000000E+00 0.  1.
         21    1    1    2  505  504  0.17611586076E+02 -0.34306508625E+02  0.33901775613E+03  0.34120396169E+03  0.00000000000E+00 0.  1.
          4    1    1    2  501    0 -0.10247146286E+03  0.57530647740E+02  0.20831999509E+04  0.20865119725E+04  0.00000000000E+00 0.  1.
<scales pt_clust_3="45.19803" pt_clust_4="97.48192" pt_clust_5="38.56299" pt_clust_6="14000.00000"></scales>
<clustering>
<clus scale="   38.563">  1  5  2 -1</clus>
<clus scale="   45.198">  2  3  1 -1</clus>
<clus scale="   97.482">  2  4  1 -1</clus>
<clus scale="   45.198">  2  3  1 -1</clus>
</clustering>
</event>
<event>
 6    0  0.1622933E+002  0.1223346E+03  0.7546771E-02  0.1239295E+00
          2   -1    0    0  505    0 -0.00000000000E+00  0.00000000000E+00  0.36275585579E+04  0.36275585579E+04  0.00000000000E+00 0.  1.
         21   -1    0    0  504  502  0.00000000000E+00 -0.00000000000E+00 -0.13621101555E+03  0.13621101555E+03  0.00000000000E+00 0. -1.
         21    1    1    2  503  501  0.86100597996E+02 -0.55705369238E+02  0.52374565950E+03  0.53369084401E+03  0.00000000000E+00 0.  1.
         21    1    1    2  504  503  0.45383726028E+02 -0.44637669216E+01 -0.12473542287E+03  0.13281014089E+03  0.00000000000E+00 0. -1.
         21    1    1    2  505  502 -0.27598169576E+02  0.31629676823E+02  0.30795585877E+03  0.31080364601E+03  0.00000000000E+00 0. -1.
          2    1    1    2  501    0 -0.10388615445E+03  0.28539459336E+02  0.27843814470E+04  0.27864649425E+04  0.00000000000E+00 0.  1.
<scales pt_clust_3="122.33464" pt_clust_4="45.56554" pt_clust_5="41.97732" pt_clust_6="14000.00000"></scales>
<clustering>
<clus scale="   41.977">  1  5  2 -1</clus>
<clus scale="   45.566">  2  4  1 -1</clus>
<clus scale="  122.335">  2  3  1 -1</clus>
<clus scale="   45.566">  2  3  1 -1</clus>
</clustering>
</event>
<event>
 6    0  0.1622933E+002  0.8206915E+02  0.7546771E-02  0.1323280E+00
         21   -1    0    0  501  502  0.00000000000E+00  0.00000000000E+00  0.39506300481E+03  0.39506300481E+03  0.00000000000E+00 0.  1.
          2   -1    0    0  505    0 -0.00000000000E+00 -0.00000000000E+00 -0.40618849759E+03  0.40618849759E+03  0.00000000000E+00 0.  1.
         21    1    1    2  503  504 -0.72019764989E+02  0.10142024064E+03  0.73496492367E+00  0.12439233069E+03  0.00000000000E+00 0.  1.
         21    1    1    2  504  502  0.58349543714E+02 -0.22222636626E+02  0.31587621703E+03  0.32198804219E+03  0.00000000000E+00 0.  1.
         21    1    1    2  505  503 -0.31237184150E+02 -0.59881822598E+02 -0.27410383775E+03  0.28230215766E+03  0.00000000000E+00 0. -1.
          2    1    1    2  501    0  0.44907405424E+02 -0.19315781417E+02 -0.53632836980E+02  0.72568971855E+02  0.00000000000E+00 0.  1.
<scales pt_clust_3="14000.00000" pt_clust_4="62.87313" pt_clust_5="82.06915" pt_clust_6="48.88532"></scales>
<clustering>
<clus scale="   48.885">  2  6  1 -1</clus>
<clus scale="   62.873">  1  4  2 -1</clus>
<clus scale="   82.069">  2  5  1 -1</clus>
<clus scale="   62.873">  1  3  2 -1</clus>
</clustering>
</event>
<event>
 6    0  0.1622933E+002  0.1737197E+03  0.7546771E-02  0.1174023E+00
          1   -1    0    0  505    0 -0.00000000000E+00  0.00000000000E+00  0.69838380364E+03  0.69838380364E+03  0.00000000000E+00 0. -1.
         21   -1    0    0  503  502  0.00000000000E+00 -0.00000000000E+00 -0.90051999168E+02  0.90051999168E+02  0.00000000000E+00 0.  1.
         21    1    1    2  503  501 -0.85921852766E+02  0.41648106617E+02  0.33957846236E+02  0.10134231539E+03  0.00000000000E+00 0. -1.
         21    1    1    2  504  502  0.14511588142E+03 -0.59051129456E+02  0.14287543916E+03  0.21203548298E+03  0.00000000000E+00 0.  1.
         21    1    1    2  505  504  0.25040686330E+02  0.17392497740E+02  0.36878086371E+03  0.37003899847E+03  0.00000000000E+00 0. -1.
          1    1    1    2  501    0 -0.84234714982E+02  0.10525098662E-01  0.62717655365E+02  0.10501900596E+03  0.00000000000E+00 0. -1.
<scales pt_clust_3="46.34777" pt_clust_4="166.21794" pt_clust_5="30.48828" pt_clust_6="46.34777"></scales>
<clustering>
<clus scale="   30.488">  1  5  2 -1</clus>
<clus scale="   46.348">  3  6 -1 -1</clus>
<clus scale="  166.218">  1  4  2 -1</clus>
<clus scale="  173.720">  2  3  1 -1</clus>
</clustering>
</event>
<event>
 6    0  0.1622933E+002  0.1256523E+03  0.7546771E-02  0.1234053E+00
          1   -1    0    0  505    0 -0.00000000000E+00  0.00000000000E+00  0.10770460942E+04  0.10770460942E+04  0.00000000000E+00 0.  1.
         21   -1    0    0  501  502  0.00000000000E+00 -0.00000000000E+00 -0.52411916989E+03  0.52411916989E+03  0.00000000000E+00 0. -1.
         21    1    1    2  503  504 -0.37219530609E+02 -0.30197230139E+02  0.15282812332E+03  0.16016741692E+03  0.00000000000E+00 0.  1.
         21    1    1    2  504  502 -0.30134055225E+02 -0.99778500539E+01 -0.50819457011E+03  0.50918497608E+03  0.00000000000E+00 0. -1.
         21    1    1    2  505  503 -0.49582630693E+02 -0.27827146849E+02  0.46154720012E+03  0.46503613334E+03  0.00000000000E+00 0.  1.
          1    1    1    2  501    0  0.11693621653E+03  0.68002227043E+02  0.44674617097E+03  0.46677673774E+03  0.00000000000E+00 0.  1.
<scales pt_clust_3="47.94229" pt_clust_4="31.74301" pt_clust_5="47.94229" pt_clust_6="115.18462"></scales>
<clustering>
<clus scale="   31.743">  2  4  1 -1</clus>
<clus scale="   47.942">  3  5 -1 -1</clus>
<clus scale="  115.185">  2  6  1 -1</clus>
<clus scale="   31.743">  2  3  1 -1</clus>
</clustering>
</event>
<event>
 6    0  0.1622933E+002  0.1870919E+03  0.7546771E-02  0.1161111E+00
         -4   -1    0    0    0  501 -0.00000000000E+00  0.00000000000E+00  0.95920974829E+03  0.95920974829E+03  0.00000000000E+00 0. -1.
         21   -1    0    0  503  502  0.00000000000E+00 -0.00000000000E+00 -0.20792302760E+03  0.20792302760E+03  0.00000000000E+00 0. -1.
         21    1    1    2  503  505  0.40609011394E+02  0.17855584633E+03 -0.10736692591E+03  0.21227090908E+03  0.00000000000E+00 0. -1.
         21    1    1    2  504  501  0.50165848731E+02 -0.12416927017E+02  0.40310819568E+03  0.40640744319E+03  0.00000000000E+00 0. -1.
         21    1    1    2  505  504  0.63600934977E+02  0.15120415517E+02  0.12534036675E+03  0.14136447019E+03  0.00000000000E+00 0. -1.
         -4    1    1    2    0  502 -0.15437579510E+03 -0.18125933483E+03  0.33020508417E+03  0.40708995343E+03  0.00000000000E+00 0. -1.
<scales pt_clust_3="187.09191" pt_clust_4="51.67971" pt_clust_5="76.63317" pt_clust_6="14000.00000"></scales>
<clustering>
<clus scale="   51.680">  1  4  2 -1</clus>
<clus scale="   76.633">  1  5  2 -1</clus>
<clus scale="  187.092">  2  3  1 -1</clus>
<clus scale="  187.092">  2  3  1 -1</clus>
</clustering>
</event>
<event>
 6    0  0.1622933E+002  0.8326049E+02  0.7546771E-02  0.1320045E+00
          2   -1    0    0  503    0 -0.00000000000E+00  0.00000000000E+00  0.28087066139E+04  0.28087066139E+04  0.00000000000E+00 0.  1.
         21   -1    0    0  504  502  0.00000000000E+00 -0.00000000000E+00 -0.12421695098E+03  0.12421695098E+03  0.00000000000E+00 0. -1.
         21    1    1    2  503  505 -0.14989553020E+01 -0.70817397335E+02  0.87501610791E+03  0.87787843107E+03  0.00000000000E+00 0. -1.
         21    1    1    2  504  501 -0.41157955184E+02  0.35237568355E+02 -0.10672123054E+03  0.11968744524E+03  0.00000000000E+00 0. -1.
         21    1    1    2  505  502 -0.24794608143E+02 -0.46637359674E+02  0.78659967629E+02  0.94748120920E+02  0.00000000000E+00 0. -1.
          2    1    1    2  501    0  0.67451518629E+02  0.82217188655E+02  0.18375348179E+04  0.18406095677E+04  0.00000000000E+00 0.  1.
<scales pt_clust_3="14000.00000" pt_clust_4="66.11184" pt_clust_5="52.81871" pt_clust_6="83.26049"></scales>
<clustering>
<clus scale="   52.819">  2  5  1 -1</clus>
<clus scale="   66.112">  2  4  1 -1</clus>
<clus scale="   83.260">  2  6  1 -1</clus>
<clus scale="   52.819">  2  3  1 -1</clus>
</clustering>
</event>
<event>
 6    0  0.1622933E+002  0.1239476E+03  0.7546771E-02  0.1236723E+00
          2   -1    0    0  504    0 -0.00000000000E+00  0.00000000000E+00  0.21879491708E+03  0.21879491708E+03  0.00000000000E+00 0. -1.
         21   -1    0    0  503  502  0.00000000000E+00 -0.00000000000E+00 -0.39875318139E+03  0.39875318139E+03  0.00000000000E+00 0. -1.
         21    1    1    2  503  501 -0.65805310350E+01  0.86411355879E+02  0.95675307742E+02  0.12908907903E+03  0.00000000000E+00 0. -1.
         21    1    1    2  504  505  0.28215865807E+02 -0.17397340496E+02 -0.53505399027E+01  0.33577236588E+02  0.00000000000E+00 0.  1.
         21    1    1    2  505  502  0.23969348578E+02 -0.10677386617E+03 -0.34362173755E+03  0.36062596508E+03  0.00000000000E+00 0. -1.
          2    1    1    2  501    0 -0.45604683351E+02  0.37759850785E+02  0.73338705403E+02  0.94255817778E+02  0.00000000000E+00 0. -1.
<scales pt_clust_3="43.35781" pt_clust_4="33.14819" pt_clust_5="110.39742" pt_clust_6="43.35781"></scales>
<clustering>
<clus scale="   33.148">  1  4  2 -1</clus>
<clus scale="   43.358">  3  6 -1 -1</clus>
<clus scale="  110.397">  2  5  1 -1</clus>
<clus scale="  110.397">  2  3  1 -1</clus>
</clustering>
</event>
<event>
 6    0  0.1622933E+002  0.1144436E+03  0.7546771E-02  0.1252555E+00
         21   -1    0    0  501  502  0.00000000000E+00  0.00000000000E+00  0.24529830885E+03  0.24529830885E+03  0.00000000000E+00 0.  1.
          2   -1    0    0  503    0 -0.00000000000E+00 -0.00000000000E+00 -0.10575582001E+04  0.10575582001E+04  0.00000000000E+00 0. -1.
         21    1    1    2  503  504  0.43738583329E+02  0.16922546904E+02 -0.59954104676E+03  0.60137251601E+03  0.00000000000E+00 0. -1.
         21    1    1    2  504  505  0.52879066839E+02 -0.91551952484E+02 -0.27549410199E+03  0.29508465894E+03  0.00000000000E+00 0. -1.
         21    1    1    2  505  502 -0.54962028886E+02  0.10088156184E+03  0.21643981029E+03  0.24503898795E+03  0.00000000000E+00 0.  1.
          2    1    1    2  501    0 -0.41655621282E+02 -0.26252156261E+02 -0.15366455279E+03  0.16136034605E+03  0.00000000000E+00 0. -1.
<scales pt_clust_3="46.89815" pt_clust_4="14000.00000" pt_clust_5="114.44364" pt_clust_6="33.52172"></scales>
<clustering>
<clus scale="   46.898">  2  3  1 -1</clus>
<clus scale="   33.522">  2  6  1 -1</clus>
<clus scale="  114.444">  1  5  2 -1</clus>
<clus scale="  114.444">  1  3  2 -1</clus>
</clustering>
</event>
<event>
 6    0  0.1622933E+002  0.1027486E+03  0.7546771E-02  0.1274620E+00
          3   -1    0    0  504    0 -0.00000000000E+00  0.00000000000E+00  0.57818446024E+03  0.57818446024E+03  0.00000000000E+00 0.  1.
         21   -1    0    0  503  502  0.00000000000E+00 -0.00000000000E+00 -0.53980486511E+03  0.53980486511E+03  0.00000000000E+00 0.  1.
         21    1    1    2  503  505 -0.37205419254E+02  0.81259866241E+02 -0.51235506721E+03  0.52009145732E+03  0.00000000000E+00 0.  1.
         21    1    1    2  504  502 -0.48482348298E+02 -0.23500435053E+02  0.24438898514E+02  0.59161375109E+02  0.00000000000E+00 0.  1.
         21    1    1    2  505  501  0.33605228815E+02 -0.41645350903E+02  0.16800548060E+03  0.17632211480E+03  0.00000000000E+00 0.  1.
          3    1    1    2  501    0  0.52082538737E+02 -0.16114080285E+02  0.35829028322E+03  0.36241437813E+03  0.00000000000E+00 0.  1.
<scales pt_clust_3="89.36461" pt_clust_4="53.87772" pt_clust_5="50.23762" pt_clust_6="50.23762"></scales>
<clustering>
<clus scale="   50.238">  5  6 -1 -1</clus>
<clus scale="   53.878">  1  4  2 -1</clus>
<clus scale="   89.365">  2  3  1 -1</clus>
<clus scale="   89.365">  2  3  1 -1</clus>
</clustering>
</event>
<event>
 6    0  0.1622933E+002  0.8809287E+02  0.7546771E-02  0.1307537E+00
          1   -1    0    0  504    0 -0.00000000000E+00  0.00000000000E+00  0.26656911403E+03  0.26656911403E+03  0.00000000000E+00 0.  1.
         21   -1    0    0  501  502  0.00000000000E+00 -0.00000000000E+00 -0.19436464982E+03  0.19436464982E+03  0.00000000000E+00 0. -1.
         21    1    1    2  503  502  0.90417910978E+02  0.57205626085E+00 -0.14837401482E+03  0.17375435001E+03  0.00000000000E+00 0. -1.
         21    1    1    2  504  505  0.23315241381E+02 -0.33222706407E+02  0.30948086614E+02  0.51040501239E+02  0.00000000000E+00 0.  1.
         21    1    1    2  505  503 -0.48731316751E+02 -0.23299682939E+02  0.86830894351E+02  0.10226055286E+03  0.00000000000E+00 0.  1.
          1    1    1    2  501    0 -0.65001835608E+02  0.55950333085E+02  0.10279949807E+03  0.13387835974E+03  0.00000000000E+00 0.  1.
<scales pt_clust_3="88.09287" pt_clust_4="40.58754" pt_clust_5="53.88386" pt_clust_6="14000.00000"></scales>
<clustering>
<clus scale="   40.588">  1  4  2 -1</clus>
<clus scale="   53.884">  1  5  2 -1</clus>
<clus scale="   88.093">  2  3  1 -1</clus>
<clus scale="   88.093">  2  3  1 -1</clus>
</clustering>
</event>
<event>
 6    0  0.1622933E+002  0.1088559E+03  0.7546771E-02  0.1262703E+00
          2   -1    0    0  504    0 -0.00000000000E+00  0.00000000000E+00  0.18433605756E+03  0.18433605756E+03  0.00000000000E+00 0.  1.
         21   -1    0    0  503  502  0.00000000000E+00 -0.00000000000E+00 -0.26509759894E+03  0.26509759894E+03  0.00000000000E+00 0.  1.
         21    1    1    2  503  505 -0.53424355909E+02  0.83727706326E+02 -0.20336908328E+03  0.22632603616E+03  0.00000000000E+00 0.  1.
         21    1    1    2  504  502  0.45281830738E+01  0.40486886111E+02  0.51751767120E+01  0.41066712103E+02  0.00000000000E+00 0.  1.
         21    1    1    2  505  501  0.61312049391E+01 -0.61980630249E+02  0.40803095657E+02  0.74458597994E+02  0.00000000000E+00 0. -1.
          2    1    1    2  501    0  0.42764967896E+02 -0.62233962188E+02  0.76629269531E+02  0.10758231024E+03  0.00000000000E+00 0.  1.
<scales pt_clust_3="101.59317" pt_clust_4="40.73932" pt_clust_5="35.50611" pt_clust_6="35.50611"></scales>
<clustering>
<clus scale="   35.506">  5  6 -1 -1</clus>
<clus scale="   40.739">  1  4  2 -1</clus>
<clus scale="  101.593">  2  3  1 -1</clus>
<clus scale="  101.593">  2  3  1 -1</clus>
</clustering>
</event>
<event>
 6    0  0.1622933E+002  0.7499304E+02  0.7546771E-02  0.1343893E+00
          2   -1    0    0  505    0 -0.00000000000E+00  0.00000000000E+00  0.14487554496E+04  0.14487554496E+04  0.00000000000E+00 0. -1.
         21   -1    0    0  503  502  0.00000000000E+00 -0.00000000000E+00 -0.31542344957E+02  0.31542344957E+02  0.00000000000E+00 0. -1.
         21    1    1    2  503  501 -0.10974255873E+02  0.35478123281E+02 -0.74214476297E+01  0.37870957321E+02  0.00000000000E+00 0. -1.
         21    1    1    2  504  502 -0.53929444507E+02 -0.17202084220E+02  0.30294909833E+03  0.30819223362E+03  0.00000000000E+00 0. -1.
         21    1    1    2  505  504  0.58025103240E+02  0.61532890642E+02  0.45920553380E+03  0.46692925750E+03  0.00000000000E+00 0.  1.
          2    1    1    2  501    0  0.68785971399E+01 -0.79808929703E+02  0.66247992009E+03  0.66730534606E+03  0.00000000000E+00 0. -1.
<scales pt_clust_3="37.13666" pt_clust_4="57.56022" pt_clust_5="74.99304" pt_clust_6="14000.00000"></scales>
<clustering>
<clus scale="   37.137">  2  3  1 -1</clus>
<clus scale="   57.560">  2  4  1 -1</clus>
<clus scale="   74.993">  2  5  1 -1</clus>
<clus scale="   37.137">  2  3  1 -1</clus>
</clustering>
</event>
<event>
 6    0  0.1622933E+002  0.3316965E+03  0.7546771E-02  0.1070389E+00
         21   -1    0    0  504  502  0.00000000000E+00  0.00000000000E+00  0.37340285260E+03  0.37340285260E+03  0.00000000000E+00 0.  1.
          2   -1    0    0  505    0 -0.00000000000E+00 -0.00000000000E+00 -0.16191227006E+04  0.16191227006E+04  0.00000000000E+00 0. -1.
         21    1    1    2  503  502  0.22430008784E+03 -0.28958391944E+03  0.15203188110E+03  0.39658929471E+03  0.00000000000E+00 0.  1.
         21    1    1    2  504  501 -0.29077896338E+02  0.30422731665E+02  0.63655515954E+02  0.76309182729E+02  0.00000000000E+00 0. -1.
         21    1    1    2  505  503  0.14345038806E+02 -0.41937308366E+02 -0.24974526273E+03  0.25364781534E+03  0.00000000000E+00 0. -1.
          2    1    1    2  501    0 -0.20956723031E+03  0.30109849615E+03 -0.12116619824E+04  0.12659792605E+04  0.00000000000E+00 0. -1.
<scales pt_clust_3="331.69647" pt_clust_4="42.08404" pt_clust_5="44.07739" pt_clust_6="14000.00000"></scales>
<clustering>
<clus scale="   42.084">  1  4  2 -1</clus>
<clus scale="   44.077">  2  5  1 -1</clus>
<clus scale="  331.696">  1  3  2 -1</clus>
<clus scale="   42.084">  1  3  2 -1</clus>
</clustering>
</event>
<event>
 6    0  0.1622933E+002  0.3001632E+03  0.7546771E-02  0.1085159E+00
          1   -1    0    0  504    0 -0.00000000000E+00  0.00000000000E+00  0.26674064211E+04  0.26674064211E+04  0.00000000000E+00 0.  1.
         21   -1    0    0  503  502  0.00000000000E+00 -0.00000000000E+00 -0.41592023266E+03  0.41592023266E+03  0.00000000000E+00 0.  1.
         21    1    1    2  503  505  0.22342453075E+03 -0.40309419741E+02  0.40584099464E+02  0.23063052571E+03  0.00000000000E+00 0.  1.
         21    1    1    2  504  502  0.69548949387E+02  0.78589316373E+01 -0.30770707014E+03  0.31556688701E+03  0.00000000000E+00 0.  1.
         21    1    1    2  505  501 -0.50038521966E+02  0.22748607475E+02  0.27908976242E+03  0.28445113519E+03  0.00000000000E+00 0. -1.
          1    1    1    2  501    0 -0.24293495817E+03  0.97018806278E+01  0.22395193967E+04  0.22526781059E+04  0.00000000000E+00 0.  1.
<scales pt_clust_3="288.70704" pt_clust_4="69.99156" pt_clust_5="39.05366" pt_clust_6="39.05366"></scales>
<clustering>
<clus scale="   39.054">  5  6 -1 -1</clus>
<clus scale="   69.992">  2  4  1 -1</clus>
<clus scale="  288.707">  2  3  1 -1</clus>
<clus scale="   69.992">  2  3  1 -1</clus>
</clustering>
</event>
<event>
 6    0  0.1622933E+002  0.1569378E+03  0.7546771E-02  0.1192198E+00
         21   -1    0    0  504  502  0.00000000000E+00  0.00000000000E+00  0.20771973108E+03  0.20771973108E+03  0.00000000000E+00 0.  1.
          2   -1    0    0  505    0 -0.00000000000E+00 -0.00000000000E+00 -0.63381917273E+03  0.63381917273E+03  0.00000000000E+00 0.  1.
         21    1    1    2  503  501  0.32069295216E+02 -0.42332341684E+02 -0.13454917226E+03  0.14465112030E+03  0.00000000000E+00 0.  1.
         21    1    1    2  504  503 -0.36591771316E+02  0.99119944287E+02 -0.69081285783E+02  0.12623765337E+03  0.00000000000E+00 0. -1.
         21    1    1    2  505  502  0.88310525211E+01  0.67146432208E+02  0.15723968697E+03  0.17120441001E+03  0.00000000000E+00 0.  1.
          2    1    1    2  501    0 -0.43085764220E+01 -0.12393403481E+03 -0.37970867059E+03  0.39944572013E+03  0.00000000000E+00 0.  1.
<scales pt_clust_3="36.81679" pt_clust_4="146.50736" pt_clust_5="67.72467" pt_clust_6="36.81679"></scales>
<clustering>
<clus scale="   36.817">  3  6 -1 -1</clus>
<clus scale="   67.725">  1  5  2 -1</clus>
<clus scale="  146.507">  1  4  2 -1</clus>
<clus scale="   67.725">  1  3  2 -1</clus>
</clustering>
</event>
<event>
 6    0  0.1622933E+002  0.1312902E+03  0.7546771E-02  0.1225554E+00
         21   -1    0    0  504  502  0.00000000000E+00  0.00000000000E+00  0.30971013546E+03  0.30971013546E+03  0.00000000000E+00 0.  1.
          2   -1    0    0  505    0 -0.00000000000E+00 -0.00000000000E+00 -0.20450306146E+03  0.20450306146E+03  0.00000000000E+00 0.  1.
         21    1    1    2  503  502  0.27671482705E+02  0.41921812250E+02  0.19676588875E+02  0.53947358112E+02  0.00000000000E+00 0.  1.
         21    1    1    2  504  501 -0.12273446875E+03 -0.13067929969E+03  0.19846858496E+03  0.26745206748E+03  0.00000000000E+00 0.  1.
         21    1    1    2  505  503  0.43760239161E+02 -0.80902224275E+01 -0.18695944694E+02  0.48269540897E+02  0.00000000000E+00 0.  1.
          2    1    1    2  501    0  0.51302746883E+02  0.96847709868E+02 -0.94242155135E+02  0.14454423042E+03  0.00000000000E+00 0.  1.
<scales pt_clust_3="52.13177" pt_clust_4="131.29016" pt_clust_5="44.50180" pt_clust_6="14000.00000"></scales>
<clustering>
<clus scale="   44.502">  2  5  1 -1</clus>
<clus scale="   52.132">  1  3  2 -1</clus>
<clus scale="  131.290">  1  4  2 -1</clus>
<clus scale="   52.132">  1  3  2 -1</clus>
</clustering>
</event>
<event>
 6    0  0.1622933E+002  0.9348819E+02  0.7546771E-02  0.1294618E+00
         21   -1    0    0  504  502  0.00000000000E+00  0.00000000000E+00  0.78227063851E+02  0.78227063851E+02  0.00000000000E+00 0. -1.
          2   -1    0    0  503    0 -0.00000000000E+00 -0.00000000000E+00 -0.30068500427E+03  0.30068500427E+03  0.00000000000E+00 0. -1.
         21    1    1    2  503  505 -0.18805205991E+02  0.31710284186E+02 -0.41896992402E+02  0.55808026912E+02  0.00000000000E+00 0.  1.
         21    1    1    2  504  501 -0.16188999849E+02 -0.10024155412E+03 -0.87221602678E+02  0.13385836119E+03  0.00000000000E+00 0.  1.
         21    1    1    2  505  502 -0.10759416468E+01  0.90466272990E+02 -0.41477296948E+01  0.90567697667E+02  0.00000000000E+00 0. -1.
          2    1    1    2  501    0  0.36070147487E+02 -0.21935003058E+02 -0.89191615644E+02  0.98677982347E+02  0.00000000000E+00 0. -1.
<scales pt_clust_3="36.86703" pt_clust_4="14000.00000" pt_clust_5="93.48819" pt_clust_6="30.76335"></scales>
<clustering>
<clus scale="   36.867">  2  3  1 -1</clus>
<clus scale="   30.763">  2  6  1 -1</clus>
<clus scale="   93.488">  1  5  2 -1</clus>
<clus scale="   93.488">  1  3  2 -1</clus>
</clustering>
</event>
<event>
 6    0  0.1622933E+002  0.3043120E+03  0.7546771E-02  0.1083105E+00
         21   -1    0    0  504  502  0.00000000000E+00  0.00000000000E+00  0.40361074874E+03  0.40361074874E+03  0.00000000000E+00 0.  1.
          2   -1    0    0  503    0 -0.00000000000E+00 -0.00000000000E+00 -0.14855240697E+04  0.14855240697E+04  0.00000000000E+00 0. -1.
         21    1    1    2  503  505 -0.16230195628E+03  0.19090277647E+03 -0.22430303334E+02  0.25157287927E+03  0.00000000000E+00 0.  1.
         21    1    1    2  504  501  0.65949420598E+02 -0.80934656313E+02 -0.27558544997E+03  0.29469829471E+03  0.00000000000E+00 0. -1.
         21    1    1    2  505  502  0.26586972560E+02  0.63920656871E+02  0.26677741584E+03  0.27561369176E+03  0.00000000000E+00 0.  1.
          2    1    1    2  501    0  0.69765563120E+02 -0.17388877702E+03 -0.10506749835E+04  0.10672499527E+04  0.00000000000E+00 0. -1.
<scales pt_clust_3="282.88349" pt_clust_4="83.50543" pt_clust_5="69.22946" pt_clust_6="83.50543"></scales>
<clustering>
<clus scale="   69.229">  1  5  2 -1</clus>
<clus scale="   83.505">  4  6 -1 -1</clus>
<clus scale="  282.883">  1  3  2 -1</clus>
<clus scale="   69.229">  1  3  2 -1</clus>
</clustering>
</event>
<event>
 6    0  0.1622933E+002  0.1498405E+03  0.7546771E-02  0.1200669E+00
          1   -1    0    0  505    0 -0.00000000000E+00  0.00000000000E+00  0.50304875722E+03  0.50304875722E+03  0.00000000000E+00 0.  1.
         21   -1    0    0  501  502  0.00000000000E+00 -0.00000000000E+00 -0.12792612595E+04  0.12792612595E+04  0.00000000000E+00 0.  1.
         21    1    1    2  503  504 -0.19999114551E+02 -0.41737503289E+02  0.86699388981E+00  0.46289690451E+02  0.00000000000E+00 0.  1.
         21    1    1    2  504  502 -0.14183630678E+03 -0.47922439481E+02 -0.12250426153E+04  0.12341570028E+04  0.00000000000E+00 0.  1.
         21    1    1    2  505  503  0.31668635734E+02 -0.29232032304E+02  0.46512299715E+02  0.63409843295E+02  0.00000000000E+00 0. -1.
          1    1    1    2  501    0  0.13016678559E+03  0.11889197507E+03  0.40145081948E+03  0.43845348017E+03  0.00000000000E+00 0.  1.
<scales pt_clust_3="46.99866" pt_clust_4="149.84051" pt_clust_5="43.09773" pt_clust_6="14000.00000"></scales>
<clustering>
<clus scale="   43.098">  1  5  2 -1</clus>
<clus scale="   46.999">  1  3  2 -1</clus>
<clus scale="  149.841">  2  4  1 -1</clus>
<clus scale="  149.841">  2  3  1 -1</clus>
</clustering>
</event>
<event>
 6    0  0.1622933E+002  0.1351458E+03  0.7546771E-02  0.1220014E+00
         21   -1    0    0  504  502  0.00000000000E+00  0.00000000000E+00  0.87188524386E+03  0.87188524386E+03  0.00000000000E+00 0.  1.
          2   -1    0    0  503    0 -0.00000000000E+00 -0.00000000000E+00 -0.25110623932E+03  0.25110623932E+03  0.00000000000E+00 0.  1.
         21    1    1    2  503  505 -0.24502466386E+02 -0.11624857887E+03 -0.18302751393E+03  0.21820443122E+03  0.00000000000E+00 0.  1.
         21    1    1    2  504  501 -0.36173325886E+02  0.12612499893E+03  0.12675936543E+03  0.18243892563E+03  0.00000000000E+00 0.  1.
         21    1    1    2  505  502  0.49443932665E+02 -0.71870743601E+02  0.64644703575E+03  0.65230658152E+03  0.00000000000E+00 0.  1.
          2    1    1    2  501    0  0.11231859607E+02  0.61994323541E+02  0.30600117284E+02  0.70041544810E+02  0.00000000000E+00 0.  1.
<scales pt_clust_3="123.65665" pt_clust_4="37.78574" pt_clust_5="87.23592" pt_clust_6="37.78574"></scales>
<clustering>
<clus scale="   37.786">  4  6 -1 -1</clus>
<clus scale="   87.236">  1  5  2 -1</clus>
<clus scale="  123.657">  2  3  1 -1</clus>
<clus scale="   87.236">  1  3  2 -1</clus>
</clustering>
</event>
<event>
 6    0  0.1622933E+002  0.9824476E+02  0.7546771E-02  0.1284031E+00
          1   -1    0    0  505    0 -0.00000000000E+00  0.00000000000E+00  0.14229340160E+04  0.14229340160E+04  0.00000000000E+00 0. -1.
         21   -1    0    0  501  502  0.00000000000E+00 -0.00000000000E+00 -0.66090718174E+02  0.66090718174E+02  0.00000000000E+00 0. -1.
         21    1    1    2  503  504  0.17585054483E+02 -0.58945854554E+02  0.11985157858E+03  0.13471543638E+03  0.00000000000E+00 0. -1.
         21    1    1    2  504  502 -0.20352874864E+02 -0.53750628635E+02 -0.33025848524E+02  0.66287828933E+02  0.00000000000E+00 0. -1.
         21    1    1    2  505  503 -0.28303651256E+02  0.14793174481E+03  0.69732229695E+03  0.71340260977E+03  0.00000000000E+00 0. -1.
          1    1    1    2  501    0  0.31071471637E+02 -0.35235261625E+02  0.57269527078E+03  0.57461885906E+03  0.00000000000E+00 0. -1.
<scales pt_clust_3="14000.00000" pt_clust_4="57.91048" pt_clust_5="98.24476" pt_clust_6="46.97829"></scales>
<clustering>
<clus scale="   46.978">  1  6  2 -1</clus>
<clus scale="   57.910">  2  4  1 -1</clus>
<clus scale="   98.245">  1  5  2 -1</clus>
<clus scale="   57.910">  2  3  1 -1</clus>
</clustering>
</event>
<event>
 6    0  0.1622933E+002  0.1441805E+03  0.7546771E-02  0.1207812E+00
         -2   -1    0    0    0  501 -0.00000000000E+00  0.00000000000E+00  0.33981587783E+03  0.33981587783E+03  0.00000000000E+00 0.  1.
         21   -1    0    0  504  502  0.00000000000E+00 -0.00000000000E+00 -0.34880025352E+04  0.34880025352E+04  0.00000000000E+00 0.  1.
         21    1    1    2  503  502 -0.14351001394E+03 -0.69543774723E+01 -0.31851331100E+04  0.31883720636E+04  0.00000000000E+00 0.  1.
         21    1    1    2  504  501 -0.70173509603E+02 -0.12481803267E+02 -0.35074142711E+02  0.79437474467E+02  0.00000000000E+00 0.  1.
         21    1    1    2  505  503  0.14983335998E+03  0.13867960307E+03 -0.18116819344E+03  0.27295417634E+03  0.00000000000E+00 0.  1.
         -2    1    1    2    0  505  0.63850163567E+02 -0.11924342233E+03  0.25318878885E+03  0.28705469855E+03  0.00000000000E+00 0.  1.
<scales pt_clust_3="14000.00000" pt_clust_4="71.27494" pt_clust_5="144.18046" pt_clust_6="129.92521"></scales>
<clustering>
<clus scale="   71.275">  1  4  2 -1</clus>
<clus scale="  129.925">  1  6  2 -1</clus>
<clus scale="  144.180">  1  5  2 -1</clus>
<clus scale="  144.180">  2  3  1 -1</clus>
</clustering>
</event>
<event>
 6    0  0.1622933E+002  0.1762058E+03  0.7546771E-02  0.1171526E+00
         21   -1    0    0  505  502  0.00000000000E+00  0.00000000000E+00  0.65133835619E+02  0.65133835619E+02  0.00000000000E+00 0. -1.
          2   -1    0    0  504    0 -0.00000000000E+00 -0.00000000000E+00 -0.42221917971E+04  0.42221917971E+04  0.00000000000E+00 0. -1.
         21    1    1    2  503  501  0.49608067728E+02  0.50856504925E+02 -0.88106741356E+03  0.88392710770E+03  0.00000000000E+00 0.  1.
         21    1    1    2  504  502  0.61325349538E+02 -0.22907696661E+02 -0.13122669126E+04  0.13138987826E+04  0.00000000000E+00 0.  1.
         21    1    1    2  505  503 -0.13927166773E+03 -0.90439396745E+02 -0.48430648725E+02  0.17297806119E+03  0.00000000000E+00 0. -1.
          2    1    1    2  501    0  0.28338250463E+02  0.62490588481E+02 -0.19152929866E+04  0.19165216813E+04  0.00000000000E+00 0. -1.
<scales pt_clust_3="61.83365" pt_clust_4="65.46420" pt_clust_5="164.58958" pt_clust_6="61.83365"></scales>
<clustering>
<clus scale="   61.834">  3  6 -1 -1</clus>
<clus scale="   65.464">  2  4  1 -1</clus>
<clus scale="  164.590">  1  5  2 -1</clus>
<clus scale="  164.590">  1  3  2 -1</clus>
</clustering>
</event>
<event>
 6    0  0.1622933E+002  0.1113862E+03  0.7546771E-02  0.1258024E+00
         21   -1    0    0  503  502  0.00000000000E+00  0.00000000000E+00  0.16248963539E+03  0.16248963539E+03  0.00000000000E+00 0. -1.
         -2   -1    0    0    0  501 -0.00000000000E+00 -0.00000000000E+00 -0.32876323597E+03  0.32876323597E+03  0.00000000000E+00 0. -1.
         21    1    1    2  503  504 -0.36856795991E+01 -0.47751602589E+02  0.10847415663E+02  0.49106681934E+02  0.00000000000E+00 0. -1.
         21    1    1    2  504  501  0.10288910002E+03  0.48120741836E+01 -0.83552546797E+02  0.13262862073E+03  0.00000000000E+00 0. -1.
         21    1    1    2  505  502  0.58182491675E+01 -0.37108742472E+02  0.81788449439E+02  0.90001451393E+02  0.00000000000E+00 0. -1.
         -2    1    1    2    0  505 -0.10502166959E+03  0.80048270878E+02 -0.17535691889E+03  0.21951611730E+03  0.00000000000E+00 0. -1.
<scales pt_clust_3="62.29087" pt_clust_4="111.38624" pt_clust_5="37.56209" pt_clust_6="14000.00000"></scales>
<clustering>
<clus scale="   37.562">  1  5  2 -1</clus>
<clus scale="   62.291">  1  3  2 -1</clus>
<clus scale="  111.386">  1  4  2 -1</clus>
<clus scale="   37.562">  1  3  2 -1</clus>
</clustering>
</event>
<event>
 6    0  0.1622933E+002  0.1410095E+03  0.7546771E-02  0.1211977E+00
         21   -1    0    0  501  502  0.00000000000E+00  0.00000000000E+00  0.70425112078E+02  0.70425112078E+02  0.00000000000E+00 0.  1.
          2   -1    0    0  504    0 -0.00000000000E+00 -0.00000000000E+00 -0.87586247361E+03  0.87586247361E+03  0.00000000000E+00 0.  1.
         21    1    1    2  503  505  0.26069800791E+02 -0.11761370461E+03 -0.39813310400E+03  0.41595983763E+03  0.00000000000E+00 0.  1.
         21    1    1    2  504  503 -0.29586759463E+02 -0.10041490439E+02 -0.11003564780E+03  0.11438553953E+03  0.00000000000E+00 0.  1.
         21    1    1    2  505  502  0.21245725729E+02  0.20689626192E+03 -0.23348457904E+03  0.31268593302E+03  0.00000000000E+00 0.  1.
          2    1    1    2  501    0 -0.17728767056E+02 -0.79241066874E+02 -0.63784030692E+02  0.10325627551E+03  0.00000000000E+00 0.  1.
<scales pt_clust_3="14000.00000" pt_clust_4="31.24433" pt_clust_5="141.00954" pt_clust_6="83.02963"></scales>
<clustering>
<clus scale="   31.244">  2  4  1 -1</clus>
<clus scale="   83.030">  1  6  2 -1</clus>
<clus scale="  141.010">  1  5  2 -1</clus>
<clus scale="   83.030">  1  3  2 -1</clus>
</clustering>
</event>
<event>
 6    0  0.1622933E+002  0.9583463E+02  0.7546771E-02  0.1289307E+00
         21   -1    0    0  501  502  0.00000000000E+00  0.00000000000E+00  0.39598347953E+02  0.39598347953E+02  0.00000000000E+00 0. -1.
          1   -1    0    0  503    0 -0.00000000000E+00 -0.00000000000E+00 -0.10433963797E+04  0.10433963797E+04  0.00000000000E+00 0. -1.
         21    1    1    2  503  505 -0.58939685474E+01  0.34668942104E+02 -0.28184984463E+03  0.28403522551E+03  0.00000000000E+00 0.  1.
         21    1    1    2  504  502 -0.35243458072E+02  0.16341985576E+02  0.70284234414E+01  0.39478608961E+02  0.00000000000E+00 0. -1.
         21    1    1    2  505  504  0.92097677510E+02  0.43881411075E+02 -0.28780501994E+03  0.30535109292E+03  0.00000000000E+00 0.  1.
          1    1    1    2  501    0 -0.50960250891E+02 -0.94892338754E+02 -0.44117159060E+03  0.45412980026E+03  0.00000000000E+00 0. -1.
<scales pt_clust_3="35.16638" pt_clust_4="39.27805" pt_clust_5="14000.00000" pt_clust_6="95.83463"></scales>
<clustering>
<clus scale="   35.166">  2  3  1 -1</clus>
<clus scale="   39.278">  1  4  2 -1</clus>
<clus scale="   95.835">  2  6  1 -1</clus>
<clus scale="   39.278">  1  3  2 -1</clus>
</clustering>
</event>
<event>
 6    0  0.1622933E+002  0.1567987E+03  0.7546771E-02  0.1192359E+00
          2   -1    0    0  503    0 -0.00000000000E+00  0.00000000000E+00  0.42408251331E+03  0.42408251331E+03  0.00000000000E+00 0. -1.
         21   -1    0    0  504  502  0.00000000000E+00 -0.00000000000E+00 -0.44335952294E+03  0.44335952294E+03  0.00000000000E+00 0. -1.
         21    1    1    2  503  502 -0.55823649724E+01  0.36964130153E+02  0.14124128606E+02  0.39962491483E+02  0.00000000000E+00 0.  1.
         21    1    1    2  504  505  0.38401319826E+02 -0.30069731782E+02 -0.36078158043E+03  0.36406345451E+03  0.00000000000E+00 0. -1.
         21    1    1    2  505  501  0.11848912808E+03 -0.64442021554E+02  0.53158371491E+02  0.14497675701E+03  0.00000000000E+00 0.  1.
          2    1    1    2  501    0 -0.15130808293E+03  0.57547623183E+02  0.27422207070E+03  0.31843933324E+03  0.00000000000E+00 0. -1.
<scales pt_clust_3="37.38328" pt_clust_4="48.66122" pt_clust_5="14000.00000" pt_clust_6="156.79869"></scales>
<clustering>
<clus scale="   37.383">  1  3  2 -1</clus>
<clus scale="   48.661">  2  4  1 -1</clus>
<clus scale="  156.799">  1  6  2 -1</clus>
<clus scale="   48.661">  2  3  1 -1</clus>
</clustering>
</event>
<event>
 6    0  0.1622933E+002  0.1558377E+03  0.7546771E-02  0.1193478E+00
          2   -1    0    0  505    0 -0.00000000000E+00  0.00000000000E+00  0.58631747713E+03  0.58631747713E+03  0.00000000000E+00 0.  1.
         21   -1    0    0  504  502  0.00000000000E+00 -0.00000000000E+00 -0.24286867624E+03  0.24286867624E+03  0.00000000000E+00 0.  1.
         21    1    1    2  503  501  0.66397240974E+02  0.29174292491E+02  0.10118965118E+03  0.12449529492E+03  0.00000000000E+00 0. -1.
         21    1    1    2  504  503 -0.10574498949E+03 -0.15087494114E+02 -0.18393376443E+03  0.21269994118E+03  0.00000000000E+00 0.  1.
         21    1    1    2  505  502 -0.46188814246E+02 -0.10227576688E+03  0.13250434677E+03  0.17364083899E+03  0.00000000000E+00 0.  1.
          2    1    1    2  501    0  0.85536562758E+02  0.88188968500E+02  0.29368856737E+03  0.31835007828E+03  0.00000000000E+00 0.  1.
<scales pt_clust_3="44.30475" pt_clust_4="106.81589" pt_clust_5="144.77633" pt_clust_6="44.30475"></scales>
<clustering>
<clus scale="   44.305">  3  6 -1 -1</clus>
<clus scale="  106.816">  2  4  1 -1</clus>
<clus scale="  144.776">  1  5  2 -1</clus>
<clus scale="  106.816">  2  3  1 -1</clus>
</clustering>
</event>
<event>
 6    0  0.1622933E+002  0.1095098E+03  0.7546771E-02  0.1261480E+00
         21   -1    0    0  503  502  0.00000000000E+00  0.00000000000E+00  0.69806838219E+03  0.69806838219E+03  0.00000000000E+00 0.  1.
          1   -1    0    0  505    0 -0.00000000000E+00 -0.00000000000E+00 -0.14429695883E+04  0.14429695883E+04  0.00000000000E+00 0.  1.
         21    1    1    2  503  501 -0.51389564935E+02  0.54291452573E+02 -0.26148568439E+03  0.27196178472E+03  0.00000000000E+00 0.  1.
         21    1    1    2  504  502  0.86297195398E+02 -0.68372985651E+02  0.67882938701E+03  0.68770008562E+03  0.00000000000E+00 0.  1.
         21    1    1    2  505  504  0.44215351595E+02  0.47469958075E+02 -0.12732145571E+03  0.14289558188E+03  0.00000000000E+00 0. -1.
          1    1    1    2  501    0 -0.79122982058E+02 -0.33388424997E+02 -0.10349234530E+04  0.10384805182E+04  0.00000000000E+00 0.  1.
<scales pt_clust_3="109.50984" pt_clust_4="14000.00000" pt_clust_5="64.87214" pt_clust_6="44.27824"></scales>
<clustering>
<clus scale="   64.872">  2  5  1 -1</clus>
<clus scale="   44.278">  2  6  1 -1</clus>
<clus scale="  109.510">  2  3  1 -1</clus>
<clus scale="  109.510">  1  3  2 -1</clus>
</clustering>
</event>
<event>
 6    0  0.1622933E+002  0.1021976E+03  0.7546771E-02  0.1275742E+00
          2   -1    0    0  505    0 -0.00000000000E+00  0.00000000000E+00  0.23034911100E+03  0.23034911100E+03  0.00000000000E+00 0.  1.
         21   -1    0    0  503  502  0.00000000000E+00 -0.00000000000E+00 -0.34105819381E+03  0.34105819381E+03  0.00000000000E+00 0.  1.
         21    1    1    2  503  501 -0.66387498512E+02 -0.12901050145E+03 -0.26296669419E+02  0.14745346475E+03  0.00000000000E+00 0.  1.
         21    1    1    2  504  502  0.28601281359E+02 -0.28445378580E+02 -0.19809349568E+03  0.20215886300E+03  0.00000000000E+00 0.  1.
         21    1    1    2  505  504 -0.37100100803E+01  0.73183235136E+02 -0.13409435743E+01  0.73289482256E+02  0.00000000000E+00 0.  1.
          2    1    1    2  501    0  0.41496227234E+02  0.84272644896E+02  0.11502202587E+03  0.14850549480E+03  0.00000000000E+00 0.  1.
<scales pt_clust_3="14000.00000" pt_clust_4="40.33823" pt_clust_5="65.76517" pt_clust_6="102.19755"></scales>
<clustering>
<clus scale="   40.338">  2  4  1 -1</clus>
<clus scale="   65.765">  2  5  1 -1</clus>
<clus scale="  102.198">  1  6  2 -1</clus>
<clus scale="   40.338">  2  3  1 -1</clus>
</clustering>
</event>
<event>
 6    0  0.1622933E+002  0.9798265E+02  0.7546771E-02  0.1284596E+00
         21   -1    0    0  504  502  0.00000000000E+00  0.00000000000E+00  0.19395625579E+03  0.19395625579E+03  0.00000000000E+00 0. -1.
         -1   -1    0    0    0  501 -0.00000000000E+00 -0.00000000000E+00 -0.36982434197E+03  0.36982434197E+03  0.00000000000E+00 0. -1.
         21    1    1    2  503  505 -0.72342878505E+02  0.34424569333E+02 -0.61787218651E+02  0.10117412432E+03  0.00000000000E+00 0.  1.
         21    1    1    2  504  501 -0.11785866134E+02 -0.28222112956E+02 -0.37320522613E+02  0.48251587625E+02  0.00000000000E+00 0.  1.
         21    1    1    2  505  502 -0.33922886863E+02 -0.31984015045E+01  0.15261156820E+03  0.15636905951E+03  0.00000000000E+00 0. -1.
         -1    1    1    2    0  503  0.11805163150E+03 -0.30040548722E+01 -0.22937191312E+03  0.25798582630E+03  0.00000000000E+00 0. -1.
<scales pt_clust_3="97.98265" pt_clust_4="30.58422" pt_clust_5="34.15631" pt_clust_6="14000.00000"></scales>
<clustering>
<clus scale="   30.584">  2  4  1 -1</clus>
<clus scale="   34.156">  1  5  2 -1</clus>
<clus scale="   97.983">  1  3  2 -1</clus>
<clus scale="   34.156">  1  3  2 -1</clus>
</clustering>
</event>
<event>
 6    0  0.1622933E+002  0.1087092E+03  0.7546771E-02  0.1262979E+00
          2   -1    0    0  504    0 -0.00000000000E+00  0.00000000000E+00  0.23715451669E+04  0.23715451669E+04  0.00000000000E+00 0.  1.
         21   -1    0    0  501  502  0.00000000000E+00 -0.00000000000E+00 -0.78779638330E+03  0.78779638330E+03  0.00000000000E+00 0.  1.
         21    1    1    2  503  502 -0.84895313292E+02 -0.67252225155E+02 -0.76532328269E+03  0.77294877129E+03  0.00000000000E+00 0.  1.
         21    1    1    2  504  505  0.35902975017E+02 -0.26336755828E+02  0.17180672792E+03  0.17748295716E+03  0.00000000000E+00 0.  1.
         21    1    1    2  505  503  0.88289785448E+02  0.16920724430E+03  0.60620060787E+03  0.63553548659E+03  0.00000000000E+00 0.  1.
          2    1    1    2  501    0 -0.39297447173E+02 -0.75618263322E+02  0.15710647305E+04  0.15733743352E+04  0.00000000000E+00 0.  1.
<scales pt_clust_3="108.70916" pt_clust_4="44.52694" pt_clust_5="14000.00000" pt_clust_6="95.44069"></scales>
<clustering>
<clus scale="   44.527">  1  4  2 -1</clus>
<clus scale="   95.441">  1  6  2 -1</clus>
<clus scale="  108.709">  2  3  1 -1</clus>
<clus scale="  108.709">  2  3  1 -1</clus>
</clustering>
</event>
<event>
 6    0  0.1622933E+002  0.1081902E+03  0.7546771E-02  0.1263958E+00
         21   -1    0    0  501  502  0.00000000000E+00  0.00000000000E+00  0.10827996911E+03  0.10827996911E+03  0.00000000000E+00 0. -1.
          2   -1    0    0  504    0 -0.00000000000E+00 -0.00000000000E+00 -0.26399998165E+04  0.26399998165E+04  0.00000000000E+00 0. -1.
         21    1    1    2  503  502  0.99429208090E+02  0.46467535084E+02  0.74951939499E+02  0.13290294381E+03  0.00000000000E+00 0. -1.
         21    1    1    2  504  505 -0.92577584158E+01  0.36986708152E+02 -0.39153251358E+03  0.39338458519E+03  0.00000000000E+00 0. -1.
         21    1    1    2  505  503 -0.72798308445E+02 -0.32349680383E+02 -0.52669106626E+03  0.53268149471E+03  0.00000000000E+00 0.  1.
          2    1    1    2  501    0 -0.17373141229E+02 -0.51104562852E+02 -0.16884482070E+04  0.16893107619E+04  0.00000000000E+00 0. -1.
<scales pt_clust_3="108.19021" pt_clust_4="38.12772" pt_clust_5="14000.00000" pt_clust_6="33.69512"></scales>
<clustering>
<clus scale="   38.128">  2  4  1 -1</clus>
<clus scale="   33.695">  2  6  1 -1</clus>
<clus scale="  108.190">  1  3  2 -1</clus>
<clus scale="  108.190">  1  3  2 -1</clus>
</clustering>
</event>
<event>
 6    0  0.1622933E+002  0.1162686E+03  0.7546771E-02  0.1249383E+00
         21   -1    0    0  505  502  0.00000000000E+00  0.00000000000E+00  0.73847621572E+02  0.73847621572E+02  0.00000000000E+00 0.  1.
          3   -1    0    0  503    0 -0.00000000000E+00 -0.00000000000E+00 -0.16429997525E+04  0.16429997525E+04  0.00000000000E+00 0.  1.
         21    1    1    2  503  502  0.37574670838E+02  0.42818349561E+02 -0.17768983717E+03  0.18659835256E+03  0.00000000000E+00 0.  1.
         21    1    1    2  504  501 -0.48578901748E+02 -0.79973767662E+02 -0.24547868904E+03  0.26270801279E+03  0.00000000000E+00 0. -1.
         21    1    1    2  505  504  0.37283790548E+02  0.11665472856E+03 -0.40428424991E+01  0.12253469431E+03  0.00000000000E+00 0.  1.
          3    1    1    2  501    0 -0.26279559637E+02 -0.79499310462E+02 -0.11419407622E+04  0.11450063144E+04  0.00000000000E+00 0.  1.
<scales pt_clust_3="56.96724" pt_clust_4="116.26861" pt_clust_5="14000.00000" pt_clust_6="46.09010"></scales>
<clustering>
<clus scale="   56.967">  2  3  1 -1</clus>
<clus scale="   46.090">  2  6  1 -1</clus>
<clus scale="  116.269">  2  4  1 -1</clus>
<clus scale="  116.269">  1  3  2 -1</clus>
</clustering>
</event>
<event>
 6    0  0.1622933E+002  0.2174042E+03  0.7546771E-02  0.1135833E+00
         21   -1    0    0  504  502  0.00000000000E+00  0.00000000000E+00  0.29652759999E+03  0.29652759999E+03  0.00000000000E+00 0.  1.
          1   -1    0    0  503    0 -0.00000000000E+00 -0.00000000000E+00 -0.38469596109E+03  0.38469596109E+03  0.00000000000E+00 0. -1.
         21    1    1    2  503  505  0.10724675402E+03 -0.11769954545E+03 -0.83693839190E+01  0.15945248770E+03  0.00000000000E+00 0.  1.
         21    1    1    2  504  501 -0.14019508388E+03  0.50553376065E+02 -0.10837994622E+03  0.18427294462E+03  0.00000000000E+00 0. -1.
         21    1    1    2  505  502  0.97838764543E+02 -0.65486959285E+01  0.15132069646E+03  0.18031434342E+03  0.00000000000E+00 0.  1.
          1    1    1    2  501    0 -0.64890434683E+02  0.73694865311E+02 -0.12273972742E+03  0.15718378534E+03  0.00000000000E+00 0. -1.
<scales pt_clust_3="203.92618" pt_clust_4="61.16799" pt_clust_5="98.05768" pt_clust_6="61.16799"></scales>
<clustering>
<clus scale="   61.168">  4  6 -1 -1</clus>
<clus scale="   98.058">  1  5  2 -1</clus>
<clus scale="  203.926">  1  3  2 -1</clus>
<clus scale="   98.058">  1  3  2 -1</clus>
</clustering>
</event>
<event>
 6    0  0.1622933E+002  0.1087704E+03  0.7546771E-02  0.1262864E+00
          2   -1    0    0  504    0 -0.00000000000E+00  0.00000000000E+00  0.95758438340E+03  0.95758438340E+03  0.00000000000E+00 0.  1.
         21   -1    0    0  505  502  0.00000000000E+00 -0.00000000000E+00 -0.19097658036E+04  0.19097658036E+04  0.00000000000E+00 0.  1.
         21    1    1    2  503  501 -0.70472031385E+02 -0.29000762825E+02  0.34882592317E+02  0.83810182548E+02  0.00000000000E+00 0.  1.
         21    1    1    2  504  502  0.38467262641E+01 -0.36118144031E+02  0.27488447018E+03  0.27727385304E+03  0.00000000000E+00 0. -1.
         21    1    1    2  505  503 -0.36471424072E+02 -0.16930237332E+02 -0.18769134617E+04  0.18773441188E+04  0.00000000000E+00 0.  1.
          2    1    1    2  501    0  0.10309672919E+03  0.82049144189E+02  0.61496497902E+03  0.62892203257E+03  0.00000000000E+00 0.  1.
<scales pt_clust_3="14000.00000" pt_clust_4="36.32241" pt_clust_5="40.21313" pt_clust_6="108.77042"></scales>
<clustering>
<clus scale="   36.322">  1  4  2 -1</clus>
<clus scale="   40.213">  2  5  1 -1</clus>
<clus scale="  108.770">  1  6  2 -1</clus>
<clus scale="   40.213">  2  3  1 -1</clus>
</clustering>
</event>
<event>
 6    0  0.1622933E+002  0.1662468E+03  0.7546771E-02  0.1181819E+00
         -2   -1    0    0    0  501 -0.00000000000E+00  0.00000000000E+00  0.36949841523E+03  0.36949841523E+03  0.00000000000E+00 0. -1.
         21   -1    0    0  504  502  0.00000000000E+00 -0.00000000000E+00 -0.11175798398E+03  0.11175798398E+03  0.00000000000E+00 0. -1.
         21    1    1    2  503  501 -0.21567386770E+02 -0.16106839825E+03  0.61006345609E+02  0.17357982397E+03  0.00000000000E+00 0. -1.
         21    1    1    2  504  503 -0.37062654750E+02  0.15390726608E+02 -0.11414053107E+02  0.41722840879E+02  0.00000000000E+00 0. -1.
         21    1    1    2  505  502  0.13255950313E+02  0.36710850783E+02  0.93869911105E+02  0.10166103971E+03  0.00000000000E+00 0. -1.
         -2    1    1    2    0  505  0.45374091207E+02  0.10896682086E+03  0.11427822764E+03  0.16429269464E+03  0.00000000000E+00 0. -1.
<scales pt_clust_3="157.77116" pt_clust_4="40.13122" pt_clust_5="30.13479" pt_clust_6="30.13479"></scales>
<clustering>
<clus scale="   30.135">  5  6 -1 -1</clus>
<clus scale="   40.131">  2  4  1 -1</clus>
<clus scale="  157.771">  2  3  1 -1</clus>
<clus scale="   40.131">  2  3  1 -1</clus>
</clustering>
</event>
<event>
 6    0  0.1622933E+002  0.1568002E+03  0.7546771E-02  0.1192357E+00
          2   -1    0    0  503    0 -0.00000000000E+00  0.00000000000E+00  0.31904081634E+03  0.31904081634E+03  0.00000000000E+00 0. -1.
         21   -1    0    0  504  502  0.00000000000E+00 -0.00000000000E+00 -0.82084365647E+03  0.82084365647E+03  0.00000000000E+00 0.  1.
         21    1    1    2  503  505 -0.56738310947E+02  0.50738390401E+02  0.55692979250E+02  0.94315047195E+02  0.00000000000E+00 0.  1.
         21    1    1    2  504  501 -0.75539737548E+01 -0.61060783895E+02 -0.42530538769E+02  0.74795244350E+02  0.00000000000E+00 0. -1.
         21    1    1    2  505  502  0.16490398908E+02 -0.10367282933E+03 -0.72202883381E+03  0.72962019274E+03  0.00000000000E+00 0.  1.
          2    1    1    2  501    0  0.47801885793E+02  0.11399522283E+03  0.20706355320E+03  0.24115398852E+03  0.00000000000E+00 0. -1.
<scales pt_clust_3="75.23814" pt_clust_4="61.52627" pt_clust_5="14000.00000" pt_clust_6="156.80025"></scales>
<clustering>
<clus scale="   61.526">  2  4  1 -1</clus>
<clus scale="   75.238">  1  3  2 -1</clus>
<clus scale="  156.800">  1  6  2 -1</clus>
<clus scale="   61.526">  2  3  1 -1</clus>
</clustering>
</event>
<event>
 6    0  0.1622933E+002  0.6699561E+02  0.7546771E-02  0.1370618E+00
          2   -1    0    0  505    0 -0.00000000000E+00  0.00000000000E+00  0.59881038799E+03  0.59881038799E+03  0.00000000000E+00 0. -1.
         21   -1    0    0  503  502  0.00000000000E+00 -0.00000000000E+00 -0.15023955404E+04  0.15023955404E+04  0.00000000000E+00 0. -1.
         21    1    1    2  503  501 -0.27242596516E+02 -0.61115312944E+02 -0.14729122652E+04  0.14744313418E+04  0.00000000000E+00 0. -1.
         21    1    1    2  504  502  0.46183307387E+02 -0.33171965158E+02  0.12767321531E+03  0.13976311052E+03  0.00000000000E+00 0.  1.
         21    1    1    2  505  504 -0.11091129927E+02 -0.35216075253E+02  0.12983657969E+02  0.39137711910E+02  0.00000000000E+00 0.  1.
          2    1    1    2  501    0 -0.78495809440E+01  0.12950335335E+03  0.42867023951E+03  0.44787376423E+03  0.00000000000E+00 0. -1.
<scales pt_clust_3="14000.00000" pt_clust_4="60.11548" pt_clust_5="36.92134" pt_clust_6="66.99561"></scales>
<clustering>
<clus scale="   36.921">  1  5  2 -1</clus>
<clus scale="   60.115">  1  4  2 -1</clus>
<clus scale="   66.996">  1  6  2 -1</clus>
<clus scale="   66.996">  2  3  1 -1</clus>
</clustering>
</event>
<event>
 6    0  0.1622933E+002  0.1162842E+03  0.7546771E-02  0.1249356E+00
          2   -1    0    0  505    0 -0.00000000000E+00  0.00000000000E+00  0.87882982878E+03  0.87882982878E+03  0.00000000000E+00 0.  1.
         21   -1    0    0  503  502  0.00000000000E+00 -0.00000000000E+00 -0.88574536458E+02  0.88574536458E+02  0.00000000000E+00 0.  1.
         21    1    1    2  503  501  0.81195251829E+02 -0.97363395724E+01  0.81289978611E+02  0.11530622642E+03  0.00000000000E+00 0.  1.
         21    1    1    2  504  502 -0.13315547811E+03  0.62863135630E+02  0.14787105244E+02  0.14798923492E+03  0.00000000000E+00 0.  1.
         21    1    1    2  505  504 -0.18906841182E+02 -0.41473214573E+02  0.29973336563E+03  0.30317913293E+03  0.00000000000E+00 0.  1.
          2    1    1    2  501    0  0.70867067459E+02 -0.11653581485E+02  0.39444484283E+03  0.40092977097E+03  0.00000000000E+00 0.  1.
<scales pt_clust_3="14000.00000" pt_clust_4="116.28421" pt_clust_5="45.57956" pt_clust_6="70.45277"></scales>
<clustering>
<clus scale="   45.580">  1  5  2 -1</clus>
<clus scale="   70.453">  1  6  2 -1</clus>
<clus scale="  116.284">  2  4  1 -1</clus>
<clus scale="  116.284">  2  3  1 -1</clus>
</clustering>
</event>
<event>
 6    0  0.1622933E+002  0.7608149E+02  0.7546771E-02  0.1340554E+00
         21   -1    0    0  503  502  0.00000000000E+00  0.00000000000E+00  0.21105907770E+03  0.21105907770E+03  0.00000000000E+00 0.  1.
          4   -1    0    0  504    0 -0.00000000000E+00 -0.00000000000E+00 -0.33545210649E+03  0.33545210649E+03  0.00000000000E+00 0.  1.
         21    1    1    2  503  501  0.26391996128E+02 -0.14915532155E+02  0.10554956611E+03  0.10981676313E+03  0.00000000000E+00 0.  1.
         21    1    1    2  504  505 -0.34643237386E+02  0.67719277197E+02 -0.24429055280E+03  0.25585919680E+03  0.00000000000E+00 0.  1.
         21    1    1    2  505  502  0.82299981132E+02 -0.40247565364E+02 -0.26460544325E+02  0.95358868586E+02  0.00000000000E+00 0.  1.
          4    1    1    2  501    0 -0.74048739874E+02 -0.12556179678E+02  0.40808502229E+02  0.85476355674E+02  0.00000000000E+00 0.  1.
<scales pt_clust_3="30.31519" pt_clust_4="76.08149" pt_clust_5="14000.00000" pt_clust_6="61.84774"></scales>
<clustering>
<clus scale="   30.315">  1  3  2 -1</clus>
<clus scale="   61.848">  1  6  2 -1</clus>
<clus scale="   76.081">  2  4  1 -1</clus>
<clus scale="   30.315">  1  3  2 -1</clus>
</clustering>
</event>
<event>
 6    0  0.1622933E+002  0.1190995E+03  0.7546771E-02  0.1244590E+00
         21   -1    0    0  501  502  0.00000000000E+00  0.00000000000E+00  0.11710201229E+03  0.11710201229E+03  0.00000000000E+00 0.  1.
          2   -1    0    0  503    0 -0.00000000000E+00 -0.00000000000E+00 -0.16204303474E+04  0.16204303474E+04  0.00000000000E+00 0. -1.
         21    1    1    2  503  505  0.35688045903E+02 -0.72096364120E+01 -0.14203572664E+03  0.14662797523E+03  0.00000000000E+00 0.  1.
         21    1    1    2  504  502 -0.11696496596E+03  0.25512295507E+02  0.77201878929E+02  0.14244932641E+03  0.00000000000E+00 0.  1.
         21    1    1    2  505  504 -0.19924810463E+02 -0.38016347713E+02 -0.15520997690E+03  0.16103533058E+03  0.00000000000E+00 0. -1.
          2    1    1    2  501    0  0.10120173053E+03  0.19713688618E+02 -0.12832845105E+04  0.12874197275E+04  0.00000000000E+00 0. -1.
<scales pt_clust_3="36.40900" pt_clust_4="14000.00000" pt_clust_5="41.99797" pt_clust_6="119.09949"></scales>
<clustering>
<clus scale="   36.409">  2  3  1 -1</clus>
<clus scale="   41.998">  2  5  1 -1</clus>
<clus scale="  119.099">  2  6  1 -1</clus>
<clus scale="  119.099">  1  3  2 -1</clus>
</clustering>
</event>
<event>
 6    0  0.1622933E+002  0.1530637E+03  0.7546771E-02  0.1196758E+00
         -2   -1    0    0    0  501 -0.00000000000E+00  0.00000000000E+00  0.17397203163E+02  0.17397203163E+02  0.00000000000E+00 0. -1.
         21   -1    0    0  501  502  0.00000000000E+00 -0.00000000000E+00 -0.23712443032E+04  0.23712443032E+04  0.00000000000E+00 0. -1.
         21    1    1    2  503  502  0.39983693926E+02  0.17584989169E+02 -0.98176579234E+03  0.98273699362E+03  0.00000000000E+00 0. -1.
         21    1    1    2  504  505 -0.63578869685E+02 -0.83342166632E+02 -0.36152049940E+03  0.37641102654E+03  0.00000000000E+00 0.  1.
         21    1    1    2  505  503  0.84615744824E+02  0.89202211501E+02 -0.78789436190E+03  0.79742986170E+03  0.00000000000E+00 0. -1.
         -2    1    1    2    0  504 -0.61020569066E+02 -0.23445034039E+02 -0.22266644635E+03  0.23206362446E+03  0.00000000000E+00 0. -1.
<scales pt_clust_3="43.67983" pt_clust_4="35.65416" pt_clust_5="146.25327" pt_clust_6="35.65416"></scales>
<clustering>
<clus scale="   35.654">  4  6 -1 -1</clus>
<clus scale="   43.680">  2  3  1 -1</clus>
<clus scale="  146.253">  2  5  1 -1</clus>
<clus scale="   43.680">  2  3  1 -1</clus>
</clustering>
</event>
<event>
 6    0  0.1622933E+002  0.1077844E+03  0.7546771E-02  0.1264729E+00
          2   -1    0    0  505    0 -0.00000000000E+00  0.00000000000E+00  0.46803890362E+04  0.46803890362E+04  0.00000000000E+00 0.  1.
         21   -1    0    0  503  502  0.00000000000E+00 -0.00000000000E+00 -0.86901710590E+02  0.86901710590E+02  0.00000000000E+00 0. -1.
         21    1    1    2  503  501 -0.38168240659E+02 -0.13247311887E+03 -0.24639316660E+02  0.14004655563E+03  0.00000000000E+00 0. -1.
         21    1    1    2  504  502 -0.91140320648E+01  0.34267472408E+02  0.12202171461E+03  0.12706936720E+03  0.00000000000E+00 0. -1.
         21    1    1    2  505  504  0.62937606665E+02  0.21272363358E+02  0.67457899042E+03  0.67784251128E+03  0.00000000000E+00 0. -1.
          2    1    1    2  501    0 -0.15655333941E+02  0.76933283108E+02  0.38215259373E+04  0.38223323127E+04  0.00000000000E+00 0.  1.
<scales pt_clust_3="107.78436" pt_clust_4="35.45878" pt_clust_5="66.48409" pt_clust_6="14000.00000"></scales>
<clustering>
<clus scale="   35.459">  2  4  1 -1</clus>
<clus scale="   66.484">  1  5  2 -1</clus>
<clus scale="  107.784">  2  3  1 -1</clus>
<clus scale="   35.459">  2  3  1 -1</clus>
</clustering>
</event>
<event>
 6    0  0.1622933E+002  0.1145032E+03  0.7546771E-02  0.1252451E+00
          2   -1    0    0  503    0 -0.00000000000E+00  0.00000000000E+00  0.43798043011E+03  0.43798043011E+03  0.00000000000E+00 0.  1.
         21   -1    0    0  505  502  0.00000000000E+00 -0.00000000000E+00 -0.30091342195E+03  0.30091342195E+03  0.00000000000E+00 0. -1.
         21    1    1    2  503  504  0.57289566786E+01  0.30036162855E+02  0.92589192563E+02  0.97507695097E+02  0.00000000000E+00 0. -1.
         21    1    1    2  504  502  0.37532987527E+02 -0.98671385442E+02 -0.25211796245E+03  0.27332807110E+03  0.00000000000E+00 0. -1.
         21    1    1    2  505  501  0.32509148793E+02  0.56808037991E+01 -0.18561320842E+02  0.37863424548E+02  0.00000000000E+00 0. -1.
          2    1    1    2  501    0 -0.75771092998E+02  0.62954418789E+02  0.31515709889E+03  0.33019466131E+03  0.00000000000E+00 0.  1.
<scales pt_clust_3="30.57764" pt_clust_4="114.50316" pt_clust_5="33.31582" pt_clust_6="14000.00000"></scales>
<clustering>
<clus scale="   30.578">  1  3  2 -1</clus>
<clus scale="   33.316">  2  5  1 -1</clus>
<clus scale="  114.503">  2  4  1 -1</clus>
<clus scale="   33.316">  2  3  1 -1</clus>
</clustering>
</event>
<event>
 6    0  0.1622933E+002  0.1137986E+03  0.7546771E-02  0.1253693E+00
          1   -1    0    0  505    0 -0.00000000000E+00  0.00000000000E+00  0.12267939866E+04  0.12267939866E+04  0.00000000000E+00 0.  1.
         21   -1    0    0  504  502  0.00000000000E+00 -0.00000000000E+00 -0.13525976739E+03  0.13525976739E+03  0.00000000000E+00 0. -1.
         21    1    1    2  503  502 -0.66081104887E+02  0.28553186787E+02 -0.10631239267E+03  0.12839128372E+03  0.00000000000E+00 0. -1.
         21    1    1    2  504  501 -0.29199347002E+02  0.95375193090E+02  0.29487222538E+03  0.31128549376E+03  0.00000000000E+00 0. -1.
         21    1    1    2  505  503  0.23100383581E+02 -0.34992768746E+02  0.70248789843E+02  0.81810843172E+02  0.00000000000E+00 0.  1.
          1    1    1    2  501    0  0.72180068308E+02 -0.88935611132E+02  0.83272559670E+03  0.84056613338E+03  0.00000000000E+00 0.  1.
<scales pt_clust_3="71.64985" pt_clust_4="113.79857" pt_clust_5="41.92996" pt_clust_6="14000.00000"></scales>
<clustering>
<clus scale="   41.930">  1  5  2 -1</clus>
<clus scale="   71.650">  2  3  1 -1</clus>
<clus scale="  113.799">  2  4  1 -1</clus>
<clus scale="   71.650">  2  3  1 -1</clus>
</clustering>
</event>
<event>
 6    0  0.1622933E+002  0.1477856E+03  0.7546771E-02  0.1203221E+00
         21   -1    0    0  503  502  0.00000000000E+00  0.00000000000E+00  0.67924853914E+02  0.67924853914E+02  0.00000000000E+00 0. -1.
         -1   -1    0    0    0  501 -0.00000000000E+00 -0.00000000000E+00 -0.30293989350E+04  0.30293989350E+04  0.00000000000E+00 0. -1.
         21    1    1    2  503  504 -0.57543035857E+02  0.97400005131E+02 -0.60776626576E+01  0.11329121748E+03  0.00000000000E+00 0. -1.
         21    1    1    2  504  505 -0.64664023538E+02 -0.18711071736E+03 -0.89106583640E+03  0.91279251821E+03  0.00000000000E+00 0. -1.
         21    1    1    2  505  501  0.40383442116E+02 -0.17565682712E+01 -0.78392297904E+03  0.78496442275E+03  0.00000000000E+00 0.  1.
         -1    1    1    2    0  502  0.81823617279E+02  0.91467280503E+02 -0.12804076030E+04  0.12862756305E+04  0.00000000000E+00 0. -1.
<scales pt_clust_3="112.54537" pt_clust_4="147.78564" pt_clust_5="40.42163" pt_clust_6="14000.00000"></scales>
<clustering>
<clus scale="   40.422">  2  5  1 -1</clus>
<clus scale="  112.545">  1  3  2 -1</clus>
<clus scale="  147.786">  1  4  2 -1</clus>
<clus scale="  112.545">  1  3  2 -1</clus>
</clustering>
</event>
<event>
 6    0  0.1622933E+002  0.1136738E+03  0.7546771E-02  0.1253914E+00
          4   -1    0    0  505    0 -0.00000000000E+00  0.00000000000E+00  0.25141892627E+03  0.25141892627E+03  0.00000000000E+00 0.  1.
         21   -1    0    0  504  502  0.00000000000E+00 -0.00000000000E+00 -0.66090974834E+03  0.66090974834E+03  0.00000000000E+00 0.  1.
         21    1    1    2  503  501  0.21020069774E+02 -0.66655033545E+02  0.40875849463E+02  0.80966486274E+02  0.00000000000E+00 0. -1.
         21    1    1    2  504  503 -0.98482918429E+01  0.11749037818E+03 -0.60688546346E+03  0.61823211140E+03  0.00000000000E+00 0.  1.
         21    1    1    2  505  502 -0.38663778084E+02 -0.21237514475E+01 -0.78456949531E+01  0.39508897545E+02  0.00000000000E+00 0.  1.
          4    1    1    2  501    0  0.27492000152E+02 -0.48711593184E+02  0.16436448689E+03  0.17362117939E+03  0.00000000000E+00 0.  1.
<scales pt_clust_3="113.67382" pt_clust_4="14000.00000" pt_clust_5="38.72206" pt_clust_6="50.23560"></scales>
<clustering>
<clus scale="   38.722">  1  5  2 -1</clus>
<clus scale="   50.236">  1  6  2 -1</clus>
<clus scale="  113.674">  1  3  2 -1</clus>
<clus scale="  113.674">  2  3  1 -1</clus>
</clustering>
</event>
<event>
 6    0  0.1622933E+002  0.1943239E+03  0.7546771E-02  0.1154618E+00
         -1   -1    0    0    0  501 -0.00000000000E+00  0.00000000000E+00  0.15551476891E+04  0.15551476891E+04  0.00000000000E+00 0. -1.
         21   -1    0    0  504  502  0.00000000000E+00 -0.00000000000E+00 -0.61901181886E+02  0.61901181886E+02  0.00000000000E+00 0. -1.
         21    1    1    2  503  501 -0.49151033289E+02 -0.47682508488E+02  0.43629886827E+03  0.44164029271E+03  0.00000000000E+00 0. -1.
         21    1    1    2  504  503 -0.53242643958E+02  0.17665186665E+03  0.11729553843E+03  0.21862960564E+03  0.00000000000E+00 0. -1.
         21    1    1    2  505  502  0.42983857456E+02 -0.56739630829E+01  0.22838720831E+03  0.23246617556E+03  0.00000000000E+00 0. -1.
         -1    1    1    2    0  505  0.59409819791E+02 -0.12329539508E+03  0.71126489222E+03  0.72431279710E+03  0.00000000000E+00 0. -1.
<scales pt_clust_3="68.47953" pt_clust_4="179.99831" pt_clust_5="41.21591" pt_clust_6="41.21591"></scales>
<clustering>
<clus scale="   41.216">  5  6 -1 -1</clus>
<clus scale="   68.480">  1  3  2 -1</clus>
<clus scale="  179.998">  2  4  1 -1</clus>
<clus scale="  179.998">  2  3  1 -1</clus>
</clustering>
</event>
<event>
 6    0  0.1622933E+002  0.9166125E+02  0.7546771E-02  0.1298878E+00
          1   -1    0    0  503    0 -0.00000000000E+00  0.00000000000E+00  0.28937701733E+02  0.28937701733E+02  0.00000000000E+00 0.  1.
         21   -1    0    0  501  502  0.00000000000E+00 -0.00000000000E+00 -0.13072940079E+04  0.13072940079E+04  0.00000000000E+00 0.  1.
         21    1    1    2  503  504 -0.17969602264E+02 -0.25516121408E+02 -0.92228801343E+02  0.97365963531E+02  0.00000000000E+00 0.  1.
         21    1    1    2  504  505  0.80108260978E+01  0.88627447513E+02 -0.23510944280E+03  0.25138704796E+03  0.00000000000E+00 0.  1.
         21    1    1    2  505  502  0.42518645198E+02 -0.85580964002E+02 -0.94208879977E+03  0.94692303977E+03  0.00000000000E+00 0.  1.
          1    1    1    2  501    0 -0.32559869032E+02  0.22469637898E+02 -0.89292622002E+01  0.40555658324E+02  0.00000000000E+00 0.  1.
<scales pt_clust_3="31.20864" pt_clust_4="91.66125" pt_clust_5="14000.00000" pt_clust_6="43.92480"></scales>
<clustering>
<clus scale="   31.209">  1  3  2 -1</clus>
<clus scale="   43.925">  1  6  2 -1</clus>
<clus scale="   91.661">  1  4  2 -1</clus>
<clus scale="   91.661">  2  3  1 -1</clus>
</clustering>
</event>
<event>
 6    0  0.1622933E+002  0.1074609E+03  0.7546771E-02  0.1265346E+00
         21   -1    0    0  501  502  0.00000000000E+00  0.00000000000E+00  0.15761521590E+03  0.15761521590E+03  0.00000000000E+00 0. -1.
          1   -1    0    0  505    0 -0.00000000000E+00 -0.00000000000E+00 -0.70116569561E+03  0.70116569561E+03  0.00000000000E+00 0. -1.
         21    1    1    2  503  502 -0.44863917874E+02  0.97704257516E+02  0.10743510076E+03  0.15199076926E+03  0.00000000000E+00 0. -1.
         21    1    1    2  504  503 -0.71628885340E+02 -0.69128091419E+02 -0.16089682582E+03  0.18920142388E+03  0.00000000000E+00 0. -1.
         21    1    1    2  505  504 -0.42854149205E+01  0.31282475459E+02 -0.86356646534E+02  0.91947966005E+02  0.00000000000E+00 0. -1.
          1    1    1    2  501    0  0.12077821813E+03 -0.59858641556E+02 -0.40373210812E+03  0.42564075236E+03  0.00000000000E+00 0. -1.
<scales pt_clust_3="107.46085" pt_clust_4="94.49604" pt_clust_5="31.57464" pt_clust_6="14000.00000"></scales>
<clustering>
<clus scale="   31.575">  2  5  1 -1</clus>
<clus scale="   94.496">  2  4  1 -1</clus>
<clus scale="  107.461">  1  3  2 -1</clus>
<clus scale="  107.461">  1  3  2 -1</clus>
</clustering>
</event>
<event>
 6    0  0.1622933E+002  0.7744726E+02  0.7546771E-02  0.1336456E+00
         21   -1    0    0  501  502  0.00000000000E+00  0.00000000000E+00  0.30919517933E+03  0.30919517933E+03  0.00000000000E+00 0. -1.
          2   -1    0    0  503    0 -0.00000000000E+00 -0.00000000000E+00 -0.31382658294E+04  0.31382658294E+04  0.00000000000E+00 0. -1.
         21    1    1    2  503  505  0.15682785547E+02 -0.37106266971E+02 -0.48149497530E+03  0.48317723047E+03  0.00000000000E+00 0. -1.
         21    1    1    2  504  502 -0.57500074228E+02  0.51829744130E+02  0.29912984399E+03  0.30898421396E+03  0.00000000000E+00 0. -1.
         21    1    1    2  505  504 -0.77581439967E+02 -0.95438632898E+01 -0.59444434487E+03  0.59956154338E+03  0.00000000000E+00 0.  1.
          2    1    1    2  501    0  0.11939872865E+03 -0.51796138696E+01 -0.20522611739E+04  0.20557380210E+04  0.00000000000E+00 0. -1.
<scales pt_clust_3="40.28430" pt_clust_4="14000.00000" pt_clust_5="76.18522" pt_clust_6="77.44726"></scales>
<clustering>
<clus scale="   40.284">  2  3  1 -1</clus>
<clus scale="   76.185">  2  5  1 -1</clus>
<clus scale="   77.447">  2  6  1 -1</clus>
<clus scale="   77.447">  1  3  2 -1</clus>
</clustering>
</event>
<event>
 6    0  0.1622933E+002  0.1250441E+03  0.7546771E-02  0.1235000E+00
         21   -1    0    0  501  502  0.00000000000E+00  0.00000000000E+00  0.22559511104E+02  0.22559511104E+02  0.00000000000E+00 0.  1.
          2   -1    0    0  505    0 -0.00000000000E+00 -0.00000000000E+00 -0.15017609233E+04  0.15017609233E+04  0.00000000000E+00 0.  1.
         21    1    1    2  503  504  0.31996977870E+02  0.45594786451E+02 -0.28304269429E+03  0.28847158947E+03  0.00000000000E+00 0. -1.
         21    1    1    2  504  502 -0.12360833086E+03  0.68902736279E+02 -0.42054674376E+03  0.44371857096E+03  0.00000000000E+00 0.  1.
         21    1    1    2  505  503  0.24651286291E+02 -0.21718063849E+02 -0.34553414615E+03  0.34709250405E+03  0.00000000000E+00 0.  1.
          2    1    1    2  501    0  0.66960066694E+02 -0.92779458881E+02 -0.43007782801E+03  0.44503776993E+03  0.00000000000E+00 0.  1.
<scales pt_clust_3="55.39909" pt_clust_4="125.04411" pt_clust_5="32.85362" pt_clust_6="14000.00000"></scales>
<clustering>
<clus scale="   32.854">  2  5  1 -1</clus>
<clus scale="   55.399">  2  3  1 -1</clus>
<clus scale="  125.044">  1  4  2 -1</clus>
<clus scale="  125.044">  1  3  2 -1</clus>
</clustering>
</event>
<event>
 6    0  0.1622933E+002  0.8943269E+02  0.7546771E-02  0.1304231E+00
         21   -1    0    0  503  502  0.00000000000E+00  0.00000000000E+00  0.70998121111E+02  0.70998121111E+02  0.00000000000E+00 0.  1.
          2   -1    0    0  504    0 -0.00000000000E+00 -0.00000000000E+00 -0.12977311252E+04  0.12977311252E+04  0.00000000000E+00 0. -1.
         21    1    1    2  503  501  0.10914763443E+02  0.41341477575E+02  0.48875903288E+02  0.64939231219E+02  0.00000000000E+00 0.  1.
         21    1    1    2  504  505  0.29403443227E+02 -0.45968678621E+02 -0.38778536351E+03  0.39160588612E+03  0.00000000000E+00 0.  1.
         21    1    1    2  505  502 -0.23731816799E+02 -0.98783842792E+02 -0.35949254808E+03  0.37357240108E+03  0.00000000000E+00 0. -1.
          2    1    1    2  501    0 -0.16586389872E+02  0.10341104384E+03 -0.52833099583E+03  0.53861172793E+03  0.00000000000E+00 0. -1.
<scales pt_clust_3="42.75804" pt_clust_4="50.82344" pt_clust_5="89.43269" pt_clust_6="14000.00000"></scales>
<clustering>
<clus scale="   42.758">  1  3  2 -1</clus>
<clus scale="   50.823">  2  4  1 -1</clus>
<clus scale="   89.433">  1  5  2 -1</clus>
<clus scale="   42.758">  1  3  2 -1</clus>
</clustering>
</event>
<event>
 6    0  0.1622933E+002  0.9168256E+02  0.7546771E-02  0.1298828E+00
         -3   -1    0    0    0  501 -0.00000000000E+00  0.00000000000E+00  0.13001568995E+03  0.13001568995E+03  0.00000000000E+00 0. -1.
         21   -1    0    0  504  502  0.00000000000E+00 -0.00000000000E+00 -0.20497015057E+03  0.20497015057E+03  0.00000000000E+00 0. -1.
         21    1    1    2  503  505 -0.41072200440E+02  0.41039159797E+02  0.13660191259E+02  0.59646786260E+02  0.00000000000E+00 0. -1.
         21    1    1    2  504  503  0.28690952760E+02 -0.10248682901E+03 -0.29574536875E+02  0.11045983035E+03  0.00000000000E+00 0. -1.
         21    1    1    2  505  501 -0.42661015965E+02 -0.18780172649E+02  0.72167871368E+01  0.47167140940E+02  0.00000000000E+00 0. -1.
         -3    1    1    2    0  502  0.55042263645E+02  0.80227841857E+02 -0.66256902142E+02  0.11771208297E+03  0.00000000000E+00 0. -1.
<scales pt_clust_3="65.93132" pt_clust_4="14000.00000" pt_clust_5="46.61177" pt_clust_6="91.68256"></scales>
<clustering>
<clus scale="   46.612">  1  5  2 -1</clus>
<clus scale="   65.931">  1  3  2 -1</clus>
<clus scale="   91.683">  2  6  1 -1</clus>
<clus scale="   91.683">  2  3  1 -1</clus>
</clustering>
</event>
<event>
 6    0  0.1622933E+002  0.1871894E+03  0.7546771E-02  0.1161021E+00
          1   -1    0    0  504    0 -0.00000000000E+00  0.00000000000E+00  0.13489537226E+04  0.13489537226E+04  0.00000000000E+00 0. -1.
         21   -1    0    0  501  502  0.00000000000E+00 -0.00000000000E+00 -0.12840214912E+03  0.12840214912E+03  0.00000000000E+00 0.  1.
         21    1    1    2  503  505  0.49904328253E+02  0.71938979206E+01  0.18429918729E+03  0.19107167394E+03  0.00000000000E+00 0. -1.
         21    1    1    2  504  503 -0.43656622064E+02 -0.21785389691E+02  0.14345591869E+03  0.15152592010E+03  0.00000000000E+00 0.  1.
         21    1    1    2  505  502 -0.89909143512E+02 -0.16331728448E+03 -0.32121372304E+02  0.18917709178E+03  0.00000000000E+00 0.  1.
          1    1    1    2  501    0  0.83661437323E+02  0.17790877625E+03  0.92491783983E+03  0.94558118594E+03  0.00000000000E+00 0. -1.
<scales pt_clust_3="43.25099" pt_clust_4="48.79041" pt_clust_5="187.18937" pt_clust_6="14000.00000"></scales>
<clustering>
<clus scale="   48.790">  1  4  2 -1</clus>
<clus scale="   43.251">  1  3  2 -1</clus>
<clus scale="  187.189">  2  5  1 -1</clus>
<clus scale="  187.189">  2  3  1 -1</clus>
</clustering>
</event>
<event>
 6    0  0.1622933E+002  0.1559406E+03  0.7546771E-02  0.1193358E+00
         21   -1    0    0  501  502  0.00000000000E+00  0.00000000000E+00  0.20079281386E+03  0.20079281386E+03  0.00000000000E+00 0. -1.
          2   -1    0    0  505    0 -0.00000000000E+00 -0.00000000000E+00 -0.15573918176E+04  0.15573918176E+04  0.00000000000E+00 0. -1.
         21    1    1    2  503  504 -0.98497959599E+01 -0.34648835234E+02 -0.24859492482E+02  0.43767049592E+02  0.00000000000E+00 0. -1.
         21    1    1    2  504  502  0.70695023215E+02  0.62163753692E+01  0.15954075350E+03  0.17461294814E+03  0.00000000000E+00 0. -1.
         21    1    1    2  505  503  0.54119983997E+02 -0.72654516806E+02 -0.81879750798E+02  0.12211447527E+03  0.00000000000E+00 0.  1.
          2    1    1    2  501    0 -0.11496521125E+03  0.10108697667E+03 -0.14094005140E+04  0.14176901585E+04  0.00000000000E+00 0. -1.
<scales pt_clust_3="32.45739" pt_clust_4="70.96781" pt_clust_5="32.45739" pt_clust_6="147.20026"></scales>
<clustering>
<clus scale="   32.457">  3  5 -1 -1</clus>
<clus scale="   70.968">  1  4  2 -1</clus>
<clus scale="  147.200">  2  6  1 -1</clus>
<clus scale="   70.968">  1  3  2 -1</clus>
</clustering>
</event>
<event>
 6    0  0.1622933E+002  0.1210610E+03  0.7546771E-02  0.1241357E+00
         -4   -1    0    0    0  501 -0.00000000000E+00  0.00000000000E+00  0.26070741831E+03  0.26070741831E+03  0.00000000000E+00 0.  1.
         21   -1    0    0  504  502  0.00000000000E+00 -0.00000000000E+00 -0.14041413673E+03  0.14041413673E+03  0.00000000000E+00 0.  1.
         21    1    1    2  503  501  0.92943479002E+01  0.70711141623E+02  0.13038676158E+03  0.14861748904E+03  0.00000000000E+00 0. -1.
         21    1    1    2  504  503  0.93040534868E+02 -0.10256940937E+03  0.50607641094E+01  0.13857357685E+03  0.00000000000E+00 0.  1.
         21    1    1    2  505  502 -0.42971400940E+02  0.31889689477E+02 -0.87548585168E+01  0.54223068350E+02  0.00000000000E+00 0.  1.
         -4    1    1    2    0  505 -0.59363481829E+02 -0.31421730439E-01 -0.63993855941E+01  0.59707420796E+02  0.00000000000E+00 0.  1.
<scales pt_clust_3="71.31936" pt_clust_4="115.72661" pt_clust_5="33.74333" pt_clust_6="33.74333"></scales>
<clustering>
<clus scale="   33.743">  5  6 -1 -1</clus>
<clus scale="   71.319">  1  3  2 -1</clus>
<clus scale="  115.727">  1  4  2 -1</clus>
<clus scale="  121.061">  2  3  1 -1</clus>
</clustering>
</event>
<event>
 6    0  0.1622933E+002  0.7507941E+02  0.7546771E-02  0.1343625E+00
         21   -1    0    0  504  502  0.00000000000E+00  0.00000000000E+00  0.84471462450E+03  0.84471462450E+03  0.00000000000E+00 0.  1.
          2   -1    0    0  503    0 -0.00000000000E+00 -0.00000000000E+00 -0.11628212549E+04  0.11628212549E+04  0.00000000000E+00 0. -1.
         21    1    1    2  503  502  0.40443805882E+02 -0.11134859012E+03  0.19343428954E+03  0.22682820444E+03  0.00000000000E+00 0.  1.
         21    1    1    2  504  505 -0.28628273566E+02  0.37106483424E+02  0.63109999218E+03  0.63283779066E+03  0.00000000000E+00 0.  1.
         21    1    1    2  505  501  0.27942028003E+02  0.51757419200E+02 -0.46747453382E+03  0.47116029878E+03  0.00000000000E+00 0. -1.
          2    1    1    2  501    0 -0.39757560319E+02  0.22484687498E+02 -0.67516637827E+03  0.67670958551E+03  0.00000000000E+00 0. -1.
<scales pt_clust_3="14000.00000" pt_clust_4="46.94163" pt_clust_5="75.07941" pt_clust_6="45.67521"></scales>
<clustering>
<clus scale="   45.675">  2  6  1 -1</clus>
<clus scale="   46.942">  1  4  2 -1</clus>
<clus scale="   75.079">  2  5  1 -1</clus>
<clus scale="   46.942">  1  3  2 -1</clus>
</clustering>
</event>
<event>
 6    0  0.1622933E+002  0.7473528E+02  0.7546771E-02  0.1344693E+00
          2   -1    0    0  504    0 -0.00000000000E+00  0.00000000000E+00  0.18096774973E+04  0.18096774973E+04  0.00000000000E+00 0.  1.
         21   -1    0    0  505  502  0.00000000000E+00 -0.00000000000E+00 -0.46279758629E+02  0.46279758629E+02  0.00000000000E+00 0.  1.
         21    1    1    2  503  502  0.20418981726E+02 -0.51354224111E+02  0.23356421037E+03  0.24001339861E+03  0.00000000000E+00 0. -1.
         21    1    1    2  504  503 -0.28440381654E+02  0.32916748081E+02  0.13934566328E+03  0.14597801714E+03  0.00000000000E+00 0.  1.
         21    1    1    2  505  501 -0.41296730583E+02 -0.61688898337E+02 -0.20393042526E+01  0.74263711843E+02  0.00000000000E+00 0.  1.
          2    1    1    2  501    0  0.49318130511E+02  0.80126374368E+02  0.13925271693E+04  0.13957021283E+04  0.00000000000E+00 0.  1.
<scales pt_clust_3="49.46889" pt_clust_4="43.50135" pt_clust_5="14000.00000" pt_clust_6="74.73528"></scales>
<clustering>
<clus scale="   43.501">  1  4  2 -1</clus>
<clus scale="   49.469">  1  3  2 -1</clus>
<clus scale="   74.735">  1  6  2 -1</clus>
<clus scale="   74.735">  2  3  1 -1</clus>
</clustering>
</event>
<event>
 6    0  0.1622933E+002  0.2076972E+03  0.7546771E-02  0.1143403E+00
         21   -1    0    0  503  502  0.00000000000E+00  0.00000000000E+00  0.98917027491E+02  0.98917027491E+02  0.00000000000E+00 0.  1.
          1   -1    0    0  504    0 -0.00000000000E+00 -0.00000000000E+00 -0.15264933689E+04  0.15264933689E+04  0.00000000000E+00 0.  1.
         21    1    1    2  503  501  0.17161666694E+03 -0.12434946642E+03 -0.52048575331E+02  0.21822952221E+03  0.00000000000E+00 0.  1.
         21    1    1    2  504  505  0.30860932192E+02  0.45520484830E+01 -0.10564621708E+03  0.11015553306E+03  0.00000000000E+00 0. -1.
         21    1    1    2  505  502 -0.76959127514E+02 -0.53314398587E+01 -0.24269443455E+03  0.25466000888E+03  0.00000000000E+00 0.  1.
          1    1    1    2  501    0 -0.12551847162E+03  0.12512885780E+03 -0.10271871144E+04  0.10423653322E+04  0.00000000000E+00 0.  1.
<scales pt_clust_3="207.69724" pt_clust_4="31.19484" pt_clust_5="71.69273" pt_clust_6="14000.00000"></scales>
<clustering>
<clus scale="   31.195">  2  4  1 -1</clus>
<clus scale="   71.693">  2  5  1 -1</clus>
<clus scale="  207.697">  1  3  2 -1</clus>
<clus scale="  207.697">  1  3  2 -1</clus>
</clustering>
</event>
<event>
 6    0  0.1622933E+002  0.7483007E+02  0.7546771E-02  0.1344398E+00
          2   -1    0    0  504    0 -0.00000000000E+00  0.00000000000E+00  0.14278740573E+04  0.14278740573E+04  0.00000000000E+00 0. -1.
         21   -1    0    0  501  502  0.00000000000E+00 -0.00000000000E+00 -0.80741635863E+03  0.80741635863E+03  0.00000000000E+00 0.  1.
         21    1    1    2  503  502  0.66181212800E+02  0.34576326797E+02 -0.79276921937E+03  0.79627791033E+03  0.00000000000E+00 0.  1.
         21    1    1    2  504  505  0.42621528491E+02  0.48545842731E+02  0.88936978483E+03  0.89171290655E+03  0.00000000000E+00 0. -1.
         21    1    1    2  505  503 -0.71220912974E+02 -0.87165877162E+02  0.30302751733E+03  0.32325838713E+03  0.00000000000E+00 0. -1.
          2    1    1    2  501    0 -0.37581828317E+02  0.40437076338E+01  0.22082961589E+03  0.22404121194E+03  0.00000000000E+00 0. -1.
<scales pt_clust_3="74.83007" pt_clust_4="53.63216" pt_clust_5="14000.00000" pt_clust_6="37.79875"></scales>
<clustering>
<clus scale="   37.799">  1  6  2 -1</clus>
<clus scale="   53.632">  1  4  2 -1</clus>
<clus scale="   74.830">  2  3  1 -1</clus>
<clus scale="   74.830">  2  3  1 -1</clus>
</clustering>
</event>
<event>
 6    0  0.1622933E+002  0.1582094E+03  0.7546771E-02  0.1190733E+00
          2   -1    0    0  503    0 -0.00000000000E+00  0.00000000000E+00  0.17762245990E+04  0.17762245990E+04  0.00000000000E+00 0.  1.
         21   -1    0    0  504  502  0.00000000000E+00 -0.00000000000E+00 -0.15193717834E+04  0.15193717834E+04  0.00000000000E+00 0. -1.
         21    1    1    2  503  505  0.72277915570E+02  0.10643565706E+02  0.96896079163E+02  0.12135169025E+03  0.00000000000E+00 0. -1.
         21    1    1    2  504  501 -0.15579094209E+03  0.28183935226E+02 -0.14855082422E+04  0.14939209783E+04  0.00000000000E+00 0. -1.
         21    1    1    2  505  502  0.13508896060E+03  0.66030694037E+02  0.14044258585E+04  0.14124521486E+04  0.00000000000E+00 0.  1.
          2    1    1    2  501    0 -0.51575934081E+02 -0.10485819497E+03  0.24103912011E+03  0.26787156522E+03  0.00000000000E+00 0.  1.
<scales pt_clust_3="73.05739" pt_clust_4="158.20940" pt_clust_5="14000.00000" pt_clust_6="110.90983"></scales>
<clustering>
<clus scale="   73.057">  1  3  2 -1</clus>
<clus scale="  110.910">  1  6  2 -1</clus>
<clus scale="  158.209">  2  4  1 -1</clus>
<clus scale="  158.209">  2  3  1 -1</clus>
</clustering>
</event>
<event>
 6    0  0.1622933E+002  0.1298688E+03  0.7546771E-02  0.1227651E+00
          2   -1    0    0  504    0 -0.00000000000E+00  0.00000000000E+00  0.27172140044E+04  0.27172140044E+04  0.00000000000E+00 0.  1.
         21   -1    0    0  505  502  0.00000000000E+00 -0.00000000000E+00 -0.12174644099E+03  0.12174644099E+03  0.00000000000E+00 0. -1.
         21    1    1    2  503  502 -0.11987903813E+03 -0.13245045668E+03 -0.32581698203E+02  0.18159205466E+03  0.00000000000E+00 0. -1.
         21    1    1    2  504  503  0.27083246172E+02  0.68103503424E+02  0.23464383219E+04  0.23475826690E+04  0.00000000000E+00 0.  1.
         21    1    1    2  505  501  0.14069359083E+02  0.33751723443E+02  0.41808538273E+02  0.55543492624E+02  0.00000000000E+00 0.  1.
          2    1    1    2  501    0  0.78726432873E+02  0.30595229810E+02  0.23980240145E+03  0.25424222910E+03  0.00000000000E+00 0.  1.
<scales pt_clust_3="14000.00000" pt_clust_4="73.47323" pt_clust_5="36.56673" pt_clust_6="129.86881"></scales>
<clustering>
<clus scale="   36.567">  2  5  1 -1</clus>
<clus scale="   73.473">  1  4  2 -1</clus>
<clus scale="  129.869">  1  6  2 -1</clus>
<clus scale="   36.567">  2  3  1 -1</clus>
</clustering>
</event>
<event>
 6    0  0.1622933E+002  0.2160408E+03  0.7546771E-02  0.1136870E+00
         21   -1    0    0  503  502  0.00000000000E+00  0.00000000000E+00  0.10598006497E+04  0.10598006497E+04  0.00000000000E+00 0.  1.
          2   -1    0    0  505    0 -0.00000000000E+00 -0.00000000000E+00 -0.23900022248E+04  0.23900022248E+04  0.00000000000E+00 0. -1.
         21    1    1    2  503  501 -0.67645950440E+02  0.72913112667E+01 -0.10721566569E+04  0.10743132852E+04  0.00000000000E+00 0. -1.
         21    1    1    2  504  502  0.20966226912E+03  0.27083965411E+01  0.10406749914E+04  0.10615884515E+04  0.00000000000E+00 0.  1.
         21    1    1    2  505  504 -0.42937598127E+02 -0.56669393061E+02 -0.26417730659E+03  0.27357760647E+03  0.00000000000E+00 0. -1.
          2    1    1    2  501    0 -0.99078720553E+02  0.46669685253E+02 -0.10345426030E+04  0.10403235314E+04  0.00000000000E+00 0. -1.
<scales pt_clust_3="41.69334" pt_clust_4="209.46468" pt_clust_5="71.09893" pt_clust_6="41.69334"></scales>
<clustering>
<clus scale="   41.693">  3  6 -1 -1</clus>
<clus scale="   71.099">  2  5  1 -1</clus>
<clus scale="  209.465">  1  4  2 -1</clus>
<clus scale="  209.465">  1  3  2 -1</clus>
</clustering>
</event>
<event>
 6    0  0.1622933E+002  0.9627628E+02  0.7546771E-02  0.1288327E+00
          1   -1    0    0  503    0 -0.00000000000E+00  0.00000000000E+00  0.90099633266E+03  0.90099633266E+03  0.00000000000E+00 0. -1.
         21   -1    0    0  501  502  0.00000000000E+00 -0.00000000000E+00 -0.13497766554E+03  0.13497766554E+03  0.00000000000E+00 0. -1.
         21    1    1    2  503  505 -0.28738514198E+02  0.47024614205E+02  0.39387740912E+03  0.39771425666E+03  0.00000000000E+00 0. -1.
         21    1    1    2  504  502  0.42867101612E+02  0.87713456339E+02 -0.10051089458E+03  0.14012022963E+03  0.00000000000E+00 0. -1.
         21    1    1    2  505  504 -0.40001331714E+02 -0.42503209495E+02  0.13313813451E+03  0.14536984631E+03  0.00000000000E+00 0. -1.
          1    1    1    2  501    0  0.25872744301E+02 -0.92234861049E+02  0.33951401807E+03  0.35276966558E+03  0.00000000000E+00 0. -1.
<scales pt_clust_3="55.11095" pt_clust_4="14000.00000" pt_clust_5="56.29642" pt_clust_6="96.27628"></scales>
<clustering>
<clus scale="   55.111">  1  3  2 -1</clus>
<clus scale="   56.296">  1  5  2 -1</clus>
<clus scale="   96.276">  1  6  2 -1</clus>
<clus scale="   96.276">  2  3  1 -1</clus>
</clustering>
</event>
<event>
 6    0  0.1622933E+002  0.1096538E+03  0.7546771E-02  0.1261212E+00
          2   -1    0    0  504    0 -0.00000000000E+00  0.00000000000E+00  0.14587482658E+04  0.14587482658E+04  0.00000000000E+00 0.  1.
         21   -1    0    0  503  502  0.00000000000E+00 -0.00000000000E+00 -0.46445458546E+03  0.46445458546E+03  0.00000000000E+00 0.  1.
         21    1    1    2  503  505 -0.82383269961E+02  0.13016761869E+03  0.18410935034E+03  0.24005596224E+03  0.00000000000E+00 0.  1.
         21    1    1    2  504  502 -0.13034441543E+01 -0.42921135898E+02 -0.43139979241E+03  0.43353166409E+03  0.00000000000E+00 0.  1.
         21    1    1    2  505  501  0.55873587924E+02 -0.38711625382E+02  0.36685339022E+03  0.37309765167E+03  0.00000000000E+00 0.  1.
          2    1    1    2  501    0  0.27813126191E+02 -0.48534857408E+02  0.87473073220E+03  0.87651757325E+03  0.00000000000E+00 0.  1.
<scales pt_clust_3="14000.00000" pt_clust_4="42.94092" pt_clust_5="109.65376" pt_clust_6="56.96471"></scales>
<clustering>
<clus scale="   42.941">  2  4  1 -1</clus>
<clus scale="   56.965">  1  6  2 -1</clus>
<clus scale="  109.654">  1  5  2 -1</clus>
<clus scale="   42.941">  2  3  1 -1</clus>
</clustering>
</event>
<event>
 6    0  0.1622933E+002  0.1223113E+03  0.7546771E-02  0.1239332E+00
         21   -1    0    0  503  502  0.00000000000E+00  0.00000000000E+00  0.73416548924E+02  0.73416548924E+02  0.00000000000E+00 0.  1.
          2   -1    0    0  504    0 -0.00000000000E+00 -0.00000000000E+00 -0.86842415040E+03  0.86842415040E+03  0.00000000000E+00 0.  1.
         21    1    1    2  503  505 -0.48498593599E+02 -0.39877447275E+02  0.35340464120E+02  0.72050487760E+02  0.00000000000E+00 0.  1.
         21    1    1    2  504  502  0.94251950197E+02 -0.71386742925E+02 -0.26101431801E+03  0.28654488547E+03  0.00000000000E+00 0.  1.
         21    1    1    2  505  501 -0.30045226631E+02  0.59087168137E+02 -0.22273900198E+03  0.23239335637E+03  0.00000000000E+00 0.  1.
          2    1    1    2  501    0 -0.15708129967E+02  0.52177022063E+02 -0.34659474561E+03  0.35085196973E+03  0.00000000000E+00 0.  1.
<scales pt_clust_3="62.78793" pt_clust_4="115.75380" pt_clust_5="35.82285" pt_clust_6="35.82285"></scales>
<clustering>
<clus scale="   35.823">  5  6 -1 -1</clus>
<clus scale="   62.788">  1  3  2 -1</clus>
<clus scale="  115.754">  1  4  2 -1</clus>
<clus scale="   62.788">  1  3  2 -1</clus>
</clustering>
</event>
<event>
 6    0  0.1622933E+002  0.1165955E+03  0.7546771E-02  0.1248821E+00
         21   -1    0    0  504  502  0.00000000000E+00  0.00000000000E+00  0.77945283159E+03  0.77945283159E+03  0.00000000000E+00 0.  1.
          1   -1    0    0  503    0 -0.00000000000E+00 -0.00000000000E+00 -0.13613983337E+03  0.13613983337E+03  0.00000000000E+00 0. -1.
         21    1    1    2  503  505 -0.32764360028E+02  0.29934397337E+02 -0.42710002829E+02  0.61593147132E+02  0.00000000000E+00 0. -1.
         21    1    1    2  504  501  0.50861550616E+02 -0.11196251279E+03  0.72430047328E+03  0.73466569077E+03  0.00000000000E+00 0.  1.
         21    1    1    2  505  502 -0.32388411081E+02  0.31067541638E+02  0.11869967297E+02  0.46423027039E+02  0.00000000000E+00 0. -1.
          1    1    1    2  501    0  0.14291220493E+02  0.50960573815E+02 -0.50147439538E+02  0.72910800016E+02  0.00000000000E+00 0. -1.
<scales pt_clust_3="44.37985" pt_clust_4="116.59554" pt_clust_5="54.00663" pt_clust_6="14000.00000"></scales>
<clustering>
<clus scale="   44.380">  2  3  1 -1</clus>
<clus scale="   54.007">  2  5  1 -1</clus>
<clus scale="  116.596">  1  4  2 -1</clus>
<clus scale="  116.596">  1  3  2 -1</clus>
</clustering>
</event>
<event>
 6    0  0.1622933E+002  0.6136113E+02  0.7546771E-02  0.1392207E+00
         21   -1    0    0  505  502  0.00000000000E+00  0.00000000000E+00  0.61383836259E+02  0.61383836259E+02  0.00000000000E+00 0.  1.
          3   -1    0    0  504    0 -0.00000000000E+00 -0.00000000000E+00 -0.34427452538E+03  0.34427452538E+03  0.00000000000E+00 0.  1.
         21    1    1    2  503  502 -0.34668612617E+02  0.35357177111E+02 -0.72513812180E+01  0.50046230664E+02  0.00000000000E+00 0.  1.
         21    1    1    2  504  503 -0.59894743108E+02  0.86904757457E+01 -0.14583910669E+03  0.15789854230E+03  0.00000000000E+00 0.  1.
         21    1    1    2  505  501  0.51346250266E+02  0.30937471010E+02 -0.35289608726E+02  0.69562353417E+02  0.00000000000E+00 0.  1.
          3    1    1    2  501    0  0.43217105459E+02 -0.74985123868E+02 -0.94510592490E+02  0.12815123526E+03  0.00000000000E+00 0.  1.
<scales pt_clust_3="49.51810" pt_clust_4="61.36113" pt_clust_5="58.78538" pt_clust_6="14000.00000"></scales>
<clustering>
<clus scale="   49.518">  1  3  2 -1</clus>
<clus scale="   58.785">  1  5  2 -1</clus>
<clus scale="   61.361">  2  4  1 -1</clus>
<clus scale="   49.518">  1  3  2 -1</clus>
</clustering>
</event>
<event>
 6    0  0.1622933E+002  0.9160652E+02  0.7546771E-02  0.1299007E+00
          2   -1    0    0  504    0 -0.00000000000E+00  0.00000000000E+00  0.13008863600E+04  0.13008863600E+04  0.00000000000E+00 0.  1.
         21   -1    0    0  503  502  0.00000000000E+00 -0.00000000000E+00 -0.50447601829E+02  0.50447601829E+02  0.00000000000E+00 0.  1.
         21    1    1    2  503  505 -0.33005681687E+02  0.53630854523E+02 -0.78393310640E+01  0.63459425557E+02  0.00000000000E+00 0.  1.
         21    1    1    2  504  502 -0.29607469287E+01 -0.50379334298E+02  0.10737608732E+03  0.11864428968E+03  0.00000000000E+00 0.  1.
         21    1    1    2  505  501  0.89991001247E+00  0.85850430315E+02  0.27450973293E+03  0.28762249512E+03  0.00000000000E+00 0.  1.
          2    1    1    2  501    0  0.35066518604E+02 -0.89101950540E+02  0.87639226899E+03  0.88160775147E+03  0.00000000000E+00 0.  1.
<scales pt_clust_3="37.86957" pt_clust_4="50.46626" pt_clust_5="91.60652" pt_clust_6="14000.00000"></scales>
<clustering>
<clus scale="   50.466">  2  4  1 -1</clus>
<clus scale="   37.870">  2  3  1 -1</clus>
<clus scale="   91.607">  2  5  1 -1</clus>
<clus scale="   50.466">  2  3  1 -1</clus>
</clustering>
</event>
<event>
 6    0  0.6954727E+002  0.8376787E+02  0.7546771E-02  0.1318686E+00
         21   -1    0    0  505  502  0.00000000000E+00  0.00000000000E+00  0.40687225804E+03  0.40687225804E+03  0.00000000000E+00 0.  1.
          1   -1    0    0  504    0 -0.00000000000E+00 -0.00000000000E+00 -0.31499172027E+04  0.31499172027E+04  0.00000000000E+00 0. -1.
         21    1    1    2  503  501  0.19797232693E+02  0.10216214592E+03 -0.30746488568E+03  0.32459773630E+03  0.00000000000E+00 0. -1.
         21    1    1    2  504  502  0.21186286953E+02 -0.26336187866E+02  0.38838187952E+03  0.38984989148E+03  0.00000000000E+00 0.  1.
         21    1    1    2  505  503  0.22679299137E+02 -0.21317102582E+02 -0.19716809019E+02  0.36844565810E+02  0.00000000000E+00 0. -1.
          1    1    1    2  501    0 -0.63662818784E+02 -0.54508855467E+02 -0.28042451295E+04  0.28054972671E+04  0.00000000000E+00 0. -1.
<scales pt_clust_3="14000.00000" pt_clust_4="64.05259" pt_clust_5="31.12506" pt_clust_6="83.76787"></scales>
<clustering>
<clus scale="   31.125">  1  5  2 -1</clus>
<clus scale="   64.053">  1  4  2 -1</clus>
<clus scale="   83.768">  2  6  1 -1</clus>
<clus scale="   31.125">  1  3  2 -1</clus>
</clustering>
</event>
<event>
 6    0  0.1622933E+002  0.1090465E+03  0.7546771E-02  0.1262346E+00
         21   -1    0    0  503  502  0.00000000000E+00  0.00000000000E+00  0.14111378027E+03  0.14111378027E+03  0.00000000000E+00 0. -1.
          2   -1    0    0  504    0 -0.00000000000E+00 -0.00000000000E+00 -0.20780841018E+04  0.20780841018E+04  0.00000000000E+00 0.  1.
         21    1    1    2  503  501 -0.46753628888E+02  0.27409802705E+02 -0.83890554777E+03  0.84065433870E+03  0.00000000000E+00 0.  1.
         21    1    1    2  504  505  0.67559907247E+02  0.45098897211E+01 -0.34620649254E+03  0.35276566676E+03  0.00000000000E+00 0.  1.
         21    1    1    2  505  502  0.83663338830E+02 -0.26458666794E+02  0.11944790522E+03  0.14821409303E+03  0.00000000000E+00 0. -1.
          2    1    1    2  501    0 -0.10446961719E+03 -0.54610256318E+01 -0.87130618644E+03  0.87756378358E+03  0.00000000000E+00 0.  1.
<scales pt_clust_3="46.08265" pt_clust_4="67.71027" pt_clust_5="88.27235" pt_clust_6="46.08265"></scales>
<clustering>
<clus scale="   46.083">  3  6 -1 -1</clus>
<clus scale="   67.710">  2  4  1 -1</clus>
<clus scale="   88.272">  1  5  2 -1</clus>
<clus scale="   88.272">  1  3  2 -1</clus>
</clustering>
</event>
<event>
 6    0  0.1622933E+002  0.1476489E+03  0.7546771E-02  0.1203392E+00
          2   -1    0    0  504    0 -0.00000000000E+00  0.00000000000E+00  0.56009880249E+03  0.56009880249E+03  0.00000000000E+00 0. -1.
         21   -1    0    0  503  502  0.00000000000E+00 -0.00000000000E+00 -0.39410446217E+03  0.39410446217E+03  0.00000000000E+00 0. -1.
         21    1    1    2  503  505 -0.30236848694E+02 -0.26694693679E+02 -0.97290724630E+01  0.41491306807E+02  0.00000000000E+00 0. -1.
         21    1    1    2  504  502 -0.12386082630E+03  0.22074002960E+02 -0.34311070639E+03  0.36545002769E+03  0.00000000000E+00 0. -1.
         21    1    1    2  505  501  0.10963778944E+03 -0.18774611371E+00  0.22778475083E+03  0.25279709815E+03  0.00000000000E+00 0. -1.
          2    1    1    2  501    0  0.44459885558E+02  0.48084368324E+01  0.29104936834E+03  0.29446483203E+03  0.00000000000E+00 0. -1.
<scales pt_clust_3="40.33452" pt_clust_4="147.64891" pt_clust_5="14000.00000" pt_clust_6="44.56666"></scales>
<clustering>
<clus scale="   40.335">  2  3  1 -1</clus>
<clus scale="   44.567">  1  6  2 -1</clus>
<clus scale="  147.649">  2  4  1 -1</clus>
<clus scale="   40.335">  2  3  1 -1</clus>
</clustering>
</event>
<event>
 6    0  0.1622933E+002  0.7302581E+02  0.7546771E-02  0.1350096E+00
         21   -1    0    0  501  502  0.00000000000E+00  0.00000000000E+00  0.11399756535E+03  0.11399756535E+03  0.00000000000E+00 0. -1.
          2   -1    0    0  504    0 -0.00000000000E+00 -0.00000000000E+00 -0.10964107213E+04  0.10964107213E+04  0.00000000000E+00 0.  1.
         21    1    1    2  503  505  0.53017316518E+02  0.15733262418E+02 -0.16528023741E+03  0.17428691366E+03  0.00000000000E+00 0. -1.
         21    1    1    2  504  503  0.42348744423E+02 -0.48003978588E+02 -0.44527885327E+03  0.44985670528E+03  0.00000000000E+00 0. -1.
         21    1    1    2  505  502 -0.29061520694E+02 -0.28791452222E+02  0.98864256987E+02  0.10699374288E+03  0.00000000000E+00 0. -1.
          2    1    1    2  501    0 -0.66304540247E+02  0.61062168392E+02 -0.47071832231E+03  0.47927092487E+03  0.00000000000E+00 0.  1.
<scales pt_clust_3="41.38901" pt_clust_4="73.02581" pt_clust_5="40.90868" pt_clust_6="14000.00000"></scales>
<clustering>
<clus scale="   40.909">  1  5  2 -1</clus>
<clus scale="   41.389">  1  3  2 -1</clus>
<clus scale="   73.026">  2  4  1 -1</clus>
<clus scale="   40.909">  1  3  2 -1</clus>
</clustering>
</event>
<event>
 6    0  0.1622933E+002  0.1349676E+03  0.7546771E-02  0.1220265E+00
         21   -1    0    0  504  502  0.00000000000E+00  0.00000000000E+00  0.24766338803E+02  0.24766338803E+02  0.00000000000E+00 0.  1.
          2   -1    0    0  503    0 -0.00000000000E+00 -0.00000000000E+00 -0.23416169776E+04  0.23416169776E+04  0.00000000000E+00 0.  1.
         21    1    1    2  503  502 -0.11078046666E+03  0.17996349217E+02 -0.29307273628E+03  0.31382767425E+03  0.00000000000E+00 0.  1.
         21    1    1    2  504  505 -0.77110277981E+01  0.33613541584E+02 -0.12748720547E+02  0.36767648865E+02  0.00000000000E+00 0.  1.
         21    1    1    2  505  501  0.59094760694E+02 -0.21188660327E+02 -0.13343873035E+04  0.13358632512E+04  0.00000000000E+00 0. -1.
          2    1    1    2  501    0  0.59396733762E+02 -0.30421230474E+02 -0.67664187849E+03  0.67992474214E+03  0.00000000000E+00 0.  1.
<scales pt_clust_3="125.52770" pt_clust_4="34.48667" pt_clust_5="48.71114" pt_clust_6="48.71114"></scales>
<clustering>
<clus scale="   34.487">  1  4  2 -1</clus>
<clus scale="   48.711">  5  6 -1 -1</clus>
<clus scale="  125.528">  1  3  2 -1</clus>
<clus scale="   34.487">  1  3  2 -1</clus>
</clustering>
</event>
<event>
 6    0  0.1622933E+002  0.1053758E+03  0.7546771E-02  0.1269381E+00
         21   -1    0    0  503  502  0.00000000000E+00  0.00000000000E+00  0.70040140622E+03  0.70040140622E+03  0.00000000000E+00 0.  1.
          2   -1    0    0  502    0 -0.00000000000E+00 -0.00000000000E+00 -0.18625439012E+03  0.18625439012E+03  0.00000000000E+00 0.  1.
         21    1    1    2  503  505  0.32166144826E+02 -0.75059581890E+02  0.55015890851E+03  0.55618650318E+03  0.00000000000E+00 0.  1.
         21    1    1    2  504  501 -0.47401367302E+02  0.12025087913E+02 -0.53993577323E+02  0.72847777959E+02  0.00000000000E+00 0.  1.
         21    1    1    2  505  504  0.60551176907E+02  0.97121650706E+02  0.10396635483E+03  0.15462232373E+03  0.00000000000E+00 0.  1.
          2    1    1    2  501    0 -0.45315954430E+02 -0.34087156729E+02 -0.85984669925E+02  0.10299919146E+03  0.00000000000E+00 0.  1.
<scales pt_clust_3="81.66151" pt_clust_4="44.00128" pt_clust_5="94.12250" pt_clust_6="44.00128"></scales>
<clustering>
<clus scale="   44.001">  4  6 -1 -1</clus>
<clus scale="   81.662">  1  3  2 -1</clus>
<clus scale="   94.123">  1  5  2 -1</clus>
<clus scale="   81.662">  1  3  2 -1</clus>
</clustering>
</event>
<event>
 6    0  0.1622933E+002  0.1124010E+03  0.7546771E-02  0.1256187E+00
         21   -1    0    0  503  502  0.00000000000E+00  0.00000000000E+00  0.12301059574E+03  0.12301059574E+03  0.00000000000E+00 0.  1.
          2   -1    0    0  505    0 -0.00000000000E+00 -0.00000000000E+00 -0.11182952653E+04  0.11182952653E+04  0.00000000000E+00 0.  1.
         21    1    1    2  503  501 -0.15055957551E+02 -0.35282128128E+02  0.91570661119E+02  0.99280896455E+02  0.00000000000E+00 0.  1.
         21    1    1    2  504  502 -0.84611572671E+02  0.58554344426E+02 -0.34211711395E+03  0.35725599945E+03  0.00000000000E+00 0.  1.
         21    1    1    2  505  504 -0.47621109848E+02 -0.77102189420E+02 -0.27144827921E+03  0.28617597035E+03  0.00000000000E+00 0.  1.
          2    1    1    2  501    0  0.14728864007E+03  0.53829973122E+02 -0.47328993754E+03  0.49859299481E+03  0.00000000000E+00 0.  1.
<scales pt_clust_3="38.36027" pt_clust_4="112.40097" pt_clust_5="100.76003" pt_clust_6="14000.00000"></scales>
<clustering>
<clus scale="   38.360">  1  3  2 -1</clus>
<clus scale="  100.760">  2  5  1 -1</clus>
<clus scale="  112.401">  1  4  2 -1</clus>
<clus scale="   38.360">  1  3  2 -1</clus>
</clustering>
</event>
<event>
 6    0  0.1622933E+002  0.1202449E+03  0.7546771E-02  0.1242694E+00
          1   -1    0    0  503    0 -0.00000000000E+00  0.00000000000E+00  0.18996374293E+04  0.18996374293E+04  0.00000000000E+00 0. -1.
         21   -1    0    0  501  502  0.00000000000E+00 -0.00000000000E+00 -0.93920081163E+02  0.93920081163E+02  0.00000000000E+00 0.  1.
         21    1    1    2  503  504  0.56589908681E+02 -0.15105674177E+02  0.16236292188E+03  0.17260451199E+03  0.00000000000E+00 0. -1.
         21    1    1    2  504  505  0.60994858100E+02 -0.13269374662E+03  0.96001407843E+03  0.97105871805E+03  0.00000000000E+00 0. -1.
         21    1    1    2  505  502 -0.24835610581E+02  0.81859835934E+02 -0.55741448052E+02  0.10210264112E+03  0.00000000000E+00 0.  1.
          1    1    1    2  501    0 -0.92749156200E+02  0.65939584863E+02  0.73908179589E+03  0.74779163932E+03  0.00000000000E+00 0. -1.
<scales pt_clust_3="58.57132" pt_clust_4="14000.00000" pt_clust_5="85.13367" pt_clust_6="120.24487"></scales>
<clustering>
<clus scale="   58.571">  1  3  2 -1</clus>
<clus scale="   85.134">  2  5  1 -1</clus>
<clus scale="  120.245">  1  6  2 -1</clus>
<clus scale="   85.134">  2  3  1 -1</clus>
</clustering>
</event>
<event>
 6    0  0.1622933E+002  0.1123144E+03  0.7546771E-02  0.1256343E+00
         21   -1    0    0  504  502  0.00000000000E+00  0.00000000000E+00  0.23088806930E+03  0.23088806930E+03  0.00000000000E+00 0. -1.
         -3   -1    0    0    0  501 -0.00000000000E+00 -0.00000000000E+00 -0.59642728206E+03  0.59642728206E+03  0.00000000000E+00 0.  1.
         21    1    1    2  503  501 -0.20462025674E+02  0.69004750442E+02 -0.41056210806E+02  0.82861103807E+02  0.00000000000E+00 0.  1.
         21    1    1    2  504  503  0.18852624441E+02  0.90496472881E+02  0.18510989277E+03  0.20690748042E+03  0.00000000000E+00 0. -1.
         21    1    1    2  505  502 -0.19126753734E+02 -0.84420808213E+02 -0.34124976296E+03  0.35205696455E+03  0.00000000000E+00 0.  1.
         -3    1    1    2    0  505  0.20736154967E+02 -0.75080415111E+02 -0.16834313176E+03  0.18548980259E+03  0.00000000000E+00 0.  1.
<scales pt_clust_3="71.97465" pt_clust_4="93.73439" pt_clust_5="58.69380" pt_clust_6="58.69380"></scales>
<clustering>
<clus scale="   58.694">  5  6 -1 -1</clus>
<clus scale="   71.975">  2  3  1 -1</clus>
<clus scale="   93.734">  1  4  2 -1</clus>
<clus scale="   93.734">  1  3  2 -1</clus>
</clustering>
</event>
<event>
 6    0  0.1622933E+002  0.9825874E+02  0.7546771E-02  0.1284001E+00
          1   -1    0    0  505    0 -0.00000000000E+00  0.00000000000E+00  0.32233658744E+04  0.32233658744E+04  0.00000000000E+00 0. -1.
         21   -1    0    0  504  502  0.00000000000E+00 -0.00000000000E+00 -0.71142401805E+02  0.71142401805E+02  0.00000000000E+00 0. -1.
         21    1    1    2  503  502 -0.65430260712E+02  0.75516696358E+02 -0.30493368509E+02  0.10446882774E+03  0.00000000000E+00 0. -1.
         21    1    1    2  504  501  0.50948563442E+02 -0.32758059466E+02  0.89164808744E+03  0.89370305942E+03  0.00000000000E+00 0. -1.
         21    1    1    2  505  503 -0.39833712992E+02 -0.44669432037E+02  0.39681899234E+03  0.40130710875E+03  0.00000000000E+00 0. -1.
          1    1    1    2  501    0  0.54315410262E+02  0.19107951445E+01  0.18942497613E+04  0.18950292803E+04  0.00000000000E+00 0. -1.
<scales pt_clust_3="98.25874" pt_clust_4="14000.00000" pt_clust_5="49.97650" pt_clust_6="54.34901"></scales>
<clustering>
<clus scale="   54.349">  1  6  2 -1</clus>
<clus scale="   49.976">  1  5  2 -1</clus>
<clus scale="   98.259">  2  3  1 -1</clus>
<clus scale="   98.259">  2  3  1 -1</clus>
</clustering>
</event>
<event>
 6    0  0.1622933E+002  0.1105236E+03  0.7546771E-02  0.1259603E+00
          2   -1    0    0  504    0 -0.00000000000E+00  0.00000000000E+00  0.32859124192E+03  0.32859124192E+03  0.00000000000E+00 0. -1.
         21   -1    0    0  505  502  0.00000000000E+00 -0.00000000000E+00 -0.10940954785E+04  0.10940954785E+04  0.00000000000E+00 0.  1.
         21    1    1    2  503  502  0.74051076399E+02  0.63626612284E+02 -0.10597001294E+04  0.10641880811E+04  0.00000000000E+00 0.  1.
         21    1    1    2  504  503  0.35397598752E+02  0.18243591339E+01  0.19227766665E+01  0.35496694970E+02  0.00000000000E+00 0.  1.
         21    1    1    2  505  501 -0.41159423175E+02 -0.84318975743E+01  0.52405866345E+02  0.67168220464E+02  0.00000000000E+00 0.  1.
          2    1    1    2  501    0 -0.68289251976E+02 -0.57019073843E+02  0.23986724983E+03  0.25583372385E+03  0.00000000000E+00 0. -1.
<scales pt_clust_3="97.83464" pt_clust_4="35.44458" pt_clust_5="35.33528" pt_clust_6="35.33528"></scales>
<clustering>
<clus scale="   35.335">  5  6 -1 -1</clus>
<clus scale="   35.445">  1  4  2 -1</clus>
<clus scale="   97.835">  2  3  1 -1</clus>
<clus scale="   97.835">  2  3  1 -1</clus>
</clustering>
</event>
<event>
 6    0  0.1622933E+002  0.1509173E+03  0.7546771E-02  0.1199350E+00
          3   -1    0    0  504    0 -0.00000000000E+00  0.00000000000E+00  0.31198715484E+03  0.31198715484E+03  0.00000000000E+00 0. -1.
         21   -1    0    0  505  502  0.00000000000E+00 -0.00000000000E+00 -0.12004891087E+04  0.12004891087E+04  0.00000000000E+00 0. -1.
         21    1    1    2  503  502 -0.14554771620E+01 -0.53219882320E+02 -0.11194223073E+04  0.11206876355E+04  0.00000000000E+00 0. -1.
         21    1    1    2  504  503  0.42301848042E+02 -0.99584759876E+02  0.17920394037E+01  0.10821174683E+03  0.00000000000E+00 0. -1.
         21    1    1    2  505  501 -0.16176875427E+02  0.48317658328E+02  0.35251377475E+02  0.61959236751E+02  0.00000000000E+00 0. -1.
          3    1    1    2  501    0 -0.24669495453E+02  0.10448698387E+03  0.19387693657E+03  0.22161764446E+03  0.00000000000E+00 0. -1.
<scales pt_clust_3="53.23978" pt_clust_4="140.98814" pt_clust_5="37.08899" pt_clust_6="37.08899"></scales>
<clustering>
<clus scale="   37.089">  5  6 -1 -1</clus>
<clus scale="   53.240">  2  3  1 -1</clus>
<clus scale="  140.988">  2  4  1 -1</clus>
<clus scale="   53.240">  2  3  1 -1</clus>
</clustering>
</event>
<event>
 6    0  0.1622933E+002  0.1210518E+03  0.7546771E-02  0.1241372E+00
         21   -1    0    0  504  502  0.00000000000E+00  0.00000000000E+00  0.16573544900E+04  0.16573544900E+04  0.00000000000E+00 0. -1.
          2   -1    0    0  505    0 -0.00000000000E+00 -0.00000000000E+00 -0.78189165171E+02  0.78189165171E+02  0.00000000000E+00 0. -1.
         21    1    1    2  503  501  0.37786622057E+02 -0.17766979229E+02  0.32481709161E+02  0.52901377935E+02  0.00000000000E+00 0.  1.
         21    1    1    2  504  503  0.60261341423E+01  0.10148672937E+03  0.14229063434E+04  0.14265336773E+04  0.00000000000E+00 0. -1.
         21    1    1    2  505  502 -0.86702454824E+02  0.22430726009E+02  0.10837384293E+03  0.14058927048E+03  0.00000000000E+00 0. -1.
          2    1    1    2  501    0  0.42889698625E+02 -0.10615047615E+03  0.15403429352E+02  0.11551932942E+03  0.00000000000E+00 0. -1.
<scales pt_clust_3="39.17700" pt_clust_4="102.20174" pt_clust_5="89.55698" pt_clust_6="39.17700"></scales>
<clustering>
<clus scale="   39.177">  3  6 -1 -1</clus>
<clus scale="   89.557">  2  5  1 -1</clus>
<clus scale="  102.202">  1  4  2 -1</clus>
<clus scale="  102.202">  1  3  2 -1</clus>
</clustering>
</event>
<event>
 6    0  0.1622933E+002  0.7330886E+02  0.7546771E-02  0.1349189E+00
          1   -1    0    0  503    0 -0.00000000000E+00  0.00000000000E+00  0.10114281196E+04  0.10114281196E+04  0.00000000000E+00 0. -1.
         21   -1    0    0  505  502  0.00000000000E+00 -0.00000000000E+00 -0.51900923566E+02  0.51900923566E+02  0.00000000000E+00 0. -1.
         21    1    1    2  503  504  0.19312412005E+02 -0.67544970607E+02  0.74037507296E+03  0.74370057212E+03  0.00000000000E+00 0. -1.
         21    1    1    2  504  502 -0.31601081726E+02 -0.15209898807E+02  0.66421842103E+02  0.75112119503E+02  0.00000000000E+00 0. -1.
         21    1    1    2  505  501  0.69586654620E+00 -0.52751824232E+02  0.26833927553E+02  0.59188671703E+02  0.00000000000E+00 0. -1.
          1    1    1    2  501    0  0.11592803175E+02  0.13550669365E+03  0.12589635340E+03  0.18532767982E+03  0.00000000000E+00 0. -1.
<scales pt_clust_3="73.30886" pt_clust_4="35.07092" pt_clust_5="58.79194" pt_clust_6="14000.00000"></scales>
<clustering>
<clus scale="   35.071">  2  4  1 -1</clus>
<clus scale="   58.792">  2  5  1 -1</clus>
<clus scale="   73.309">  1  3  2 -1</clus>
<clus scale="   35.071">  2  3  1 -1</clus>
</clustering>
</event>
<event>
 6    0  0.1622933E+002  0.7575685E+02  0.7546771E-02  0.1341543E+00
         21   -1    0    0  504  502  0.00000000000E+00  0.00000000000E+00  0.65286442896E+02  0.65286442896E+02  0.00000000000E+00 0. -1.
         -4   -1    0    0    0  501 -0.00000000000E+00 -0.00000000000E+00 -0.53073759067E+03  0.53073759067E+03  0.00000000000E+00 0. -1.
         21    1    1    2  503  501  0.33876368649E+02  0.20223084213E+02 -0.53308302892E+02  0.66320107397E+02  0.00000000000E+00 0. -1.
         21    1    1    2  504  503 -0.31279736687E+02  0.27359061933E+02 -0.38203064260E+02  0.56448333155E+02  0.00000000000E+00 0.  1.
         21    1    1    2  505  502  0.81599378961E+02 -0.69285333449E+02 -0.20134936495E+02  0.10892351328E+03  0.00000000000E+00 0. -1.
         -4    1    1    2    0  505 -0.84196010923E+02  0.21703187304E+02 -0.35380484412E+03  0.36433207973E+03  0.00000000000E+00 0. -1.
<scales pt_clust_3="39.45354" pt_clust_4="40.50786" pt_clust_5="14000.00000" pt_clust_6="75.75685"></scales>
<clustering>
<clus scale="   39.454">  2  3  1 -1</clus>
<clus scale="   40.508">  1  4  2 -1</clus>
<clus scale="   75.757">  2  6  1 -1</clus>
<clus scale="   40.508">  1  3  2 -1</clus>
</clustering>
</event>
<event>
 6    0  0.1622933E+002  0.1921043E+03  0.7546771E-02  0.1156577E+00
          2   -1    0    0  503    0 -0.00000000000E+00  0.00000000000E+00  0.30927625373E+04  0.30927625373E+04  0.00000000000E+00 0.  1.
         21   -1    0    0  505  502  0.00000000000E+00 -0.00000000000E+00 -0.17228803515E+02  0.17228803515E+02  0.00000000000E+00 0.  1.
         21    1    1    2  503  504 -0.45511120246E+00 -0.37897384630E+02  0.72759728348E+03  0.72858371229E+03  0.00000000000E+00 0. -1.
         21    1    1    2  504  502 -0.63237630123E+02 -0.16125376986E+03  0.79553844980E+03  0.81417639444E+03  0.00000000000E+00 0.  1.
         21    1    1    2  505  501  0.20080854793E+02  0.13401205066E+03  0.90093322801E+03  0.91106704023E+03  0.00000000000E+00 0.  1.
          2    1    1    2  501    0  0.43611886532E+02  0.65139103837E+02  0.65146477246E+03  0.65616419382E+03  0.00000000000E+00 0.  1.
<scales pt_clust_3="37.90012" pt_clust_4="185.33163" pt_clust_5="38.39178" pt_clust_6="38.39178"></scales>
<clustering>
<clus scale="   37.900">  1  3  2 -1</clus>
<clus scale="   38.392">  5  6 -1 -1</clus>
<clus scale="  185.332">  2  4  1 -1</clus>
<clus scale="  185.332">  2  3  1 -1</clus>
</clustering>
</event>
<event>
 6    0  0.1622933E+002  0.1194086E+03  0.7546771E-02  0.1244076E+00
         -2   -1    0    0    0  501 -0.00000000000E+00  0.00000000000E+00  0.61929584680E+03  0.61929584680E+03  0.00000000000E+00 0. -1.
         21   -1    0    0  503  502  0.00000000000E+00 -0.00000000000E+00 -0.17080452888E+03  0.17080452888E+03  0.00000000000E+00 0. -1.
         21    1    1    2  503  505 -0.31038449283E+02 -0.36595400934E+02 -0.12565616288E+03  0.13450680270E+03  0.00000000000E+00 0. -1.
         21    1    1    2  504  502 -0.92846627001E+02 -0.23903279407E+02  0.54931403709E+02  0.11049580094E+03  0.00000000000E+00 0.  1.
         21    1    1    2  505  501  0.26323070300E+01  0.40719358884E+02  0.17244871368E+03  0.17721047959E+03  0.00000000000E+00 0. -1.
         -2    1    1    2    0  504  0.12125276925E+03  0.19779321457E+02  0.34676736342E+03  0.36788729244E+03  0.00000000000E+00 0. -1.
<scales pt_clust_3="47.65998" pt_clust_4="14000.00000" pt_clust_5="40.80435" pt_clust_6="119.40863"></scales>
<clustering>
<clus scale="   40.804">  1  5  2 -1</clus>
<clus scale="   47.660">  2  3  1 -1</clus>
<clus scale="  119.409">  1  6  2 -1</clus>
<clus scale="   47.660">  2  3  1 -1</clus>
</clustering>
</event>
<event>
 6    0  0.1622933E+002  0.1215765E+03  0.7546771E-02  0.1240519E+00
          1   -1    0    0  504    0 -0.00000000000E+00  0.00000000000E+00  0.91484791943E+03  0.91484791943E+03  0.00000000000E+00 0. -1.
         21   -1    0    0  503  502  0.00000000000E+00 -0.00000000000E+00 -0.11993760259E+04  0.11993760259E+04  0.00000000000E+00 0.  1.
         21    1    1    2  503  501 -0.12295474507E+03 -0.45340466795E+01 -0.11486774997E+04  0.11552482094E+04  0.00000000000E+00 0.  1.
         21    1    1    2  504  505 -0.76760771750E+02 -0.11090017162E+02  0.54324201146E+02  0.94690672141E+02  0.00000000000E+00 0.  1.
         21    1    1    2  505  502  0.84994819675E+02 -0.17430771996E+02  0.61142481127E+02  0.10614308353E+03  0.00000000000E+00 0. -1.
          1    1    1    2  501    0  0.11472069714E+03  0.33054835838E+02  0.74868271098E+03  0.75814198027E+03  0.00000000000E+00 0. -1.
<scales pt_clust_3="14000.00000" pt_clust_4="77.55775" pt_clust_5="121.57652" pt_clust_6="51.39074"></scales>
<clustering>
<clus scale="   77.558">  1  4  2 -1</clus>
<clus scale="   51.391">  1  6  2 -1</clus>
<clus scale="  121.577">  1  5  2 -1</clus>
<clus scale="  121.577">  2  3  1 -1</clus>
</clustering>
</event>
<event>
 6    0  0.1622933E+002  0.1239263E+03  0.7546771E-02  0.1236757E+00
         21   -1    0    0  503  502  0.00000000000E+00  0.00000000000E+00  0.12519912533E+03  0.12519912533E+03  0.00000000000E+00 0.  1.
          1   -1    0    0  505    0 -0.00000000000E+00 -0.00000000000E+00 -0.16550961880E+04  0.16550961880E+04  0.00000000000E+00 0. -1.
         21    1    1    2  503  504 -0.13945234473E+02 -0.30298188307E+02 -0.16394077800E+03  0.16729921838E+03  0.00000000000E+00 0.  1.
         21    1    1    2  504  501 -0.60255735873E+02 -0.73990479403E+01 -0.25387393640E+03  0.26103155977E+03  0.00000000000E+00 0.  1.
         21    1    1    2  505  502  0.11844804347E+03 -0.88764541142E+01  0.89463517712E+02  0.14870256030E+03  0.00000000000E+00 0.  1.
          1    1    1    2  501    0 -0.44247073124E+02  0.46573690362E+02 -0.12015458660E+04  0.12032619749E+04  0.00000000000E+00 0. -1.
<scales pt_clust_3="32.90920" pt_clust_4="32.90920" pt_clust_5="115.69990" pt_clust_6="64.24105"></scales>
<clustering>
<clus scale="   32.909">  3  4 -1 -1</clus>
<clus scale="   64.241">  2  6  1 -1</clus>
<clus scale="  115.700">  1  5  2 -1</clus>
<clus scale="  115.700">  1  3  2 -1</clus>
</clustering>
</event>
<event>
 6    0  0.1622933E+002  0.1208171E+03  0.7546771E-02  0.1241755E+00
         21   -1    0    0  505  502  0.00000000000E+00  0.00000000000E+00  0.15907870461E+03  0.15907870461E+03  0.00000000000E+00 0.  1.
         -2   -1    0    0    0  501 -0.00000000000E+00 -0.00000000000E+00 -0.10346921482E+04  0.10346921482E+04  0.00000000000E+00 0. -1.
         21    1    1    2  503  502 -0.13568493656E+03  0.19746538447E+01  0.11032793735E+03  0.17489012272E+03  0.00000000000E+00 0.  1.
         21    1    1    2  504  503  0.73880894719E+02 -0.12200609168E+01 -0.88378506050E+02  0.11519824428E+03  0.00000000000E+00 0.  1.
         21    1    1    2  505  501  0.54669554611E+01 -0.34368782658E+02 -0.44913905122E+03  0.45048528073E+03  0.00000000000E+00 0. -1.
         -2    1    1    2    0  504  0.56337086377E+02  0.33614189730E+02 -0.44842382372E+03  0.45319720512E+03  0.00000000000E+00 0. -1.
<scales pt_clust_3="14000.00000" pt_clust_4="120.81714" pt_clust_5="34.80087" pt_clust_6="60.96847"></scales>
<clustering>
<clus scale="   34.801">  2  5  1 -1</clus>
<clus scale="   60.968">  2  6  1 -1</clus>
<clus scale="  120.817">  2  4  1 -1</clus>
<clus scale="  120.817">  1  3  2 -1</clus>
</clustering>
</event>
<event>
 6    0  0.1622933E+002  0.2059716E+03  0.7546771E-02  0.1144796E+00
         21   -1    0    0  503  502  0.00000000000E+00  0.00000000000E+00  0.18318483578E+03  0.18318483578E+03  0.00000000000E+00 0.  1.
          1   -1    0    0  504    0 -0.00000000000E+00 -0.00000000000E+00 -0.21348322779E+04  0.21348322779E+04  0.00000000000E+00 0. -1.
         21    1    1    2  503  501  0.76361716231E+02  0.90860003100E+02  0.11562536397E+03  0.16569814924E+03  0.00000000000E+00 0.  1.
         21    1    1    2  504  505  0.40897388209E+01 -0.89479106445E+02 -0.26398252895E+03  0.27876515572E+03  0.00000000000E+00 0. -1.
         21    1    1    2  505  502 -0.30811296191E+02  0.15580003823E+03 -0.17258540284E+03  0.23453935524E+03  0.00000000000E+00 0.  1.
          1    1    1    2  501    0 -0.49640158861E+02 -0.15718093488E+03 -0.16307048743E+04  0.16390144535E+04  0.00000000000E+00 0. -1.
<scales pt_clust_3="117.80505" pt_clust_4="89.57252" pt_clust_5="205.97164" pt_clust_6="14000.00000"></scales>
<clustering>
<clus scale="   89.573">  2  4  1 -1</clus>
<clus scale="  117.805">  1  3  2 -1</clus>
<clus scale="  205.972">  1  5  2 -1</clus>
<clus scale="  117.805">  1  3  2 -1</clus>
</clustering>
</event>
<event>
 6    0  0.1622933E+002  0.1202427E+03  0.7546771E-02  0.1242697E+00
          2   -1    0    0  505    0 -0.00000000000E+00  0.00000000000E+00  0.24088578533E+04  0.24088578533E+04  0.00000000000E+00 0.  1.
         21   -1    0    0  504  502  0.00000000000E+00 -0.00000000000E+00 -0.25504335168E+02  0.25504335168E+02  0.00000000000E+00 0. -1.
         21    1    1    2  503  502  0.85603809056E+02 -0.40070039198E+02  0.10028975065E+03  0.13781021098E+03  0.00000000000E+00 0. -1.
         21    1    1    2  504  501 -0.45029854934E+02  0.13969877236E+02  0.58924959240E+03  0.59113274943E+03  0.00000000000E+00 0.  1.
         21    1    1    2  505  503  0.16122243769E+02 -0.75688055722E+02  0.86513928594E+03  0.86859345645E+03  0.00000000000E+00 0. -1.
          2    1    1    2  501    0 -0.56696197891E+02  0.10178821768E+03  0.82867488914E+03  0.83682577160E+03  0.00000000000E+00 0.  1.
<scales pt_clust_3="98.23809" pt_clust_4="44.10654" pt_clust_5="77.38610" pt_clust_6="44.10654"></scales>
<clustering>
<clus scale="   44.107">  4  6 -1 -1</clus>
<clus scale="   77.386">  1  5  2 -1</clus>
<clus scale="   98.238">  2  3  1 -1</clus>
<clus scale="   98.238">  2  3  1 -1</clus>
</clustering>
</event>
<event>
 6    0  0.1622933E+002  0.1530595E+03  0.7546771E-02  0.1196763E+00
         21   -1    0    0  503  502  0.00000000000E+00  0.00000000000E+00  0.12063792714E+03  0.12063792714E+03  0.00000000000E+00 0. -1.
          2   -1    0    0  504    0 -0.00000000000E+00 -0.00000000000E+00 -0.19678744629E+04  0.19678744629E+04  0.00000000000E+00 0. -1.
         21    1    1    2  503  501  0.98497320517E+02  0.15569877061E+03 -0.41415606564E+03  0.45328696873E+03  0.00000000000E+00 0.  1.
         21    1    1    2  504  505  0.19321507051E+02 -0.29570267229E+02 -0.84527355846E+02  0.91611108633E+02  0.00000000000E+00 0.  1.
         21    1    1    2  505  502 -0.11263198158E+03  0.44002995237E+01  0.60901922958E+02  0.12811857839E+03  0.00000000000E+00 0. -1.
          2    1    1    2  501    0 -0.51868459909E+01 -0.13052880290E+03 -0.14094550373E+04  0.14154957343E+04  0.00000000000E+00 0. -1.
<scales pt_clust_3="14000.00000" pt_clust_4="35.32310" pt_clust_5="112.35327" pt_clust_6="153.05949"></scales>
<clustering>
<clus scale="   35.323">  2  4  1 -1</clus>
<clus scale="  112.353">  1  5  2 -1</clus>
<clus scale="  153.059">  2  6  1 -1</clus>
<clus scale="  112.353">  1  3  2 -1</clus>
</clustering>
</event>
<event>
 6    0  0.1622933E+002  0.1792860E+03  0.7546771E-02  0.1168496E+00
         -2   -1    0    0    0  501 -0.00000000000E+00  0.00000000000E+00  0.35645194522E+03  0.35645194522E+03  0.00000000000E+00 0. -1.
         21   -1    0    0  504  502  0.00000000000E+00 -0.00000000000E+00 -0.65099452339E+03  0.65099452339E+03  0.00000000000E+00 0. -1.
         21    1    1    2  503  502 -0.89436121393E+02 -0.24813500409E+03  0.12507449159E+03  0.29191339214E+03  0.00000000000E+00 0. -1.
         21    1    1    2  504  505  0.93736068713E+02  0.14659305367E+03 -0.52538752885E+03  0.55345101809E+03  0.00000000000E+00 0. -1.
         21    1    1    2  505  501  0.26318640925E+02  0.15833475600E+02  0.17781278698E+02  0.35490050462E+02  0.00000000000E+00 0. -1.
         -2    1    1    2    0  503 -0.30618588245E+02  0.85708474824E+02  0.87989180385E+02  0.12659200791E+03  0.00000000000E+00 0. -1.
<scales pt_clust_3="179.28596" pt_clust_4="14000.00000" pt_clust_5="30.71433" pt_clust_6="93.49813"></scales>
<clustering>
<clus scale="   30.714">  1  5  2 -1</clus>
<clus scale="   93.498">  1  6  2 -1</clus>
<clus scale="  179.286">  1  3  2 -1</clus>
<clus scale="  179.286">  2  3  1 -1</clus>
</clustering>
</event>
<event>
 6    0  0.1622933E+002  0.9094882E+02  0.7546771E-02  0.1300570E+00
         21   -1    0    0  501  502  0.00000000000E+00  0.00000000000E+00  0.32009263808E+02  0.32009263808E+02  0.00000000000E+00 0. -1.
          2   -1    0    0  503    0 -0.00000000000E+00 -0.00000000000E+00 -0.11380008766E+04  0.11380008766E+04  0.00000000000E+00 0. -1.
         21    1    1    2  503  504 -0.54153135196E+02  0.17172326617E+01 -0.17230822672E+03  0.18062567905E+03  0.00000000000E+00 0. -1.
         21    1    1    2  504  505  0.57173897054E+02 -0.18988492668E+02 -0.15038025462E+03  0.16199888376E+03  0.00000000000E+00 0. -1.
         21    1    1    2  505  502  0.67679529589E+02  0.62633598376E+02 -0.89466422687E+02  0.12848240019E+03  0.00000000000E+00 0. -1.
          2    1    1    2  501    0 -0.70700291447E+02 -0.45362338370E+02 -0.69383670882E+03  0.69890317745E+03  0.00000000000E+00 0. -1.
<scales pt_clust_3="54.18036" pt_clust_4="51.86924" pt_clust_5="14000.00000" pt_clust_6="90.94882"></scales>
<clustering>
<clus scale="   54.180">  2  3  1 -1</clus>
<clus scale="   51.869">  2  4  1 -1</clus>
<clus scale="   90.949">  2  6  1 -1</clus>
<clus scale="   90.949">  1  3  2 -1</clus>
</clustering>
</event>
<event>
 6    0  0.1622933E+002  0.1682735E+03  0.7546771E-02  0.1179660E+00
         21   -1    0    0  501  502  0.00000000000E+00  0.00000000000E+00  0.24587282918E+03  0.24587282918E+03  0.00000000000E+00 0.  1.
          1   -1    0    0  505    0 -0.00000000000E+00 -0.00000000000E+00 -0.12348698353E+04  0.12348698353E+04  0.00000000000E+00 0.  1.
         21    1    1    2  503  504 -0.36466923720E+02 -0.54698316299E+02 -0.11045629514E+03  0.12853923707E+03  0.00000000000E+00 0. -1.
         21    1    1    2  504  502  0.15412481427E+03 -0.71341089575E+02  0.19569227306E+03  0.25911286184E+03  0.00000000000E+00 0.  1.
         21    1    1    2  505  503 -0.34929824121E+02  0.22015036457E+02 -0.80129132104E+02  0.90141179575E+02  0.00000000000E+00 0. -1.
          1    1    1    2  501    0 -0.82728066433E+02  0.10402436942E+03 -0.99410385194E+03  0.10029493860E+04  0.00000000000E+00 0.  1.
<scales pt_clust_3="65.98958" pt_clust_4="14000.00000" pt_clust_5="41.28867" pt_clust_6="168.27355"></scales>
<clustering>
<clus scale="   41.289">  2  5  1 -1</clus>
<clus scale="   65.990">  2  3  1 -1</clus>
<clus scale="  168.274">  2  6  1 -1</clus>
<clus scale="  168.274">  1  3  2 -1</clus>
</clustering>
</event>
<event>
 6    0  0.1622933E+002  0.1109375E+03  0.7546771E-02  0.1258844E+00
         -4   -1    0    0    0  501 -0.00000000000E+00  0.00000000000E+00  0.12221640369E+04  0.12221640369E+04  0.00000000000E+00 0.  1.
         21   -1    0    0  501  502  0.00000000000E+00 -0.00000000000E+00 -0.15252025810E+04  0.15252025810E+04  0.00000000000E+00 0.  1.
         21    1    1    2  503  505  0.78913970674E+02 -0.47483222838E+02  0.16691783339E+03  0.19064006484E+03  0.00000000000E+00 0. -1.
         21    1    1    2  504  502  0.70266084855E+01  0.31225898243E+02 -0.14465847241E+04  0.14469387665E+04  0.00000000000E+00 0.  1.
         21    1    1    2  505  504 -0.50404871467E+02 -0.10191162024E+03 -0.11233442540E+02  0.11424893715E+03  0.00000000000E+00 0. -1.
         -4    1    1    2    0  503 -0.35535707693E+02  0.11816894484E+03  0.98786178921E+03  0.99553884938E+03  0.00000000000E+00 0.  1.
<scales pt_clust_3="110.93746" pt_clust_4="32.00672" pt_clust_5="89.02094" pt_clust_6="14000.00000"></scales>
<clustering>
<clus scale="   32.007">  2  4  1 -1</clus>
<clus scale="   89.021">  2  5  1 -1</clus>
<clus scale="  110.937">  2  3  1 -1</clus>
<clus scale="   32.007">  2  3  1 -1</clus>
</clustering>
</event>
<event>
 6    0  0.1622933E+002  0.1397762E+03  0.7546771E-02  0.1213630E+00
         21   -1    0    0  503  502  0.00000000000E+00  0.00000000000E+00  0.55351574785E+02  0.55351574785E+02  0.00000000000E+00 0.  1.
          2   -1    0    0  504    0 -0.00000000000E+00 -0.00000000000E+00 -0.66816745011E+03  0.66816745011E+03  0.00000000000E+00 0.  1.
         21    1    1    2  503  501 -0.56994076332E+02  0.64307980662E+02 -0.16766231142E+03  0.18839981896E+03  0.00000000000E+00 0.  1.
         21    1    1    2  504  505 -0.11653933532E+02 -0.36452092326E+02 -0.14741784711E+03  0.15230427062E+03  0.00000000000E+00 0.  1.
         21    1    1    2  505  502  0.10892056189E+03 -0.69055806129E+02 -0.67664131977E+02  0.14563937626E+03  0.00000000000E+00 0.  1.
          2    1    1    2  501    0 -0.40272552023E+02  0.41199917793E+02 -0.23007158481E+03  0.23717555905E+03  0.00000000000E+00 0.  1.
<scales pt_clust_3="38.84341" pt_clust_4="38.26969" pt_clust_5="131.17909" pt_clust_6="38.84341"></scales>
<clustering>
<clus scale="   38.270">  2  4  1 -1</clus>
<clus scale="   38.843">  3  6 -1 -1</clus>
<clus scale="  131.179">  1  5  2 -1</clus>
<clus scale="  131.179">  1  3  2 -1</clus>
</clustering>
</event>
<event>
 6    0  0.1622933E+002  0.1818018E+03  0.7546771E-02  0.1166071E+00
         -1   -1    0    0    0  501 -0.00000000000E+00  0.00000000000E+00  0.26034900707E+03  0.26034900707E+03  0.00000000000E+00 0. -1.
         21   -1    0    0  504  502  0.00000000000E+00 -0.00000000000E+00 -0.69584062738E+03  0.69584062738E+03  0.00000000000E+00 0. -1.
         21    1    1    2  503  505  0.72489753583E+02 -0.10855943985E+03 -0.40302622117E+00  0.13053765275E+03  0.00000000000E+00 0.  1.
         21    1    1    2  504  501 -0.84165990362E+01  0.31134058890E+02  0.15328770423E+03  0.15664382857E+03  0.00000000000E+00 0. -1.
         21    1    1    2  505  502 -0.12846996643E+03  0.11182993015E+03 -0.56831728395E+03  0.59329166587E+03  0.00000000000E+00 0. -1.
         -1    1    1    2    0  503  0.64396811887E+02 -0.34404549187E+02 -0.20059014368E+02  0.75716487263E+02  0.00000000000E+00 0. -1.
<scales pt_clust_3="42.15003" pt_clust_4="32.25165" pt_clust_5="173.51207" pt_clust_6="42.15003"></scales>
<clustering>
<clus scale="   32.252">  1  4  2 -1</clus>
<clus scale="   42.150">  3  6 -1 -1</clus>
<clus scale="  173.512">  2  5  1 -1</clus>
<clus scale="  173.512">  2  3  1 -1</clus>
</clustering>
</event>
<event>
 6    0  0.1622933E+002  0.1046942E+03  0.7546771E-02  0.1270723E+00
         21   -1    0    0  503  502  0.00000000000E+00  0.00000000000E+00  0.33705998917E+02  0.33705998917E+02  0.00000000000E+00 0.  1.
          2   -1    0    0  505    0 -0.00000000000E+00 -0.00000000000E+00 -0.18770970590E+04  0.18770970590E+04  0.00000000000E+00 0.  1.
         21    1    1    2  503  504  0.15564378726E+02  0.58309625693E+02 -0.41761209140E+02  0.73391150165E+02  0.00000000000E+00 0.  1.
         21    1    1    2  504  501 -0.47495655537E+02  0.51611277765E+02 -0.26783267357E+03  0.27686441143E+03  0.00000000000E+00 0.  1.
         21    1    1    2  505  502  0.11138128053E+03 -0.10832787942E+03 -0.49725738556E+03  0.52096605130E+03  0.00000000000E+00 0.  1.
          2    1    1    2  501    0 -0.79450003721E+02 -0.15930240399E+01 -0.10365397919E+04  0.10395814451E+04  0.00000000000E+00 0.  1.
<scales pt_clust_3="60.35116" pt_clust_4="14000.00000" pt_clust_5="104.69419" pt_clust_6="78.19933"></scales>
<clustering>
<clus scale="   60.351">  1  3  2 -1</clus>
<clus scale="   78.199">  2  6  1 -1</clus>
<clus scale="  104.694">  2  5  1 -1</clus>
<clus scale="   60.351">  1  3  2 -1</clus>
</clustering>
</event>
<event>
 6    0  0.1622933E+002  0.9595841E+02  0.7546771E-02  0.1289032E+00
         21   -1    0    0  505  502  0.00000000000E+00  0.00000000000E+00  0.99334035585E+03  0.99334035585E+03  0.00000000000E+00 0. -1.
         -3   -1    0    0    0  501 -0.00000000000E+00 -0.00000000000E+00 -0.12385392007E+03  0.12385392007E+03  0.00000000000E+00 0.  1.
         21    1    1    2  503  501  0.92704913753E+02 -0.44312175124E+02 -0.54582343043E+02  0.11634862298E+03  0.00000000000E+00 0.  1.
         21    1    1    2  504  502 -0.27449045143E+02 -0.18125053259E+02  0.83050472618E+03  0.83115586255E+03  0.00000000000E+00 0. -1.
         21    1    1    2  505  503 -0.27524181358E+02 -0.27499056344E+02  0.48704721563E+02  0.62337216506E+02  0.00000000000E+00 0. -1.
         -3    1    1    2    0  504 -0.37731687253E+02  0.89936284727E+02  0.44859331086E+02  0.10735257388E+03  0.00000000000E+00 0.  1.
<scales pt_clust_3="95.95841" pt_clust_4="32.89328" pt_clust_5="49.96872" pt_clust_6="14000.00000"></scales>
<clustering>
<clus scale="   32.893">  1  4  2 -1</clus>
<clus scale="   49.969">  1  5  2 -1</clus>
<clus scale="   95.958">  2  3  1 -1</clus>
<clus scale="   32.893">  1  3  2 -1</clus>
</clustering>
</event>
<event>
 6    0  0.1622933E+002  0.8629211E+02  0.7546771E-02  0.1312088E+00
         -3   -1    0    0    0  501 -0.00000000000E+00  0.00000000000E+00  0.54093609525E+03  0.54093609525E+03  0.00000000000E+00 0.  1.
         21   -1    0    0  504  502  0.00000000000E+00 -0.00000000000E+00 -0.23144640869E+03  0.23144640869E+03  0.00000000000E+00 0. -1.
         21    1    1    2  503  502 -0.29896589732E+01  0.39281069426E+02 -0.19819265985E+03  0.20206996534E+03  0.00000000000E+00 0. -1.
         21    1    1    2  504  505  0.79300065958E+02 -0.19577080091E+02  0.77476767994E+02  0.11258069153E+03  0.00000000000E+00 0.  1.
         21    1    1    2  505  501  0.33088051549E+02 -0.20843843738E+02  0.18709723836E+03  0.19114042372E+03  0.00000000000E+00 0.  1.
         -3    1    1    2    0  503 -0.10939845853E+03  0.11398544025E+01  0.24310834006E+03  0.26659142335E+03  0.00000000000E+00 0.  1.
<scales pt_clust_3="39.26669" pt_clust_4="14000.00000" pt_clust_5="39.10607" pt_clust_6="86.29211"></scales>
<clustering>
<clus scale="   39.106">  1  5  2 -1</clus>
<clus scale="   39.267">  2  3  1 -1</clus>
<clus scale="   86.292">  1  6  2 -1</clus>
<clus scale="   39.267">  2  3  1 -1</clus>
</clustering>
</event>
<event>
 6    0  0.1622933E+002  0.1074699E+03  0.7546771E-02  0.1265328E+00
         21   -1    0    0  503  502  0.00000000000E+00  0.00000000000E+00  0.29643728660E+04  0.29643728660E+04  0.00000000000E+00 0.  1.
          1   -1    0    0  502    0 -0.00000000000E+00 -0.00000000000E+00 -0.85948621031E+03  0.85948621031E+03  0.00000000000E+00 0.  1.
         21    1    1    2  503  505  0.80184522405E+02 -0.71145044673E+02  0.29151938116E+04  0.29171640567E+04  0.00000000000E+00 0.  1.
         21    1    1    2  504  501  0.34067550158E+02  0.26612333050E+01 -0.14646025111E+03  0.15039376746E+03  0.00000000000E+00 0.  1.
         21    1    1    2  505  504 -0.16108837591E+03  0.45047464533E+02 -0.11047863821E+03  0.20046014171E+03  0.00000000000E+00 0. -1.
          1    1    1    2  501    0  0.46836303352E+02  0.23436346835E+02 -0.55336826651E+03  0.55584111043E+03  0.00000000000E+00 0.  1.
<scales pt_clust_3="107.46988" pt_clust_4="34.09091" pt_clust_5="14000.00000" pt_clust_6="94.90916"></scales>
<clustering>
<clus scale="   34.091">  4  6 -1 -1</clus>
<clus scale="   94.909">  2  4  1 -1</clus>
<clus scale="  107.470">  1  3  2 -1</clus>
<clus scale="  107.470">  1  3  2 -1</clus>
</clustering>
</event>
<event>
 6    0  0.1622933E+002  0.9695889E+02  0.7546771E-02  0.1286824E+00
          1   -1    0    0  504    0 -0.00000000000E+00  0.00000000000E+00  0.10369514403E+04  0.10369514403E+04  0.00000000000E+00 0.  1.
         21   -1    0    0  501  502  0.00000000000E+00 -0.00000000000E+00 -0.66940035089E+02  0.66940035089E+02  0.00000000000E+00 0.  1.
         21    1    1    2  503  505 -0.99511976074E+01  0.46757789454E+02  0.11588681022E+03  0.12535976225E+03  0.00000000000E+00 0. -1.
         21    1    1    2  504  503  0.21458294353E+02 -0.35567003485E+02  0.19018528890E+03  0.19466872951E+03  0.00000000000E+00 0.  1.
         21    1    1    2  505  502  0.13376545557E+02 -0.96581062776E+02 -0.15412550067E+02  0.98713628023E+02  0.00000000000E+00 0.  1.
          1    1    1    2  501    0 -0.24883642303E+02  0.85390276807E+02  0.67935185611E+03  0.68514935557E+03  0.00000000000E+00 0.  1.
<scales pt_clust_3="42.24283" pt_clust_4="41.53878" pt_clust_5="14000.00000" pt_clust_6="96.95889"></scales>
<clustering>
<clus scale="   41.539">  1  4  2 -1</clus>
<clus scale="   42.243">  1  3  2 -1</clus>
<clus scale="   96.959">  1  6  2 -1</clus>
<clus scale="   96.959">  2  3  1 -1</clus>
</clustering>
</event>
<event>
 6    0  0.1622933E+002  0.8917649E+02  0.7546771E-02  0.1304858E+00
         21   -1    0    0  504  502  0.00000000000E+00  0.00000000000E+00  0.23928593525E+03  0.23928593525E+03  0.00000000000E+00 0. -1.
          2   -1    0    0  505    0 -0.00000000000E+00 -0.00000000000E+00 -0.16056876585E+04  0.16056876585E+04  0.00000000000E+00 0. -1.
         21    1    1    2  503  502 -0.30240515005E+02 -0.84264021571E+02  0.21225706094E+03  0.23036487145E+03  0.00000000000E+00 0. -1.
         21    1    1    2  504  501 -0.67167416382E+02  0.73691783888E+02 -0.10893274111E+04  0.10938812319E+04  0.00000000000E+00 0. -1.
         21    1    1    2  505  503  0.28608481380E+02  0.69639654914E+02 -0.13092238607E+03  0.15102581872E+03  0.00000000000E+00 0. -1.
          2    1    1    2  501    0  0.68799450007E+02 -0.59067417231E+02 -0.35840898698E+03  0.36970167169E+03  0.00000000000E+00 0. -1.
<scales pt_clust_3="14000.00000" pt_clust_4="89.17649" pt_clust_5="75.28696" pt_clust_6="86.63782"></scales>
<clustering>
<clus scale="   75.287">  2  5  1 -1</clus>
<clus scale="   86.638">  2  6  1 -1</clus>
<clus scale="   89.176">  2  4  1 -1</clus>
<clus scale="   89.176">  1  3  2 -1</clus>
</clustering>
</event>
<event>
 6    0  0.1622933E+002  0.1109920E+03  0.7546771E-02  0.1258744E+00
          1   -1    0    0  504    0 -0.00000000000E+00  0.00000000000E+00  0.42567924010E+03  0.42567924010E+03  0.00000000000E+00 0.  1.
         21   -1    0    0  503  502  0.00000000000E+00 -0.00000000000E+00 -0.16285519216E+03  0.16285519216E+03  0.00000000000E+00 0.  1.
         21    1    1    2  503  501  0.45664930323E+02 -0.87562833769E+02 -0.10758761131E+03  0.14603982274E+03  0.00000000000E+00 0.  1.
         21    1    1    2  504  505  0.60080531432E+02  0.26528155078E+02  0.11937791710E+03  0.13625160682E+03  0.00000000000E+00 0.  1.
         21    1    1    2  505  502 -0.25626738554E+02 -0.26225620383E+02  0.10534083592E+02  0.38150751113E+02  0.00000000000E+00 0.  1.
          1    1    1    2  501    0 -0.80118723201E+02  0.87260299075E+02  0.24049965855E+03  0.26809225160E+03  0.00000000000E+00 0.  1.
<scales pt_clust_3="110.99199" pt_clust_4="63.75462" pt_clust_5="36.66760" pt_clust_6="14000.00000"></scales>
<clustering>
<clus scale="   36.668">  2  5  1 -1</clus>
<clus scale="   63.755">  1  4  2 -1</clus>
<clus scale="  110.992">  2  3  1 -1</clus>
<clus scale="   36.668">  2  3  1 -1</clus>
</clustering>
</event>
<event>
 6    0  0.1622933E+002  0.9003312E+02  0.7546771E-02  0.1302772E+00
          2   -1    0    0  505    0 -0.00000000000E+00  0.00000000000E+00  0.13051838605E+04  0.13051838605E+04  0.00000000000E+00 0. -1.
         21   -1    0    0  503  502  0.00000000000E+00 -0.00000000000E+00 -0.75081618129E+02  0.75081618129E+02  0.00000000000E+00 0. -1.
         21    1    1    2  503  501  0.19955247317E+02  0.27003880742E+02 -0.37364496622E+02  0.50234719850E+02  0.00000000000E+00 0. -1.
         21    1    1    2  504  502 -0.10340619022E+03  0.14745438405E+01  0.13102790902E+03  0.16692311822E+03  0.00000000000E+00 0. -1.
         21    1    1    2  505  504  0.41033830463E+01 -0.38492225261E+02  0.10261125055E+04  0.10268424237E+04  0.00000000000E+00 0. -1.
          2    1    1    2  501    0  0.79347559853E+02  0.10013800678E+02  0.11032632455E+03  0.13626521694E+03  0.00000000000E+00 0. -1.
<scales pt_clust_3="33.57710" pt_clust_4="90.03312" pt_clust_5="38.42264" pt_clust_6="14000.00000"></scales>
<clustering>
<clus scale="   33.577">  2  3  1 -1</clus>
<clus scale="   38.423">  1  5  2 -1</clus>
<clus scale="   90.033">  2  4  1 -1</clus>
<clus scale="   33.577">  2  3  1 -1</clus>
</clustering>
</event>
<event>
 6    0  0.1622933E+002  0.9055306E+02  0.7546771E-02  0.1301518E+00
         21   -1    0    0  501  502  0.00000000000E+00  0.00000000000E+00  0.13037432718E+04  0.13037432718E+04  0.00000000000E+00 0.  1.
          3   -1    0    0  504    0 -0.00000000000E+00 -0.00000000000E+00 -0.74976281833E+02  0.74976281833E+02  0.00000000000E+00 0. -1.
         21    1    1    2  503  502  0.88607938629E+02 -0.75582107734E+01  0.11158297643E+04  0.11193679271E+04  0.00000000000E+00 0.  1.
         21    1    1    2  504  505  0.42795619701E+02 -0.12875638882E+02  0.26263026274E+01  0.44767673691E+02  0.00000000000E+00 0. -1.
         21    1    1    2  505  503 -0.57646294545E+01  0.53430578267E+02  0.25799797089E+02  0.59612810506E+02  0.00000000000E+00 0. -1.
          3    1    1    2  501    0 -0.12563892888E+03 -0.32996728611E+02  0.84511125970E+02  0.15497114235E+03  0.00000000000E+00 0. -1.
<scales pt_clust_3="14000.00000" pt_clust_4="44.69057" pt_clust_5="49.98242" pt_clust_6="90.55306"></scales>
<clustering>
<clus scale="   44.691">  2  4  1 -1</clus>
<clus scale="   49.982">  2  5  1 -1</clus>
<clus scale="   90.553">  2  6  1 -1</clus>
<clus scale="   90.553">  1  3  2 -1</clus>
</clustering>
</event>
<event>
 6    0  0.1622933E+002  0.9914505E+02  0.7546771E-02  0.1282104E+00
          1   -1    0    0  505    0 -0.00000000000E+00  0.00000000000E+00  0.72899457724E+03  0.72899457724E+03  0.00000000000E+00 0. -1.
         21   -1    0    0  504  502  0.00000000000E+00 -0.00000000000E+00 -0.15530210775E+03  0.15530210775E+03  0.00000000000E+00 0. -1.
         21    1    1    2  503  501 -0.62485318294E+02 -0.31778058534E+02  0.21000844510E+02  0.73179884372E+02  0.00000000000E+00 0.  1.
         21    1    1    2  504  503 -0.45020515971E+02 -0.17624315636E+01 -0.11788041118E+03  0.12619724388E+03  0.00000000000E+00 0. -1.
         21    1    1    2  505  502  0.31203161422E+02 -0.26323258459E+02  0.24992503472E+03  0.25323718960E+03  0.00000000000E+00 0. -1.
          1    1    1    2  501    0  0.76302672843E+02  0.59863748557E+02  0.42064700144E+03  0.43168236713E+03  0.00000000000E+00 0. -1.
<scales pt_clust_3="14000.00000" pt_clust_4="44.79303" pt_clust_5="40.82342" pt_clust_6="99.14505"></scales>
<clustering>
<clus scale="   40.823">  1  5  2 -1</clus>
<clus scale="   44.793">  2  4  1 -1</clus>
<clus scale="   99.145">  1  6  2 -1</clus>
<clus scale="   44.793">  2  3  1 -1</clus>
</clustering>
</event>
<event>
 6    0  0.1622933E+002  0.1580764E+03  0.7546771E-02  0.1190886E+00
         21   -1    0    0  505  502  0.00000000000E+00  0.00000000000E+00  0.14692152228E+04  0.14692152228E+04  0.00000000000E+00 0.  1.
         -3   -1    0    0    0  501 -0.00000000000E+00 -0.00000000000E+00 -0.27378656458E+02  0.27378656458E+02  0.00000000000E+00 0. -1.
         21    1    1    2  503  501  0.29422937356E+02 -0.66416790536E+01  0.78791883208E+02  0.84368133811E+02  0.00000000000E+00 0.  1.
         21    1    1    2  504  502 -0.33720446786E+02  0.53810699100E+02  0.75891187644E+02  0.98955203153E+02  0.00000000000E+00 0. -1.
         21    1    1    2  505  503  0.27627231562E+02 -0.13915867970E+03  0.10187877342E+04  0.10286189039E+04  0.00000000000E+00 0.  1.
         -3    1    1    2    0  504 -0.23329722132E+02  0.91989659656E+02  0.26836576125E+03  0.28465163838E+03  0.00000000000E+00 0. -1.
<scales pt_clust_3="30.16324" pt_clust_4="49.76488" pt_clust_5="144.42732" pt_clust_6="49.76488"></scales>
<clustering>
<clus scale="   30.163">  2  3  1 -1</clus>
<clus scale="   49.765">  4  6 -1 -1</clus>
<clus scale="  144.427">  1  5  2 -1</clus>
<clus scale="  144.427">  1  3  2 -1</clus>
</clustering>
</event>
<event>
 6    0  0.1622933E+002  0.1207917E+03  0.7546771E-02  0.1241797E+00
          2   -1    0    0  505    0 -0.00000000000E+00  0.00000000000E+00  0.17407691590E+04  0.17407691590E+04  0.00000000000E+00 0.  1.
         21   -1    0    0  504  502  0.00000000000E+00 -0.00000000000E+00 -0.15500930450E+03  0.15500930450E+03  0.00000000000E+00 0. -1.
         21    1    1    2  503  502 -0.60695882291E+02  0.91633808632E+02 -0.11476291292E+03  0.15890648569E+03  0.00000000000E+00 0. -1.
         21    1    1    2  504  501 -0.71520521544E+02 -0.87589295842E+02  0.38042865632E+03  0.39687911547E+03  0.00000000000E+00 0. -1.
         21    1    1    2  505  503  0.13663974837E+03  0.41912548116E+02  0.54191430217E+03  0.56044463903E+03  0.00000000000E+00 0. -1.
          2    1    1    2  501    0 -0.44233445334E+01 -0.45957060907E+02  0.77817980889E+03  0.77954822326E+03  0.00000000000E+00 0.  1.
<scales pt_clust_3="109.09137" pt_clust_4="14000.00000" pt_clust_5="120.79172" pt_clust_6="46.16944"></scales>
<clustering>
<clus scale="   46.169">  1  6  2 -1</clus>
<clus scale="  109.091">  2  3  1 -1</clus>
<clus scale="  120.792">  1  5  2 -1</clus>
<clus scale="  109.091">  2  3  1 -1</clus>
</clustering>
</event>
<event>
 6    0  0.1622933E+002  0.1537487E+03  0.7546771E-02  0.1195941E+00
         21   -1    0    0  504  502  0.00000000000E+00  0.00000000000E+00  0.72102973577E+03  0.72102973577E+03  0.00000000000E+00 0.  1.
         -3   -1    0    0    0  501 -0.00000000000E+00 -0.00000000000E+00 -0.83301991677E+03  0.83301991677E+03  0.00000000000E+00 0. -1.
         21    1    1    2  503  502 -0.25141828840E+02  0.20177294076E+02  0.68031757065E+03  0.68108092888E+03  0.00000000000E+00 0.  1.
         21    1    1    2  504  501  0.29406579520E+02  0.16124170825E+03 -0.37478896497E+03  0.40906039122E+03  0.00000000000E+00 0. -1.
         21    1    1    2  505  503  0.93459673495E+01 -0.35836759043E+02 -0.24073299999E+02  0.44171757688E+02  0.00000000000E+00 0. -1.
         -3    1    1    2    0  505 -0.13610718030E+02 -0.14558224328E+03 -0.39344548668E+03  0.41973657476E+03  0.00000000000E+00 0. -1.
<scales pt_clust_3="32.23716" pt_clust_4="153.74875" pt_clust_5="30.96285" pt_clust_6="14000.00000"></scales>
<clustering>
<clus scale="   32.237">  1  3  2 -1</clus>
<clus scale="   30.963">  1  5  2 -1</clus>
<clus scale="  153.749">  1  4  2 -1</clus>
<clus scale="   32.237">  1  3  2 -1</clus>
</clustering>
</event>
<event>
 6    0  0.1622933E+002  0.9196230E+02  0.7546771E-02  0.1298168E+00
         21   -1    0    0  505  502  0.00000000000E+00  0.00000000000E+00  0.46616055550E+02  0.46616055550E+02  0.00000000000E+00 0.  1.
          2   -1    0    0  503    0 -0.00000000000E+00 -0.00000000000E+00 -0.14476980749E+04  0.14476980749E+04  0.00000000000E+00 0. -1.
         21    1    1    2  503  504 -0.25630233060E+02 -0.19367501124E+02 -0.23560800642E+03  0.23778801827E+03  0.00000000000E+00 0. -1.
         21    1    1    2  504  502  0.31392519444E+02  0.62365671518E+02 -0.34316796939E+03  0.35019883278E+03  0.00000000000E+00 0.  1.
         21    1    1    2  505  501 -0.59223119291E+02  0.67950830123E+02 -0.17084583738E+02  0.91741899776E+02  0.00000000000E+00 0.  1.
          2    1    1    2  501    0  0.53460832908E+02 -0.11094900052E+03 -0.80522145977E+03  0.81458537959E+03  0.00000000000E+00 0. -1.
<scales pt_clust_3="32.12490" pt_clust_4="61.70328" pt_clust_5="91.96230" pt_clust_6="14000.00000"></scales>
<clustering>
<clus scale="   32.125">  2  3  1 -1</clus>
<clus scale="   61.703">  2  4  1 -1</clus>
<clus scale="   91.962">  1  5  2 -1</clus>
<clus scale="   91.962">  1  3  2 -1</clus>
</clustering>
</event>
<event>
 6    0  0.1622933E+002  0.8813137E+02  0.7546771E-02  0.1307441E+00
          2   -1    0    0  503    0 -0.00000000000E+00  0.00000000000E+00  0.13921224805E+04  0.13921224805E+04  0.00000000000E+00 0. -1.
         21   -1    0    0  504  502  0.00000000000E+00 -0.00000000000E+00 -0.56371833211E+02  0.56371833211E+02  0.00000000000E+00 0. -1.
         21    1    1    2  503  505 -0.20779419110E+02  0.24819141414E+02  0.92361235394E+02  0.97869156748E+02  0.00000000000E+00 0.  1.
         21    1    1    2  504  501  0.40213094715E+02 -0.39787041195E+02  0.23419385491E+03  0.24092916659E+03  0.00000000000E+00 0. -1.
         21    1    1    2  505  502 -0.49161434228E+02  0.80673459291E+02 -0.34018236633E+01  0.94533729713E+02  0.00000000000E+00 0. -1.
          2    1    1    2  501    0  0.29727758623E+02 -0.65705559510E+02  0.10125973806E+04  0.10151622606E+04  0.00000000000E+00 0. -1.
<scales pt_clust_3="32.36934" pt_clust_4="14000.00000" pt_clust_5="88.13137" pt_clust_6="48.22771"></scales>
<clustering>
<clus scale="   32.369">  1  3  2 -1</clus>
<clus scale="   48.228">  1  6  2 -1</clus>
<clus scale="   88.131">  2  5  1 -1</clus>
<clus scale="   88.131">  2  3  1 -1</clus>
</clustering>
</event>
<event>
 6    0  0.1622933E+002  0.2402185E+03  0.7546771E-02  0.1119647E+00
          1   -1    0    0  504    0 -0.00000000000E+00  0.00000000000E+00  0.40847351947E+03  0.40847351947E+03  0.00000000000E+00 0.  1.
         21   -1    0    0  501  502  0.00000000000E+00 -0.00000000000E+00 -0.53713510378E+03  0.53713510378E+03  0.00000000000E+00 0.  1.
         21    1    1    2  503  502  0.17614576856E+03  0.17311854228E+03 -0.43460067987E+03  0.49987509681E+03  0.00000000000E+00 0.  1.
         21    1    1    2  504  505  0.10549681333E+02 -0.40523306403E+02  0.99040609660E+02  0.10752895656E+03  0.00000000000E+00 0.  1.
         21    1    1    2  505  503  0.77207044219E+01 -0.56750594006E+02  0.30137169212E+02  0.64718530305E+02  0.00000000000E+00 0.  1.
          1    1    1    2  501    0 -0.19441615432E+03 -0.75844641870E+02  0.17676131669E+03  0.27348603957E+03  0.00000000000E+00 0.  1.
<scales pt_clust_3="240.21847" pt_clust_4="41.87403" pt_clust_5="63.73914" pt_clust_6="14000.00000"></scales>
<clustering>
<clus scale="   41.874">  1  4  2 -1</clus>
<clus scale="   63.739">  1  5  2 -1</clus>
<clus scale="  240.218">  2  3  1 -1</clus>
<clus scale="  240.218">  2  3  1 -1</clus>
</clustering>
</event>
<event>
 6    0  0.1622933E+002  0.1735788E+03  0.7546771E-02  0.1174166E+00
          2   -1    0    0  505    0 -0.00000000000E+00  0.00000000000E+00  0.24086405505E+04  0.24086405505E+04  0.00000000000E+00 0.  1.
         21   -1    0    0  501  502  0.00000000000E+00 -0.00000000000E+00 -0.22706058851E+03  0.22706058851E+03  0.00000000000E+00 0. -1.
         21    1    1    2  503  504 -0.10074069886E+02 -0.35891237136E+02  0.85482176111E+02  0.93257011640E+02  0.00000000000E+00 0.  1.
         21    1    1    2  504  502  0.16119160877E+03  0.67191522954E+02 -0.18008575350E+03  0.25085516560E+03  0.00000000000E+00 0. -1.
         21    1    1    2  505  503  0.28533146535E+01 -0.89040344458E+02  0.50585570075E+03  0.51364025770E+03  0.00000000000E+00 0. -1.
          2    1    1    2  501    0 -0.15397085354E+03  0.57740058639E+02  0.17703278386E+04  0.17779487041E+04  0.00000000000E+00 0.  1.
<scales pt_clust_3="35.33505" pt_clust_4="173.57882" pt_clust_5="136.54234" pt_clust_6="14000.00000"></scales>
<clustering>
<clus scale="   35.335">  3  5 -1 -1</clus>
<clus scale="  136.542">  1  3  2 -1</clus>
<clus scale="  173.579">  2  4  1 -1</clus>
<clus scale="  173.579">  2  3  1 -1</clus>
</clustering>
</event>
<event>
 6    0  0.1622933E+002  0.1078372E+03  0.7546771E-02  0.1264628E+00
          1   -1    0    0  505    0 -0.00000000000E+00  0.00000000000E+00  0.20620272266E+04  0.20620272266E+04  0.00000000000E+00 0.  1.
         21   -1    0    0  504  502  0.00000000000E+00 -0.00000000000E+00 -0.20657815121E+03  0.20657815121E+03  0.00000000000E+00 0.  1.
         21    1    1    2  503  501  0.68956442810E+02  0.20580545627E+02  0.52508103595E+03  0.52998928685E+03  0.00000000000E+00 0. -1.
         21    1    1    2  504  503 -0.10514751510E+03 -0.28103654014E+02 -0.18659858098E+03  0.21602047524E+03  0.00000000000E+00 0.  1.
         21    1    1    2  505  502 -0.35731770838E+02 -0.10907780081E+02  0.19505691039E+03  0.19860246072E+03  0.00000000000E+00 0.  1.
          1    1    1    2  501    0  0.71922843128E+02  0.18430888467E+02  0.13219097101E+04  0.13239931550E+04  0.00000000000E+00 0.  1.
<scales pt_clust_3="107.83724" pt_clust_4="14000.00000" pt_clust_5="37.35959" pt_clust_6="47.79082"></scales>
<clustering>
<clus scale="   37.360">  1  5  2 -1</clus>
<clus scale="   47.791">  1  6  2 -1</clus>
<clus scale="  107.837">  1  3  2 -1</clus>
<clus scale="  107.837">  2  3  1 -1</clus>
</clustering>
</event>
<event>
 6    0  0.1622933E+002  0.1363858E+03  0.7546771E-02  0.1218277E+00
          2   -1    0    0  503    0 -0.00000000000E+00  0.00000000000E+00  0.13838088610E+04  0.13838088610E+04  0.00000000000E+00 0.  1.
         21   -1    0    0  504  502  0.00000000000E+00 -0.00000000000E+00 -0.91547471981E+02  0.91547471981E+02  0.00000000000E+00 0. -1.
         21    1    1    2  503  505  0.56479367772E+01  0.34251160621E+02  0.15056880526E+03  0.15451862772E+03  0.00000000000E+00 0. -1.
         21    1    1    2  504  501  0.13138571409E+03 -0.44128611386E+02 -0.25561801525E+02  0.14093596385E+03  0.00000000000E+00 0. -1.
         21    1    1    2  505  502 -0.32386781775E+02 -0.34244940330E+02  0.57001596915E+03  0.57196138388E+03  0.00000000000E+00 0.  1.
          2    1    1    2  501    0 -0.10464686909E+03  0.44122391096E+02  0.59723841617E+03  0.60794035756E+03  0.00000000000E+00 0.  1.
<scales pt_clust_3="34.71370" pt_clust_4="14000.00000" pt_clust_5="34.97493" pt_clust_6="136.38579"></scales>
<clustering>
<clus scale="   34.714">  1  3  2 -1</clus>
<clus scale="   34.975">  1  5  2 -1</clus>
<clus scale="  136.386">  1  6  2 -1</clus>
<clus scale="  136.386">  2  3  1 -1</clus>
</clustering>
</event>
<event>
 6    0  0.1691317E+002  0.8243105E+02  0.7546771E-02  0.1322291E+00
         21   -1    0    0  503  502  0.00000000000E+00  0.00000000000E+00  0.15366940706E+04  0.15366940706E+04  0.00000000000E+00 0.  1.
          1   -1    0    0  505    0 -0.00000000000E+00 -0.00000000000E+00 -0.29234141203E+04  0.29234141203E+04  0.00000000000E+00 0.  1.
         21    1    1    2  503  504 -0.63728769972E+01 -0.82205582286E+02  0.15301521701E+04  0.15323720289E+04  0.00000000000E+00 0.  1.
         21    1    1    2  504  501  0.57508586982E+02  0.73207198070E+00 -0.23800513570E+03  0.24485550458E+03  0.00000000000E+00 0.  1.
         21    1    1    2  505  502 -0.81104116259E+02  0.47574379536E+02 -0.21596080761E+04  0.21616540523E+04  0.00000000000E+00 0.  1.
          1    1    1    2  501    0  0.29968406274E+02  0.33899130769E+02 -0.51925900801E+03  0.52122660508E+03  0.00000000000E+00 0.  1.
<scales pt_clust_3="14000.00000" pt_clust_4="60.66059" pt_clust_5="82.43105" pt_clust_6="45.24662"></scales>
<clustering>
<clus scale="   45.247">  2  6  1 -1</clus>
<clus scale="   60.661">  2  4  1 -1</clus>
<clus scale="   82.431">  2  5  1 -1</clus>
<clus scale="   82.431">  1  3  2 -1</clus>
</clustering>
</event>
<event>
 6    0  0.1622933E+002  0.1144776E+03  0.7546771E-02  0.1252496E+00
         21   -1    0    0  504  502  0.00000000000E+00  0.00000000000E+00  0.37735144108E+02  0.37735144108E+02  0.00000000000E+00 0.  1.
          2   -1    0    0  503    0 -0.00000000000E+00 -0.00000000000E+00 -0.37070429927E+04  0.37070429927E+04  0.00000000000E+00 0.  1.
         21    1    1    2  503  505 -0.48082037487E+02  0.66642236162E+02 -0.10718181676E+04  0.10749638386E+04  0.00000000000E+00 0. -1.
         21    1    1    2  504  501  0.74697804871E+02 -0.21932454613E+02 -0.86183753072E+03  0.86534659182E+03  0.00000000000E+00 0. -1.
         21    1    1    2  505  502 -0.10039603587E+03 -0.74194487726E+01 -0.42458589127E+02  0.10925723788E+03  0.00000000000E+00 0.  1.
          2    1    1    2  501    0  0.73780268481E+02 -0.37290332777E+02 -0.16931935611E+04  0.16952104685E+04  0.00000000000E+00 0.  1.
<scales pt_clust_3="82.17706" pt_clust_4="50.56933" pt_clust_5="101.92945" pt_clust_6="50.56933"></scales>
<clustering>
<clus scale="   50.569">  4  6 -1 -1</clus>
<clus scale="   82.177">  2  3  1 -1</clus>
<clus scale="  101.929">  1  5  2 -1</clus>
<clus scale="  101.929">  1  3  2 -1</clus>
</clustering>
</event>
<event>
 6    0  0.1622933E+002  0.9427857E+02  0.7546771E-02  0.1292809E+00
          2   -1    0    0  505    0 -0.00000000000E+00  0.00000000000E+00  0.21119574492E+03  0.21119574492E+03  0.00000000000E+00 0. -1.
         21   -1    0    0  503  502  0.00000000000E+00 -0.00000000000E+00 -0.34648765015E+03  0.34648765015E+03  0.00000000000E+00 0. -1.
         21    1    1    2  503  501  0.62862017946E+02 -0.40444281983E+02 -0.57102355585E+02  0.94064085914E+02  0.00000000000E+00 0.  1.
         21    1    1    2  504  502 -0.24906214904E+02  0.11913387886E+03 -0.24217024597E+03  0.27103436805E+03  0.00000000000E+00 0. -1.
         21    1    1    2  505  504 -0.22981350835E+01 -0.39760404734E+02  0.11040969632E+03  0.11737321778E+03  0.00000000000E+00 0. -1.
          2    1    1    2  501    0 -0.35657667959E+02 -0.38929192139E+02  0.53571000004E+02  0.75211723330E+02  0.00000000000E+00 0. -1.
<scales pt_clust_3="94.27857" pt_clust_4="14000.00000" pt_clust_5="39.82676" pt_clust_6="75.09056"></scales>
<clustering>
<clus scale="   39.827">  1  5  2 -1</clus>
<clus scale="   75.091">  1  6  2 -1</clus>
<clus scale="   94.279">  1  3  2 -1</clus>
<clus scale="   94.279">  2  3  1 -1</clus>
</clustering>
</event>
<event>
 6    0  0.1622933E+002  0.8428546E+02  0.7546771E-02  0.1317312E+00
         21   -1    0    0  501  502  0.00000000000E+00  0.00000000000E+00  0.62769788008E+02  0.62769788008E+02  0.00000000000E+00 0. -1.
          2   -1    0    0  503    0 -0.00000000000E+00 -0.00000000000E+00 -0.12430720921E+04  0.12430720921E+04  0.00000000000E+00 0.  1.
         21    1    1    2  503  505  0.19189765972E+02 -0.35089812410E+02 -0.58297356035E+03  0.58434383210E+03  0.00000000000E+00 0.  1.
         21    1    1    2  504  502 -0.59613476312E+02  0.57187052084E+02  0.17416691034E+02  0.84424324757E+02  0.00000000000E+00 0. -1.
         21    1    1    2  505  504  0.91934933551E+02 -0.48399775567E+02 -0.31174089963E+03  0.32859847654E+03  0.00000000000E+00 0.  1.
          2    1    1    2  501    0 -0.51511223212E+02  0.26302535893E+02 -0.30300453516E+03  0.30847524672E+03  0.00000000000E+00 0.  1.
<scales pt_clust_3="39.99428" pt_clust_4="84.28546" pt_clust_5="14000.00000" pt_clust_6="43.77896"></scales>
<clustering>
<clus scale="   39.994">  2  3  1 -1</clus>
<clus scale="   43.779">  2  6  1 -1</clus>
<clus scale="   84.285">  1  4  2 -1</clus>
<clus scale="   84.285">  1  3  2 -1</clus>
</clustering>
</event>
<event>
 6    0  0.1622933E+002  0.7534884E+02  0.7546771E-02  0.1342794E+00
          1   -1    0    0  503    0 -0.00000000000E+00  0.00000000000E+00  0.26612767581E+04  0.26612767581E+04  0.00000000000E+00 0.  1.
         21   -1    0    0  505  502  0.00000000000E+00 -0.00000000000E+00 -0.11673077037E+03  0.11673077037E+03  0.00000000000E+00 0. -1.
         21    1    1    2  503  504 -0.20964061356E+00  0.49234029083E+02  0.44400280386E+03  0.44672421403E+03  0.00000000000E+00 0.  1.
         21    1    1    2  504  502 -0.60261950786E+02 -0.35604884689E+00  0.14518308949E+03  0.15719338077E+03  0.00000000000E+00 0. -1.
         21    1    1    2  505  501 -0.66170458441E+02  0.35012963837E+02 -0.93403528215E+02  0.11970236543E+03  0.00000000000E+00 0. -1.
          1    1    1    2  501    0  0.12664204984E+03 -0.83890944073E+02  0.20487636226E+04  0.20543875682E+04  0.00000000000E+00 0.  1.
<scales pt_clust_3="49.23448" pt_clust_4="60.35102" pt_clust_5="75.34884" pt_clust_6="14000.00000"></scales>
<clustering>
<clus scale="   49.234">  1  3  2 -1</clus>
<clus scale="   60.351">  1  4  2 -1</clus>
<clus scale="   75.349">  2  5  1 -1</clus>
<clus scale="   75.349">  2  3  1 -1</clus>
</clustering>
</event>
<event>
 6    0  0.1622933E+002  0.7834744E+02  0.7546771E-02  0.1333808E+00
         21   -1    0    0  504  502  0.00000000000E+00  0.00000000000E+00  0.73388359572E+02  0.73388359572E+02  0.00000000000E+00 0. -1.
         -4   -1    0    0    0  501 -0.00000000000E+00 -0.00000000000E+00 -0.13535514357E+04  0.13535514357E+04  0.00000000000E+00 0.  1.
         21    1    1    2  503  505 -0.10829504045E+03 -0.21403961609E+02 -0.46890796056E+03  0.48172670762E+03  0.00000000000E+00 0.  1.
         21    1    1    2  504  501  0.53064412680E+02  0.31262649842E+02 -0.51177553056E+03  0.51546811623E+03  0.00000000000E+00 0.  1.
         21    1    1    2  505  502  0.69340501893E+02  0.33342035038E+02  0.40357714909E+02  0.86882343753E+02  0.00000000000E+00 0. -1.
         -4    1    1    2    0  503 -0.14109874122E+02 -0.43200723271E+02 -0.33983729996E+03  0.34286262771E+03  0.00000000000E+00 0.  1.
<scales pt_clust_3="78.34744" pt_clust_4="46.84544" pt_clust_5="14000.00000" pt_clust_6="45.44657"></scales>
<clustering>
<clus scale="   45.447">  2  6  1 -1</clus>
<clus scale="   46.845">  2  4  1 -1</clus>
<clus scale="   78.347">  2  3  1 -1</clus>
<clus scale="   78.347">  1  3  2 -1</clus>
</clustering>
</event>
<event>
 6    0  0.1622933E+002  0.1722269E+03  0.7546771E-02  0.1175545E+00
         21   -1    0    0  503  502  0.00000000000E+00  0.00000000000E+00  0.13990021168E+03  0.13990021168E+03  0.00000000000E+00 0. -1.
          1   -1    0    0  504    0 -0.00000000000E+00 -0.00000000000E+00 -0.40863555868E+03  0.40863555868E+03  0.00000000000E+00 0. -1.
         21    1    1    2  503  505  0.23270134030E+02  0.82658902618E+02 -0.33044537481E+02  0.92010514492E+02  0.00000000000E+00 0. -1.
         21    1    1    2  504  502  0.13342014255E+03 -0.96840656242E+02 -0.20066825981E+01  0.16487290231E+03  0.00000000000E+00 0. -1.
         21    1    1    2  505  501 -0.73976492728E+02  0.33931192149E+02 -0.70656439110E+02  0.10777838218E+03  0.00000000000E+00 0.  1.
          1    1    1    2  501    0 -0.82713783853E+02 -0.19749438525E+02 -0.16302768781E+03  0.18387397138E+03  0.00000000000E+00 0. -1.
<scales pt_clust_3="85.87196" pt_clust_4="154.79747" pt_clust_5="73.85857" pt_clust_6="73.85857"></scales>
<clustering>
<clus scale="   73.859">  5  6 -1 -1</clus>
<clus scale="   85.872">  1  3  2 -1</clus>
<clus scale="  154.797">  1  4  2 -1</clus>
<clus scale="   85.872">  1  3  2 -1</clus>
</clustering>
</event>
<event>
 6    0  0.1622933E+002  0.7582634E+02  0.7546771E-02  0.1341331E+00
         21   -1    0    0  504  502  0.00000000000E+00  0.00000000000E+00  0.10200321053E+03  0.10200321053E+03  0.00000000000E+00 0.  1.
         -4   -1    0    0    0  501 -0.00000000000E+00 -0.00000000000E+00 -0.42256985290E+03  0.42256985290E+03  0.00000000000E+00 0. -1.
         21    1    1    2  503  501  0.66845715767E+02  0.35878242065E+02 -0.12989815175E+03  0.15042981021E+03  0.00000000000E+00 0.  1.
         21    1    1    2  504  503  0.18662526045E+02  0.42447473999E+02 -0.16509629135E+02  0.49220379737E+02  0.00000000000E+00 0.  1.
         21    1    1    2  505  502 -0.48379370848E+02 -0.57890283783E+01  0.59824605329E+02  0.77156074136E+02  0.00000000000E+00 0.  1.
         -4    1    1    2    0  505 -0.37128870964E+02 -0.72536687685E+02 -0.23398346681E+03  0.24776679935E+03  0.00000000000E+00 0. -1.
<scales pt_clust_3="14000.00000" pt_clust_4="46.36893" pt_clust_5="43.72615" pt_clust_6="75.82634"></scales>
<clustering>
<clus scale="   46.369">  1  4  2 -1</clus>
<clus scale="   43.726">  1  5  2 -1</clus>
<clus scale="   75.826">  2  6  1 -1</clus>
<clus scale="   46.369">  1  3  2 -1</clus>
</clustering>
</event>
<event>
 6    0  0.1622933E+002  0.1228616E+03  0.7546771E-02  0.1238450E+00
         21   -1    0    0  503  502  0.00000000000E+00  0.00000000000E+00  0.11671757190E+04  0.11671757190E+04  0.00000000000E+00 0.  1.
         -2   -1    0    0    0  501 -0.00000000000E+00 -0.00000000000E+00 -0.44447013174E+02  0.44447013174E+02  0.00000000000E+00 0.  1.
         21    1    1    2  503  504 -0.13279576299E+03 -0.70780912074E+01  0.87985140936E+03  0.88984454631E+03  0.00000000000E+00 0.  1.
         21    1    1    2  504  505  0.50542863091E+02 -0.32915145469E+02  0.85449034924E+02  0.10459218604E+03  0.00000000000E+00 0. -1.
         21    1    1    2  505  501  0.45946289623E+01 -0.35166225058E+02  0.15272298081E+02  0.38613690432E+02  0.00000000000E+00 0. -1.
         -2    1    1    2    0  502  0.77658270937E+02  0.75159461735E+02  0.14215596344E+03  0.17857230937E+03  0.00000000000E+00 0.  1.
<scales pt_clust_3="14000.00000" pt_clust_4="67.50501" pt_clust_5="35.46511" pt_clust_6="122.86157"></scales>
<clustering>
<clus scale="   35.465">  2  5  1 -1</clus>
<clus scale="   67.505">  2  4  1 -1</clus>
<clus scale="  122.862">  2  6  1 -1</clus>
<clus scale="  122.862">  1  3  2 -1</clus>
</clustering>
</event>
<event>
 6    0  0.1622933E+002  0.1946637E+03  0.7546771E-02  0.1154321E+00
         21   -1    0    0  503  502  0.00000000000E+00  0.00000000000E+00  0.24500303664E+02  0.24500303664E+02  0.00000000000E+00 0.  1.
          2   -1    0    0  505    0 -0.00000000000E+00 -0.00000000000E+00 -0.33012517597E+04  0.33012517597E+04  0.00000000000E+00 0.  1.
         21    1    1    2  503  501 -0.19882556167E+02  0.61268307233E+02 -0.11356298361E+03  0.13055907765E+03  0.00000000000E+00 0. -1.
         21    1    1    2  504  502  0.59750317936E+02 -0.15298252149E+03 -0.13315304255E+04  0.13416210443E+04  0.00000000000E+00 0.  1.
         21    1    1    2  505  504 -0.15118322350E+02 -0.40500213894E+02 -0.14166523733E+04  0.14173118138E+04  0.00000000000E+00 0.  1.
          2    1    1    2  501    0 -0.24749439418E+02  0.13221442815E+03 -0.41500567364E+03  0.43626012758E+03  0.00000000000E+00 0.  1.
<scales pt_clust_3="34.40325" pt_clust_4="188.20829" pt_clust_5="43.22998" pt_clust_6="34.40325"></scales>
<clustering>
<clus scale="   34.403">  3  6 -1 -1</clus>
<clus scale="   43.230">  2  5  1 -1</clus>
<clus scale="  188.208">  2  4  1 -1</clus>
<clus scale="  194.664">  1  3  2 -1</clus>
</clustering>
</event>
<event>
 6    0  0.1622933E+002  0.1237276E+03  0.7546771E-02  0.1237071E+00
         21   -1    0    0  503  502  0.00000000000E+00  0.00000000000E+00  0.90822094014E+02  0.90822094014E+02  0.00000000000E+00 0.  1.
          1   -1    0    0  504    0 -0.00000000000E+00 -0.00000000000E+00 -0.21630127862E+04  0.21630127862E+04  0.00000000000E+00 0.  1.
         21    1    1    2  503  501  0.82969210408E+02  0.91714884907E+02  0.37742850793E+02  0.12930596574E+03  0.00000000000E+00 0.  1.
         21    1    1    2  504  505 -0.11170194572E+02  0.41669515198E+02 -0.21447870285E+03  0.21877439457E+03  0.00000000000E+00 0. -1.
         21    1    1    2  505  502 -0.43237690422E+02  0.93554115039E+01 -0.25094425636E+03  0.25481373864E+03  0.00000000000E+00 0. -1.
          1    1    1    2  501    0 -0.28561325414E+02 -0.14273981161E+03 -0.16445105837E+04  0.16509407812E+04  0.00000000000E+00 0.  1.
<scales pt_clust_3="123.72764" pt_clust_4="43.14072" pt_clust_5="47.06625" pt_clust_6="14000.00000"></scales>
<clustering>
<clus scale="   43.141">  2  4  1 -1</clus>
<clus scale="   47.066">  2  5  1 -1</clus>
<clus scale="  123.728">  1  3  2 -1</clus>
<clus scale="  123.728">  1  3  2 -1</clus>
</clustering>
</event>
<event>
 6    0  0.1622933E+002  0.1183760E+03  0.7546771E-02  0.1245800E+00
          1   -1    0    0  504    0 -0.00000000000E+00  0.00000000000E+00  0.12982227417E+03  0.12982227417E+03  0.00000000000E+00 0.  1.
         21   -1    0    0  501  502  0.00000000000E+00 -0.00000000000E+00 -0.55279849223E+03  0.55279849223E+03  0.00000000000E+00 0. -1.
         21    1    1    2  503  505 -0.94953044381E+02  0.69045510486E+02 -0.31476292209E+03  0.33594502568E+03  0.00000000000E+00 0. -1.
         21    1    1    2  504  503  0.37423830870E+02 -0.10585651981E+03 -0.34165341920E+02  0.11736019978E+03  0.00000000000E+00 0. -1.
         21    1    1    2  505  502 -0.46280018942E+02 -0.47645204271E+02 -0.68440245931E+02  0.95372810100E+02  0.00000000000E+00 0. -1.
          1    1    1    2  501    0  0.10380923245E+03  0.84456213594E+02 -0.56077081201E+01  0.13394273085E+03  0.00000000000E+00 0.  1.
<scales pt_clust_3="14000.00000" pt_clust_4="117.41366" pt_clust_5="66.42218" pt_clust_6="118.37597"></scales>
<clustering>
<clus scale="   66.422">  2  5  1 -1</clus>
<clus scale="  117.414">  1  4  2 -1</clus>
<clus scale="  118.376">  1  6  2 -1</clus>
<clus scale="   66.422">  2  3  1 -1</clus>
</clustering>
</event>
<event>
 6    0  0.1622933E+002  0.1150479E+03  0.7546771E-02  0.1251498E+00
         21   -1    0    0  504  502  0.00000000000E+00  0.00000000000E+00  0.84365149497E+02  0.84365149497E+02  0.00000000000E+00 0.  1.
          2   -1    0    0  505    0 -0.00000000000E+00 -0.00000000000E+00 -0.14151833847E+04  0.14151833847E+04  0.00000000000E+00 0. -1.
         21    1    1    2  503  501  0.30676214240E+02 -0.27467201923E+02 -0.34056371814E+03  0.34304390887E+03  0.00000000000E+00 0. -1.
         21    1    1    2  504  503  0.13418537521E+02  0.11069236241E+03  0.37055654379E+02  0.11749884155E+03  0.00000000000E+00 0.  1.
         21    1    1    2  505  502 -0.64071183796E+02 -0.37316787729E+02 -0.26861612349E+03  0.27866158874E+03  0.00000000000E+00 0. -1.
          2    1    1    2  501    0  0.19976432035E+02 -0.45908372753E+02 -0.75869404791E+03  0.76034419499E+03  0.00000000000E+00 0. -1.
<scales pt_clust_3="30.72715" pt_clust_4="109.94550" pt_clust_5="74.14620" pt_clust_6="30.72715"></scales>
<clustering>
<clus scale="   30.727">  3  6 -1 -1</clus>
<clus scale="   74.146">  2  5  1 -1</clus>
<clus scale="  109.945">  1  4  2 -1</clus>
<clus scale="  109.945">  1  3  2 -1</clus>
</clustering>
</event>
<event>
 6    0  0.1622933E+002  0.1573572E+03  0.7546771E-02  0.1191713E+00
         21   -1    0    0  503  502  0.00000000000E+00  0.00000000000E+00  0.11093835823E+04  0.11093835823E+04  0.00000000000E+00 0.  1.
          2   -1    0    0  504    0 -0.00000000000E+00 -0.00000000000E+00 -0.25371276349E+03  0.25371276349E+03  0.00000000000E+00 0. -1.
         21    1    1    2  503  501  0.21453376396E+02  0.73480307250E+02  0.91366506099E+03  0.91686610069E+03  0.00000000000E+00 0.  1.
         21    1    1    2  504  505  0.59156374897E+01  0.10373676672E+03  0.15598730155E+02  0.10506965270E+03  0.00000000000E+00 0.  1.
         21    1    1    2  505  502 -0.38721878093E+02  0.25837457891E+02  0.75704583085E+02  0.88871491342E+02  0.00000000000E+00 0.  1.
          2    1    1    2  501    0  0.11352864208E+02 -0.20305453186E+03 -0.14929755546E+03  0.25228910103E+03  0.00000000000E+00 0. -1.
<scales pt_clust_3="97.38328" pt_clust_4="14000.00000" pt_clust_5="46.55060" pt_clust_6="157.35717"></scales>
<clustering>
<clus scale="   46.551">  1  5  2 -1</clus>
<clus scale="   97.383">  1  3  2 -1</clus>
<clus scale="  157.357">  2  6  1 -1</clus>
<clus scale="   46.551">  1  3  2 -1</clus>
</clustering>
</event>
<event>
 6    0  0.1622933E+002  0.1502310E+03  0.7546771E-02  0.1200189E+00
         -1   -1    0    0    0  501 -0.00000000000E+00  0.00000000000E+00  0.23345797911E+03  0.23345797911E+03  0.00000000000E+00 0. -1.
         21   -1    0    0  504  502  0.00000000000E+00 -0.00000000000E+00 -0.10910361038E+04  0.10910361038E+04  0.00000000000E+00 0. -1.
         21    1    1    2  503  502 -0.71968526409E+01 -0.69070828413E+02  0.51616140167E+01  0.69636314412E+02  0.00000000000E+00 0.  1.
         21    1    1    2  504  501 -0.98050898456E+02  0.63963421293E+00 -0.97808442764E+03  0.98298704743E+03  0.00000000000E+00 0. -1.
         21    1    1    2  505  503 -0.26309494938E+02 -0.39167646842E+02 -0.23220140596E+02  0.52587726823E+02  0.00000000000E+00 0.  1.
         -1    1    1    2    0  505  0.13155724603E+03  0.10759884104E+03  0.13856482954E+03  0.21928299424E+03  0.00000000000E+00 0. -1.
<scales pt_clust_3="34.72139" pt_clust_4="98.05298" pt_clust_5="34.72139" pt_clust_6="144.20466"></scales>
<clustering>
<clus scale="   34.721">  3  5 -1 -1</clus>
<clus scale="   98.053">  2  4  1 -1</clus>
<clus scale="  144.205">  1  6  2 -1</clus>
<clus scale="   98.053">  2  3  1 -1</clus>
</clustering>
</event>
<event>
 6    0  0.1622933E+002  0.1558519E+03  0.7546771E-02  0.1193461E+00
         21   -1    0    0  504  502  0.00000000000E+00  0.00000000000E+00  0.26707480410E+03  0.26707480410E+03  0.00000000000E+00 0.  1.
          1   -1    0    0  503    0 -0.00000000000E+00 -0.00000000000E+00 -0.38760990294E+03  0.38760990294E+03  0.00000000000E+00 0.  1.
         21    1    1    2  503  502  0.28457672191E+02  0.61342177820E+02 -0.36299528675E+02  0.76748665580E+02  0.00000000000E+00 0.  1.
         21    1    1    2  504  505 -0.13746770249E+02 -0.15432992690E+03  0.21297116032E+03  0.26336935122E+03  0.00000000000E+00 0.  1.
         21    1    1    2  505  501 -0.24438708931E+01  0.52767947536E+02 -0.10182751307E+03  0.11471386668E+03  0.00000000000E+00 0.  1.
          1    1    1    2  501    0 -0.12267031048E+02  0.40219801547E+02 -0.19537921742E+03  0.19985282356E+03  0.00000000000E+00 0.  1.
<scales pt_clust_3="67.62176" pt_clust_4="150.10854" pt_clust_5="37.40021" pt_clust_6="37.40021"></scales>
<clustering>
<clus scale="   37.400">  5  6 -1 -1</clus>
<clus scale="   67.622">  2  3  1 -1</clus>
<clus scale="  150.109">  1  4  2 -1</clus>
<clus scale="  150.109">  1  3  2 -1</clus>
</clustering>
</event>
<event>
 6    0  0.1622933E+002  0.1406286E+03  0.7546771E-02  0.1212486E+00
         -4   -1    0    0    0  501 -0.00000000000E+00  0.00000000000E+00  0.29945551807E+03  0.29945551807E+03  0.00000000000E+00 0.  1.
         21   -1    0    0  504  502  0.00000000000E+00 -0.00000000000E+00 -0.37781887003E+03  0.37781887003E+03  0.00000000000E+00 0. -1.
         21    1    1    2  503  502  0.99730863535E+02 -0.58899754143E+02  0.13250253292E+02  0.11658042457E+03  0.00000000000E+00 0. -1.
         21    1    1    2  504  505 -0.14684552421E+03  0.32805503951E+02 -0.23803901126E+03  0.28160678251E+03  0.00000000000E+00 0. -1.
         21    1    1    2  505  501 -0.38479259149E+02  0.93683563873E+02  0.62353194741E+01  0.10146991048E+03  0.00000000000E+00 0. -1.
         -4    1    1    2    0  503  0.85593919826E+02 -0.67589313681E+02  0.14019008654E+03  0.17761727055E+03  0.00000000000E+00 0.  1.
<scales pt_clust_3="14000.00000" pt_clust_4="140.62861" pt_clust_5="101.27815" pt_clust_6="61.09768"></scales>
<clustering>
<clus scale="  101.278">  1  5  2 -1</clus>
<clus scale="   61.098">  1  6  2 -1</clus>
<clus scale="  140.629">  2  4  1 -1</clus>
<clus scale="  140.629">  2  3  1 -1</clus>
</clustering>
</event>
<event>
 6    0  0.1622933E+002  0.2108192E+03  0.7546771E-02  0.1140919E+00
          2   -1    0    0  505    0 -0.00000000000E+00  0.00000000000E+00  0.10866952843E+04  0.10866952843E+04  0.00000000000E+00 0. -1.
         21   -1    0    0  503  502  0.00000000000E+00 -0.00000000000E+00 -0.14577984747E+04  0.14577984747E+04  0.00000000000E+00 0.  1.
         21    1    1    2  503  504 -0.29825701569E+02  0.35572546075E+02 -0.10653447266E+04  0.10663556465E+04  0.00000000000E+00 0.  1.
         21    1    1    2  504  501 -0.12920811807E+03 -0.17662556541E+03 -0.33709994386E+03  0.40190508864E+03  0.00000000000E+00 0.  1.
         21    1    1    2  505  502  0.32818557543E+02  0.51119443307E+02  0.39734894726E+02  0.72588684119E+02  0.00000000000E+00 0. -1.
          2    1    1    2  501    0  0.12621526209E+03  0.89933576024E+02  0.99160658527E+03  0.10036443396E+04  0.00000000000E+00 0. -1.
<scales pt_clust_3="46.42175" pt_clust_4="14000.00000" pt_clust_5="61.35486" pt_clust_6="210.81916"></scales>
<clustering>
<clus scale="   46.422">  2  3  1 -1</clus>
<clus scale="   61.355">  1  5  2 -1</clus>
<clus scale="  210.819">  1  6  2 -1</clus>
<clus scale="   46.422">  2  3  1 -1</clus>
</clustering>
</event>
<event>
 6    0  0.1622933E+002  0.1271992E+03  0.7546771E-02  0.1231672E+00
         21   -1    0    0  503  502  0.00000000000E+00  0.00000000000E+00  0.23238544228E+02  0.23238544228E+02  0.00000000000E+00 0. -1.
          1   -1    0    0  505    0 -0.00000000000E+00 -0.00000000000E+00 -0.21247529845E+04  0.21247529845E+04  0.00000000000E+00 0.  1.
         21    1    1    2  503  501 -0.55227695232E+02 -0.32404866252E+02 -0.57470887855E+03  0.57826505061E+03  0.00000000000E+00 0.  1.
         21    1    1    2  504  502  0.82260495846E+02  0.85233205630E+02 -0.15380977907E+03  0.19413638674E+03  0.00000000000E+00 0. -1.
         21    1    1    2  505  504  0.10358568301E+02 -0.36743648878E+02 -0.42188898696E+03  0.42361269219E+03  0.00000000000E+00 0.  1.
          1    1    1    2  501    0 -0.37391368915E+02 -0.16084690500E+02 -0.95110679573E+03  0.95197739921E+03  0.00000000000E+00 0.  1.
<scales pt_clust_3="42.85467" pt_clust_4="116.53615" pt_clust_5="38.17585" pt_clust_6="42.85467"></scales>
<clustering>
<clus scale="   38.176">  2  5  1 -1</clus>
<clus scale="   42.855">  3  6 -1 -1</clus>
<clus scale="  116.536">  1  4  2 -1</clus>
<clus scale="  116.536">  1  3  2 -1</clus>
</clustering>
</event>
<event>
 6    0  0.1622933E+002  0.2946728E+03  0.7546771E-02  0.1087934E+00
          2   -1    0    0  505    0 -0.00000000000E+00  0.00000000000E+00  0.11372714157E+04  0.11372714157E+04  0.00000000000E+00 0. -1.
         21   -1    0    0  504  502  0.00000000000E+00 -0.00000000000E+00 -0.31997574761E+03  0.31997574761E+03  0.00000000000E+00 0.  1.
         21    1    1    2  503  502  0.12516808914E+03 -0.56954714983E+02 -0.18533001494E+03  0.23077717508E+03  0.00000000000E+00 0.  1.
         21    1    1    2  504  501  0.12744462113E+03 -0.16973831429E+03  0.66954696805E+02  0.22256719933E+03  0.00000000000E+00 0.  1.
         21    1    1    2  505  503 -0.43589278845E+02 -0.12488365916E+02  0.96380891228E+02  0.10651413384E+03  0.00000000000E+00 0. -1.
          2    1    1    2  501    0 -0.20902343142E+03  0.23918139519E+03  0.83929009498E+03  0.89738865505E+03  0.00000000000E+00 0. -1.
<scales pt_clust_3="136.76148" pt_clust_4="14000.00000" pt_clust_5="45.34297" pt_clust_6="294.67276"></scales>
<clustering>
<clus scale="   45.343">  1  5  2 -1</clus>
<clus scale="  136.761">  2  3  1 -1</clus>
<clus scale="  294.673">  1  6  2 -1</clus>
<clus scale="  136.761">  2  3  1 -1</clus>
</clustering>
</event>
<event>
 6    0  0.1622933E+002  0.9752006E+02  0.7546771E-02  0.1285599E+00
         21   -1    0    0  501  502  0.00000000000E+00  0.00000000000E+00  0.66532216965E+03  0.66532216965E+03  0.00000000000E+00 0. -1.
         -3   -1    0    0    0  501 -0.00000000000E+00 -0.00000000000E+00 -0.60415179399E+03  0.60415179399E+03  0.00000000000E+00 0.  1.
         21    1    1    2  503  505  0.31066906187E+02  0.10696404861E+03 -0.12173712216E+03  0.16500420379E+03  0.00000000000E+00 0.  1.
         21    1    1    2  504  502 -0.24960634814E+02  0.36234152507E+02  0.61507471463E+03  0.61664645598E+03  0.00000000000E+00 0. -1.
         21    1    1    2  505  504 -0.17624650527E+01 -0.48512544497E+02 -0.33550702824E+01  0.48660350936E+02  0.00000000000E+00 0.  1.
         -3    1    1    2    0  503 -0.43438063204E+01 -0.94685656620E+02 -0.42881214652E+03  0.43916295293E+03  0.00000000000E+00 0.  1.
<scales pt_clust_3="14000.00000" pt_clust_4="43.99940" pt_clust_5="34.53741" pt_clust_6="97.52006"></scales>
<clustering>
<clus scale="   43.999">  1  4  2 -1</clus>
<clus scale="   34.537">  1  5  2 -1</clus>
<clus scale="   97.520">  2  6  1 -1</clus>
<clus scale="   43.999">  1  3  2 -1</clus>
</clustering>
</event>
<event>
 6    0  0.1622933E+002  0.2465354E+03  0.7546771E-02  0.1115514E+00
         21   -1    0    0  504  502  0.00000000000E+00  0.00000000000E+00  0.13903394263E+04  0.13903394263E+04  0.00000000000E+00 0. -1.
         -1   -1    0    0    0  501 -0.00000000000E+00 -0.00000000000E+00 -0.81638807302E+03  0.81638807302E+03  0.00000000000E+00 0.  1.
         21    1    1    2  503  502 -0.45177069034E+02 -0.17649234181E+02  0.13156294778E+04  0.13165232189E+04  0.00000000000E+00 0. -1.
         21    1    1    2  504  505  0.12113192448E+03 -0.30157590150E+02 -0.18046938069E+03  0.21943477559E+03  0.00000000000E+00 0.  1.
         21    1    1    2  505  501  0.11914315196E+03 -0.54234735507E+02 -0.31132052729E+03  0.33772321197E+03  0.00000000000E+00 0.  1.
         -1    1    1    2    0  503 -0.19509800741E+03  0.10204155984E+03 -0.24988821654E+03  0.33304629287E+03  0.00000000000E+00 0.  1.
<scales pt_clust_3="48.50220" pt_clust_4="58.35822" pt_clust_5="58.35822" pt_clust_6="238.88522"></scales>
<clustering>
<clus scale="   48.502">  1  3  2 -1</clus>
<clus scale="   58.358">  4  5 -1 -1</clus>
<clus scale="  238.885">  1  6  2 -1</clus>
<clus scale="   48.502">  1  3  2 -1</clus>
</clustering>
</event>
<event>
 6    0  0.1622933E+002  0.1747034E+03  0.7546771E-02  0.1173030E+00
         21   -1    0    0  505  502  0.00000000000E+00  0.00000000000E+00  0.30106342005E+03  0.30106342005E+03  0.00000000000E+00 0.  1.
         -2   -1    0    0    0  501 -0.00000000000E+00 -0.00000000000E+00 -0.27950608413E+03  0.27950608413E+03  0.00000000000E+00 0.  1.
         21    1    1    2  503  502 -0.23613008763E+02 -0.34761414078E+02 -0.53940709550E+01  0.42367748265E+02  0.00000000000E+00 0.  1.
         21    1    1    2  504  501  0.17693078155E+03 -0.46462265226E+02 -0.13476245828E+03  0.22720951501E+03  0.00000000000E+00 0.  1.
         21    1    1    2  505  504  0.44778318378E+00  0.40593654601E+02  0.14557858248E+03  0.15113295134E+03  0.00000000000E+00 0.  1.
         -2    1    1    2    0  503 -0.15376555597E+03  0.40630024703E+02  0.16135282673E+02  0.15985928956E+03  0.00000000000E+00 0.  1.
<scales pt_clust_3="38.02458" pt_clust_4="14000.00000" pt_clust_5="40.59612" pt_clust_6="174.70336"></scales>
<clustering>
<clus scale="   40.596">  1  5  2 -1</clus>
<clus scale="   38.025">  1  3  2 -1</clus>
<clus scale="  174.703">  1  6  2 -1</clus>
<clus scale="   40.596">  1  3  2 -1</clus>
</clustering>
</event>
<event>
 6    0  0.2111422E+002  0.1431832E+03  0.7546771E-02  0.1209109E+00
         21   -1    0    0  504  502  0.00000000000E+00  0.00000000000E+00  0.83672715837E+03  0.83672715837E+03  0.00000000000E+00 0.  1.
          2   -1    0    0  503    0 -0.00000000000E+00 -0.00000000000E+00 -0.17245046910E+04  0.17245046910E+04  0.00000000000E+00 0. -1.
         21    1    1    2  503  505 -0.25645252700E+02  0.12316826147E+03 -0.20350475586E+03  0.23925360035E+03  0.00000000000E+00 0. -1.
         21    1    1    2  504  501 -0.30110636946E+02 -0.47911712552E+01 -0.10513695081E+02  0.32251256774E+02  0.00000000000E+00 0.  1.
         21    1    1    2  505  502 -0.11191781051E+03 -0.18682905052E+02  0.79753056429E+03  0.80556169734E+03  0.00000000000E+00 0.  1.
          2    1    1    2  501    0  0.16767370015E+03 -0.99694185166E+02 -0.14712896460E+04  0.14841652949E+04  0.00000000000E+00 0. -1.
<scales pt_clust_3="125.84282" pt_clust_4="30.48944" pt_clust_5="14000.00000" pt_clust_6="143.18323"></scales>
<clustering>
<clus scale="   30.489">  1  4  2 -1</clus>
<clus scale="  125.843">  2  3  1 -1</clus>
<clus scale="  143.183">  2  6  1 -1</clus>
<clus scale="   30.489">  1  3  2 -1</clus>
</clustering>
</event>
<event>
 6    0  0.1622933E+002  0.1038418E+03  0.7546771E-02  0.1272418E+00
         21   -1    0    0  504  502  0.00000000000E+00  0.00000000000E+00  0.36602455364E+02  0.36602455364E+02  0.00000000000E+00 0. -1.
         -2   -1    0    0    0  501 -0.00000000000E+00 -0.00000000000E+00 -0.25591242193E+04  0.25591242193E+04  0.00000000000E+00 0.  1.
         21    1    1    2  503  502  0.95173906659E+02 -0.53380583729E+02 -0.64654217730E+02  0.12683740418E+03  0.00000000000E+00 0. -1.
         21    1    1    2  504  501  0.28572453867E+02  0.68562676635E+02 -0.48664937517E+03  0.49228532387E+03  0.00000000000E+00 0. -1.
         21    1    1    2  505  503 -0.63400959385E+02 -0.43309632042E+02 -0.12335581772E+04  0.12359454609E+04  0.00000000000E+00 0.  1.
         -2    1    1    2    0  505 -0.60345401140E+02  0.28127539136E+02 -0.73765999391E+03  0.74065848575E+03  0.00000000000E+00 0.  1.
<scales pt_clust_3="14000.00000" pt_clust_4="77.12152" pt_clust_5="103.84185" pt_clust_6="66.57872"></scales>
<clustering>
<clus scale="   66.579">  2  6  1 -1</clus>
<clus scale="   77.122">  2  4  1 -1</clus>
<clus scale="  103.842">  2  5  1 -1</clus>
<clus scale="  103.842">  1  3  2 -1</clus>
</clustering>
</event>
<event>
 6    0  0.1622933E+002  0.8456368E+02  0.7546771E-02  0.1316578E+00
          1   -1    0    0  505    0 -0.00000000000E+00  0.00000000000E+00  0.20531089069E+04  0.20531089069E+04  0.00000000000E+00 0. -1.
         21   -1    0    0  501  502  0.00000000000E+00 -0.00000000000E+00 -0.74913448485E+02  0.74913448485E+02  0.00000000000E+00 0. -1.
         21    1    1    2  503  502  0.83959620888E+02 -0.76060086286E+01 -0.43835288190E+02  0.95018954939E+02  0.00000000000E+00 0. -1.
         21    1    1    2  504  503 -0.56961707053E+01  0.54263789241E+02  0.27603693284E+03  0.28137767053E+03  0.00000000000E+00 0. -1.
         21    1    1    2  505  504  0.18498574736E+02 -0.25186720442E+02  0.76488228957E+03  0.76552040146E+03  0.00000000000E+00 0. -1.
          1    1    1    2  501    0 -0.96762024919E+02 -0.21471060170E+02  0.98111152424E+03  0.98610532849E+03  0.00000000000E+00 0. -1.
<scales pt_clust_3="84.56368" pt_clust_4="48.84265" pt_clust_5="31.25009" pt_clust_6="14000.00000"></scales>
<clustering>
<clus scale="   31.250">  1  5  2 -1</clus>
<clus scale="   48.843">  1  4  2 -1</clus>
<clus scale="   84.564">  2  3  1 -1</clus>
<clus scale="   84.564">  2  3  1 -1</clus>
</clustering>
</event>
<event>
 6    0  0.1622933E+002  0.7359525E+02  0.7546771E-02  0.1348277E+00
         -1   -1    0    0    0  501 -0.00000000000E+00  0.00000000000E+00  0.36422648222E+03  0.36422648222E+03  0.00000000000E+00 0. -1.
         21   -1    0    0  504  502  0.00000000000E+00 -0.00000000000E+00 -0.17504652322E+03  0.17504652322E+03  0.00000000000E+00 0. -1.
         21    1    1    2  503  501 -0.49903548536E+02  0.16754946128E+02  0.55307799505E+02  0.76354731761E+02  0.00000000000E+00 0.  1.
         21    1    1    2  504  503  0.61394072956E+02 -0.29572689625E+02 -0.13249193137E+03  0.14898955682E+03  0.00000000000E+00 0. -1.
         21    1    1    2  505  502 -0.27029734079E+02 -0.60661825051E+02  0.45131185633E+02  0.80295002706E+02  0.00000000000E+00 0.  1.
         -1    1    1    2    0  505  0.15539209659E+02  0.73479568547E+02  0.22123290522E+03  0.23363371414E+03  0.00000000000E+00 0. -1.
<scales pt_clust_3="52.64117" pt_clust_4="66.70164" pt_clust_5="73.59525" pt_clust_6="14000.00000"></scales>
<clustering>
<clus scale="   52.641">  1  3  2 -1</clus>
<clus scale="   66.702">  2  4  1 -1</clus>
<clus scale="   73.595">  2  5  1 -1</clus>
<clus scale="   66.702">  2  3  1 -1</clus>
</clustering>
</event>
<event>
 6    0  0.1622933E+002  0.1262517E+03  0.7546771E-02  0.1233126E+00
         21   -1    0    0  503  502  0.00000000000E+00  0.00000000000E+00  0.23123858708E+03  0.23123858708E+03  0.00000000000E+00 0. -1.
          2   -1    0    0  504    0 -0.00000000000E+00 -0.00000000000E+00 -0.11291198351E+04  0.11291198351E+04  0.00000000000E+00 0.  1.
         21    1    1    2  503  501 -0.11337499962E+03 -0.81121284252E+02 -0.13998347867E+03  0.19755993419E+03  0.00000000000E+00 0. -1.
         21    1    1    2  504  505 -0.34707276497E+02  0.31655570998E+02 -0.51676171771E+02  0.69836215146E+02  0.00000000000E+00 0. -1.
         21    1    1    2  505  502  0.27020140766E+02  0.16765344289E+02  0.18765613049E+03  0.19033125882E+03  0.00000000000E+00 0. -1.
          2    1    1    2  501    0  0.12106213535E+03  0.32700368965E+02 -0.89387772802E+03  0.90263101398E+03  0.00000000000E+00 0.  1.
<scales pt_clust_3="14000.00000" pt_clust_4="45.58937" pt_clust_5="31.79882" pt_clust_6="126.25173"></scales>
<clustering>
<clus scale="   31.799">  1  5  2 -1</clus>
<clus scale="   45.589">  1  4  2 -1</clus>
<clus scale="  126.252">  2  6  1 -1</clus>
<clus scale="   31.799">  1  3  2 -1</clus>
</clustering>
</event>
<event>
 6    0  0.1622933E+002  0.1068590E+03  0.7546771E-02  0.1266500E+00
         21   -1    0    0  503  502  0.00000000000E+00  0.00000000000E+00  0.72682764612E+01  0.72682764612E+01  0.00000000000E+00 0. -1.
          2   -1    0    0  504    0 -0.00000000000E+00 -0.00000000000E+00 -0.36403731375E+04  0.36403731375E+04  0.00000000000E+00 0.  1.
         21    1    1    2  503  505 -0.11235283273E+03 -0.38200858771E+01 -0.72088003766E+03  0.72959288701E+03  0.00000000000E+00 0. -1.
         21    1    1    2  504  502 -0.13518795879E+02  0.29152652552E+02 -0.47845200962E+03  0.47952993702E+03  0.00000000000E+00 0. -1.
         21    1    1    2  505  501  0.92043586881E+02  0.15634634618E+02 -0.18424177818E+04  0.18447817612E+04  0.00000000000E+00 0.  1.
          2    1    1    2  501    0  0.33828041729E+02 -0.40967201293E+02 -0.59135503196E+03  0.59373682875E+03  0.00000000000E+00 0.  1.
<scales pt_clust_3="14000.00000" pt_clust_4="32.13464" pt_clust_5="106.85895" pt_clust_6="47.32644"></scales>
<clustering>
<clus scale="   32.135">  2  4  1 -1</clus>
<clus scale="   47.326">  2  6  1 -1</clus>
<clus scale="  106.859">  2  5  1 -1</clus>
<clus scale="  106.859">  1  3  2 -1</clus>
</clustering>
</event>
<event>
 6    0  0.1622933E+002  0.1349732E+03  0.7546771E-02  0.1220258E+00
         21   -1    0    0  505  502  0.00000000000E+00  0.00000000000E+00  0.10808021245E+04  0.10808021245E+04  0.00000000000E+00 0.  1.
          4   -1    0    0  503    0 -0.00000000000E+00 -0.00000000000E+00 -0.14171448846E+03  0.14171448846E+03  0.00000000000E+00 0.  1.
         21    1    1    2  503  504 -0.93538485032E+02  0.33863879990E+02  0.63840378417E+02  0.11820238774E+03  0.00000000000E+00 0. -1.
         21    1    1    2  504  502 -0.30128664431E+02  0.28419366580E+02  0.70850270570E+03  0.70971225211E+03  0.00000000000E+00 0.  1.
         21    1    1    2  505  501  0.24424888344E+02  0.77737143932E+02  0.20339365466E+03  0.21910868872E+03  0.00000000000E+00 0.  1.
          4    1    1    2  501    0  0.99242261120E+02 -0.14002039050E+03 -0.36649102697E+02  0.17549328442E+03  0.00000000000E+00 0.  1.
<scales pt_clust_3="134.97316" pt_clust_4="41.41735" pt_clust_5="94.17265" pt_clust_6="14000.00000"></scales>
<clustering>
<clus scale="   41.417">  1  4  2 -1</clus>
<clus scale="   94.173">  1  5  2 -1</clus>
<clus scale="  134.973">  1  3  2 -1</clus>
<clus scale="   41.417">  1  3  2 -1</clus>
</clustering>
</event>
<event>
 6    0  0.1622933E+002  0.9632602E+02  0.7546771E-02  0.1288217E+00
          1   -1    0    0  503    0 -0.00000000000E+00  0.00000000000E+00  0.74388344949E+03  0.74388344949E+03  0.00000000000E+00 0.  1.
         21   -1    0    0  505  502  0.00000000000E+00 -0.00000000000E+00 -0.20510672046E+03  0.20510672046E+03  0.00000000000E+00 0. -1.
         21    1    1    2  503  504 -0.43588015981E+02 -0.48826991287E+02  0.29089348710E+03  0.29816607965E+03  0.00000000000E+00 0. -1.
         21    1    1    2  504  502  0.12186605482E+02 -0.10507172239E+03  0.15734181098E+03  0.18959173421E+03  0.00000000000E+00 0.  1.
         21    1    1    2  505  501  0.64801916782E+02  0.73689673485E+02 -0.16463945711E+03  0.19166535220E+03  0.00000000000E+00 0. -1.
          1    1    1    2  501    0 -0.33400506284E+02  0.80209040187E+02  0.25518088807E+03  0.26956700389E+03  0.00000000000E+00 0.  1.
<scales pt_clust_3="65.45220" pt_clust_4="14000.00000" pt_clust_5="96.32602" pt_clust_6="78.33445"></scales>
<clustering>
<clus scale="   65.452">  1  3  2 -1</clus>
<clus scale="   78.334">  1  6  2 -1</clus>
<clus scale="   96.326">  2  5  1 -1</clus>
<clus scale="   96.326">  2  3  1 -1</clus>
</clustering>
</event>
<event>
 6    0  0.1622933E+002  0.9633951E+02  0.7546771E-02  0.1288187E+00
         -2   -1    0    0    0  501 -0.00000000000E+00  0.00000000000E+00  0.22726897542E+04  0.22726897542E+04  0.00000000000E+00 0.  1.
         21   -1    0    0  505  502  0.00000000000E+00 -0.00000000000E+00 -0.31221005284E+02  0.31221005284E+02  0.00000000000E+00 0.  1.
         21    1    1    2  503  504 -0.27934407477E+02  0.73581794378E+02  0.29034213813E+03  0.30082082501E+03  0.00000000000E+00 0.  1.
         21    1    1    2  504  502  0.15123728385E+02  0.48132738330E+02  0.97725593920E+01  0.51390568945E+02  0.00000000000E+00 0.  1.
         21    1    1    2  505  501  0.75105120631E+02 -0.14298893978E+02  0.71682605043E+03  0.72089168679E+03  0.00000000000E+00 0.  1.
         -2    1    1    2    0  503 -0.62294441539E+02 -0.10741563873E+03  0.12245280010E+04  0.12308076787E+04  0.00000000000E+00 0.  1.
<scales pt_clust_3="96.33951" pt_clust_4="50.45283" pt_clust_5="78.21159" pt_clust_6="14000.00000"></scales>
<clustering>
<clus scale="   50.453">  2  4  1 -1</clus>
<clus scale="   78.212">  1  5  2 -1</clus>
<clus scale="   96.340">  2  3  1 -1</clus>
<clus scale="   50.453">  2  3  1 -1</clus>
</clustering>
</event>
<event>
 6    0  0.1622933E+002  0.8187781E+02  0.7546771E-02  0.1323805E+00
          2   -1    0    0  505    0 -0.00000000000E+00  0.00000000000E+00  0.79125106729E+03  0.79125106729E+03  0.00000000000E+00 0. -1.
         21   -1    0    0  504  502  0.00000000000E+00 -0.00000000000E+00 -0.12539564589E+03  0.12539564589E+03  0.00000000000E+00 0.  1.
         21    1    1    2  503  502  0.35335239599E+02  0.30508686596E+02  0.16348915435E+02  0.49463584093E+02  0.00000000000E+00 0.  1.
         21    1    1    2  504  501  0.49962324556E+02 -0.10690257375E+02 -0.90540093040E+02  0.10396164642E+03  0.00000000000E+00 0.  1.
         21    1    1    2  505  503 -0.55892155922E+02 -0.88120833949E+02  0.31829120818E+03  0.33496045689E+03  0.00000000000E+00 0.  1.
          2    1    1    2  501    0 -0.29405408233E+02  0.68302404727E+02  0.42175539082E+03  0.42826102579E+03  0.00000000000E+00 0. -1.
<scales pt_clust_3="46.68361" pt_clust_4="14000.00000" pt_clust_5="81.87781" pt_clust_6="74.79500"></scales>
<clustering>
<clus scale="   46.684">  2  3  1 -1</clus>
<clus scale="   74.795">  1  6  2 -1</clus>
<clus scale="   81.878">  1  5  2 -1</clus>
<clus scale="   46.684">  2  3  1 -1</clus>
</clustering>
</event>
<event>
 6    0  0.1622933E+002  0.9708492E+02  0.7546771E-02  0.1286548E+00
         21   -1    0    0  504  502  0.00000000000E+00  0.00000000000E+00  0.25543365622E+03  0.25543365622E+03  0.00000000000E+00 0. -1.
          1   -1    0    0  505    0 -0.00000000000E+00 -0.00000000000E+00 -0.10118997386E+04  0.10118997386E+04  0.00000000000E+00 0.  1.
         21    1    1    2  503  502  0.56870424455E+02 -0.57628653219E+02  0.23950545661E+03  0.25282043152E+03  0.00000000000E+00 0. -1.
         21    1    1    2  504  501 -0.25680124374E+02  0.42168113254E+02 -0.21419637477E+03  0.21981288753E+03  0.00000000000E+00 0.  1.
         21    1    1    2  505  503 -0.31051938487E+02 -0.49447880823E+02 -0.17545745452E+03  0.18491791192E+03  0.00000000000E+00 0.  1.
          1    1    1    2  501    0 -0.13836159390E+00  0.64908420788E+02 -0.60631770966E+03  0.60978216379E+03  0.00000000000E+00 0.  1.
<scales pt_clust_3="81.07326" pt_clust_4="46.58129" pt_clust_5="58.38935" pt_clust_6="46.58129"></scales>
<clustering>
<clus scale="   46.581">  4  6 -1 -1</clus>
<clus scale="   58.389">  2  5  1 -1</clus>
<clus scale="   81.073">  1  3  2 -1</clus>
<clus scale="   81.073">  1  3  2 -1</clus>
</clustering>
</event>
<event>
 6    0  0.1622933E+002  0.1548231E+03  0.7546771E-02  0.1194669E+00
         21   -1    0    0  501  502  0.00000000000E+00  0.00000000000E+00  0.30383793797E+03  0.30383793797E+03  0.00000000000E+00 0.  1.
          2   -1    0    0  503    0 -0.00000000000E+00 -0.00000000000E+00 -0.18816741804E+03  0.18816741804E+03  0.00000000000E+00 0.  1.
         21    1    1    2  503  504 -0.17111097265E+02  0.28146477352E+02 -0.36543778364E+02  0.49198186695E+02  0.00000000000E+00 0.  1.
         21    1    1    2  504  505  0.36337723017E+02 -0.17010834146E+02 -0.38473430317E+02  0.55587799316E+02  0.00000000000E+00 0.  1.
         21    1    1    2  505  502  0.76661353311E+02 -0.13439159016E+03  0.16971637513E+03  0.22965563478E+03  0.00000000000E+00 0.  1.
          2    1    1    2  501    0 -0.95887979063E+02  0.12325594696E+03  0.20971353485E+02  0.15756373522E+03  0.00000000000E+00 0.  1.
<scales pt_clust_3="32.93955" pt_clust_4="31.79616" pt_clust_5="154.82312" pt_clust_6="14000.00000"></scales>
<clustering>
<clus scale="   32.940">  2  3  1 -1</clus>
<clus scale="   31.796">  2  4  1 -1</clus>
<clus scale="  154.823">  1  5  2 -1</clus>
<clus scale="  154.823">  1  3  2 -1</clus>
</clustering>
</event>
<event>
 6    0  0.1622933E+002  0.1630368E+03  0.7546771E-02  0.1185310E+00
          2   -1    0    0  503    0 -0.00000000000E+00  0.00000000000E+00  0.89975991995E+03  0.89975991995E+03  0.00000000000E+00 0.  1.
         21   -1    0    0  504  502  0.00000000000E+00 -0.00000000000E+00 -0.46848775865E+03  0.46848775865E+03  0.00000000000E+00 0. -1.
         21    1    1    2  503  505 -0.10146784281E+01  0.53858665149E+02  0.80395630666E+02  0.96774184647E+02  0.00000000000E+00 0.  1.
         21    1    1    2  504  501 -0.19745502043E+03 -0.11246572225E+03  0.21997578975E+03  0.31626946083E+03  0.00000000000E+00 0.  1.
         21    1    1    2  505  502  0.94863887770E+02 -0.88337520334E+01 -0.39944026433E+03  0.41064548840E+03  0.00000000000E+00 0. -1.
          2    1    1    2  501    0  0.10360581109E+03  0.67440809137E+02  0.53034100520E+03  0.54455854472E+03  0.00000000000E+00 0.  1.
<scales pt_clust_3="53.86822" pt_clust_4="14000.00000" pt_clust_5="95.23355" pt_clust_6="163.03679"></scales>
<clustering>
<clus scale="   53.868">  1  3  2 -1</clus>
<clus scale="   95.234">  2  5  1 -1</clus>
<clus scale="  163.037">  1  6  2 -1</clus>
<clus scale="   95.234">  2  3  1 -1</clus>
</clustering>
</event>
<event>
 6    0  0.1622933E+002  0.1413573E+03  0.7546771E-02  0.1211514E+00
          2   -1    0    0  503    0 -0.00000000000E+00  0.00000000000E+00  0.11026290417E+04  0.11026290417E+04  0.00000000000E+00 0. -1.
         21   -1    0    0  504  502  0.00000000000E+00 -0.00000000000E+00 -0.10755343470E+03  0.10755343470E+03  0.00000000000E+00 0.  1.
         21    1    1    2  503  505 -0.64151328293E+01  0.34991586400E+02  0.14824339429E+03  0.15245218594E+03  0.00000000000E+00 0.  1.
         21    1    1    2  504  501 -0.96540617262E+01  0.37301390375E+02 -0.71471859822E+02  0.81196190663E+02  0.00000000000E+00 0.  1.
         21    1    1    2  505  502  0.12521849467E+03  0.45060250262E+02  0.19766450250E+03  0.23828838224E+03  0.00000000000E+00 0. -1.
          2    1    1    2  501    0 -0.10914930011E+03 -0.11735322704E+03  0.72063957002E+03  0.73824571755E+03  0.00000000000E+00 0. -1.
<scales pt_clust_3="35.57478" pt_clust_4="38.71161" pt_clust_5="141.35725" pt_clust_6="14000.00000"></scales>
<clustering>
<clus scale="   35.575">  1  3  2 -1</clus>
<clus scale="   38.712">  2  4  1 -1</clus>
<clus scale="  141.357">  2  5  1 -1</clus>
<clus scale="   38.712">  2  3  1 -1</clus>
</clustering>
</event>
<event>
 6    0  0.1622933E+002  0.1131804E+03  0.7546771E-02  0.1254791E+00
          1   -1    0    0  504    0 -0.00000000000E+00  0.00000000000E+00  0.75210687693E+03  0.75210687693E+03  0.00000000000E+00 0.  1.
         21   -1    0    0  505  502  0.00000000000E+00 -0.00000000000E+00 -0.62648139200E+02  0.62648139200E+02  0.00000000000E+00 0. -1.
         21    1    1    2  503  502  0.10971384686E+03  0.39267656752E+02  0.16112934077E+02  0.11763801981E+03  0.00000000000E+00 0. -1.
         21    1    1    2  504  503 -0.75784356980E+02  0.38630388225E+02  0.37739169989E+03  0.38685923900E+03  0.00000000000E+00 0.  1.
         21    1    1    2  505  501 -0.20720491683E+02 -0.32603811494E+02  0.19543741417E+03  0.19921879970E+03  0.00000000000E+00 0.  1.
          1    1    1    2  501    0 -0.13208998199E+02 -0.45294233483E+02  0.10051668960E+03  0.11103895761E+03  0.00000000000E+00 0.  1.
<scales pt_clust_3="106.57425" pt_clust_4="85.06219" pt_clust_5="34.47678" pt_clust_6="34.47678"></scales>
<clustering>
<clus scale="   34.477">  5  6 -1 -1</clus>
<clus scale="   85.062">  1  4  2 -1</clus>
<clus scale="  106.574">  2  3  1 -1</clus>
<clus scale="  106.574">  2  3  1 -1</clus>
</clustering>
</event>
<event>
 6    0  0.1622933E+002  0.9752027E+02  0.7546771E-02  0.1285599E+00
          2   -1    0    0  504    0 -0.00000000000E+00  0.00000000000E+00  0.17787075813E+04  0.17787075813E+04  0.00000000000E+00 0. -1.
         21   -1    0    0  505  502  0.00000000000E+00 -0.00000000000E+00 -0.16248662190E+03  0.16248662190E+03  0.00000000000E+00 0.  1.
         21    1    1    2  503  501  0.23616458801E+02 -0.13410313781E+03  0.73200610599E+03  0.74456317926E+03  0.00000000000E+00 0. -1.
         21    1    1    2  504  502  0.76361520499E+01  0.35586133943E+02 -0.13214938339E+03  0.13706984817E+03  0.00000000000E+00 0.  1.
         21    1    1    2  505  503 -0.54556035741E+02  0.52692860691E+02  0.47842723407E+02  0.89676221969E+02  0.00000000000E+00 0. -1.
          2    1    1    2  501    0  0.23303424890E+02  0.45824143175E+02  0.96852151340E+03  0.96988495381E+03  0.00000000000E+00 0. -1.
<scales pt_clust_3="97.52027" pt_clust_4="36.39621" pt_clust_5="14000.00000" pt_clust_6="52.27001"></scales>
<clustering>
<clus scale="   36.396">  2  4  1 -1</clus>
<clus scale="   52.270">  1  6  2 -1</clus>
<clus scale="   97.520">  1  3  2 -1</clus>
<clus scale="   36.396">  2  3  1 -1</clus>
</clustering>
</event>
<event>
 6    0  0.1622933E+002  0.1811264E+03  0.7546771E-02  0.1166717E+00
          1   -1    0    0  503    0 -0.00000000000E+00  0.00000000000E+00  0.43652461366E+03  0.43652461366E+03  0.00000000000E+00 0.  1.
         21   -1    0    0  501  502  0.00000000000E+00 -0.00000000000E+00 -0.24979887005E+03  0.24979887005E+03  0.00000000000E+00 0.  1.
         21    1    1    2  503  504  0.15292095365E+01 -0.86364737700E+02  0.76558294385E+02  0.11542260974E+03  0.00000000000E+00 0.  1.
         21    1    1    2  504  505  0.14978173326E+03 -0.24710930935E+02  0.28144284426E+02  0.15439332393E+03  0.00000000000E+00 0.  1.
         21    1    1    2  505  502  0.35653396205E+02 -0.20442074864E+02 -0.11034286482E+03  0.11774799744E+03  0.00000000000E+00 0.  1.
          1    1    1    2  501    0 -0.18696433900E+03  0.13151774350E+03  0.19236602962E+03  0.29875955259E+03  0.00000000000E+00 0.  1.
<scales pt_clust_3="89.53689" pt_clust_4="14000.00000" pt_clust_5="41.09797" pt_clust_6="181.12643"></scales>
<clustering>
<clus scale="   41.098">  2  5  1 -1</clus>
<clus scale="   89.537">  1  3  2 -1</clus>
<clus scale="  181.126">  1  6  2 -1</clus>
<clus scale="   41.098">  2  3  1 -1</clus>
</clustering>
</event>
<event>
 6    0  0.1622933E+002  0.1285662E+03  0.7546771E-02  0.1229599E+00
          2   -1    0    0  505    0 -0.00000000000E+00  0.00000000000E+00  0.34179430566E+04  0.34179430566E+04  0.00000000000E+00 0.  1.
         21   -1    0    0  504  502  0.00000000000E+00 -0.00000000000E+00 -0.15346622702E+02  0.15346622702E+02  0.00000000000E+00 0. -1.
         21    1    1    2  503  502 -0.19523238861E+02  0.46945035069E+02  0.61977690823E+02  0.80163753237E+02  0.00000000000E+00 0. -1.
         21    1    1    2  504  501  0.58525788760E+02 -0.11681896345E+02  0.88056838277E+03  0.88258847227E+03  0.00000000000E+00 0.  1.
         21    1    1    2  505  503 -0.10519897805E+03 -0.51835228297E+02  0.74890225837E+03  0.75802922665E+03  0.00000000000E+00 0. -1.
          2    1    1    2  501    0  0.66196428152E+02  0.16572089572E+02  0.17111481019E+04  0.17125082271E+04  0.00000000000E+00 0.  1.
<scales pt_clust_3="50.84283" pt_clust_4="41.32843" pt_clust_5="120.73227" pt_clust_6="41.32843"></scales>
<clustering>
<clus scale="   41.328">  4  6 -1 -1</clus>
<clus scale="   50.843">  2  3  1 -1</clus>
<clus scale="  120.732">  2  5  1 -1</clus>
<clus scale="   50.843">  2  3  1 -1</clus>
</clustering>
</event>
<event>
 6    0  0.1622933E+002  0.8001150E+02  0.7546771E-02  0.1329019E+00
         21   -1    0    0  501  502  0.00000000000E+00  0.00000000000E+00  0.23837425387E+03  0.23837425387E+03  0.00000000000E+00 0. -1.
          1   -1    0    0  504    0 -0.00000000000E+00 -0.00000000000E+00 -0.13668155700E+04  0.13668155700E+04  0.00000000000E+00 0. -1.
         21    1    1    2  503  505  0.67031895219E+02  0.16295927491E+00 -0.11721709519E+03  0.13503017788E+03  0.00000000000E+00 0.  1.
         21    1    1    2  504  503 -0.76945014639E+01 -0.34450290959E+02 -0.15514704195E+03  0.15911201252E+03  0.00000000000E+00 0.  1.
         21    1    1    2  505  502  0.79516540634E+02 -0.38781889577E+01  0.21555329505E+03  0.22978499427E+03  0.00000000000E+00 0. -1.
          1    1    1    2  501    0 -0.13885393439E+03  0.38165520641E+02 -0.10716304741E+04  0.10812626393E+04  0.00000000000E+00 0. -1.
<scales pt_clust_3="66.31836" pt_clust_4="35.29912" pt_clust_5="80.01150" pt_clust_6="14000.00000"></scales>
<clustering>
<clus scale="   35.299">  2  4  1 -1</clus>
<clus scale="   66.318">  2  3  1 -1</clus>
<clus scale="   80.012">  1  5  2 -1</clus>
<clus scale="   80.012">  1  3  2 -1</clus>
</clustering>
</event>
<event>
 6    0  0.1622933E+002  0.1297285E+03  0.7546771E-02  0.1227859E+00
          2   -1    0    0  503    0 -0.00000000000E+00  0.00000000000E+00  0.77148679548E+03  0.77148679548E+03  0.00000000000E+00 0. -1.
         21   -1    0    0  504  502  0.00000000000E+00 -0.00000000000E+00 -0.23321921680E+03  0.23321921680E+03  0.00000000000E+00 0.  1.
         21    1    1    2  503  505  0.48293832828E+02  0.50492896527E+01  0.57225002226E+02  0.75049920020E+02  0.00000000000E+00 0. -1.
         21    1    1    2  504  501  0.54207404196E+02  0.12793798100E+03  0.28226293868E+03  0.31460918011E+03  0.00000000000E+00 0.  1.
         21    1    1    2  505  502 -0.64129503619E+02 -0.96269780679E+01 -0.19242719933E+03  0.20306033336E+03  0.00000000000E+00 0.  1.
          2    1    1    2  501    0 -0.38371733406E+02 -0.12336029258E+03  0.39120683710E+03  0.41198657880E+03  0.00000000000E+00 0. -1.
<scales pt_clust_3="48.55708" pt_clust_4="129.72855" pt_clust_5="64.48244" pt_clust_6="14000.00000"></scales>
<clustering>
<clus scale="   48.557">  1  3  2 -1</clus>
<clus scale="   64.482">  2  5  1 -1</clus>
<clus scale="  129.729">  2  4  1 -1</clus>
<clus scale="   64.482">  2  3  1 -1</clus>
</clustering>
</event>
<event>
 6    0  0.1622933E+002  0.1037442E+03  0.7546771E-02  0.1272614E+00
         21   -1    0    0  503  502  0.00000000000E+00  0.00000000000E+00  0.12919505250E+03  0.12919505250E+03  0.00000000000E+00 0.  1.
          1   -1    0    0  504    0 -0.00000000000E+00 -0.00000000000E+00 -0.56605637680E+03  0.56605637680E+03  0.00000000000E+00 0.  1.
         21    1    1    2  503  501 -0.11106158192E+03 -0.26056901731E+02 -0.16040852278E+02  0.11519959222E+03  0.00000000000E+00 0.  1.
         21    1    1    2  504  505  0.89493820877E+02 -0.62140098123E+02 -0.14245388425E+03  0.17934225634E+03  0.00000000000E+00 0.  1.
         21    1    1    2  505  502  0.78131109863E+02  0.10843488545E+01  0.23400975057E+02  0.81567467623E+02  0.00000000000E+00 0.  1.
          1    1    1    2  501    0 -0.56563348822E+02  0.87112650999E+02 -0.30176756283E+03  0.31914211313E+03  0.00000000000E+00 0.  1.
<scales pt_clust_3="65.65790" pt_clust_4="103.74415" pt_clust_5="78.13863" pt_clust_6="14000.00000"></scales>
<clustering>
<clus scale="   78.139">  1  5  2 -1</clus>
<clus scale="   65.658">  1  3  2 -1</clus>
<clus scale="  103.744">  1  4  2 -1</clus>
<clus scale="   78.139">  1  3  2 -1</clus>
</clustering>
</event>
<event>
 6    0  0.1622933E+002  0.1872381E+03  0.7546771E-02  0.1160976E+00
         21   -1    0    0  505  502  0.00000000000E+00  0.00000000000E+00  0.16294491472E+03  0.16294491472E+03  0.00000000000E+00 0. -1.
         -4   -1    0    0    0  501 -0.00000000000E+00 -0.00000000000E+00 -0.24799649003E+03  0.24799649003E+03  0.00000000000E+00 0.  1.
         21    1    1    2  503  501 -0.21247238766E+02  0.72079281582E+02 -0.34803238837E+02  0.82813848010E+02  0.00000000000E+00 0. -1.
         21    1    1    2  504  503  0.35477116341E+02  0.10192263683E+03  0.10584653672E+02  0.10843839069E+03  0.00000000000E+00 0. -1.
         21    1    1    2  505  504 -0.36475500906E+02 -0.38689628011E+01  0.25659087097E+01  0.36769755602E+02  0.00000000000E+00 0.  1.
         -4    1    1    2    0  502  0.22245623331E+02 -0.17013295561E+03 -0.63398898858E+02  0.18291941045E+03  0.00000000000E+00 0.  1.
<scales pt_clust_3="64.17946" pt_clust_4="64.17946" pt_clust_5="36.68012" pt_clust_6="171.89058"></scales>
<clustering>
<clus scale="   36.680">  1  5  2 -1</clus>
<clus scale="   64.179">  3  4 -1 -1</clus>
<clus scale="  171.891">  2  6  1 -1</clus>
<clus scale="   36.680">  1  3  2 -1</clus>
</clustering>
</event>
<event>
 6    0  0.1622933E+002  0.1182860E+03  0.7546771E-02  0.1245952E+00
         21   -1    0    0  505  502  0.00000000000E+00  0.00000000000E+00  0.11076174333E+03  0.11076174333E+03  0.00000000000E+00 0.  1.
         -2   -1    0    0    0  501 -0.00000000000E+00 -0.00000000000E+00 -0.43624742278E+03  0.43624742278E+03  0.00000000000E+00 0.  1.
         21    1    1    2  503  504 -0.12724728302E+03  0.10641349803E+03 -0.22935885532E+03  0.28305686375E+03  0.00000000000E+00 0.  1.
         21    1    1    2  504  501  0.43257624272E+02 -0.22752533387E+02 -0.11833667421E+03  0.12803307501E+03  0.00000000000E+00 0. -1.
         21    1    1    2  505  503  0.28527692929E+02 -0.11766802472E+02  0.32164857835E+02  0.44574263694E+02  0.00000000000E+00 0.  1.
         -2    1    1    2    0  502  0.55461965819E+02 -0.71894162174E+02 -0.99550077476E+01  0.91344963662E+02  0.00000000000E+00 0.  1.
<scales pt_clust_3="118.28603" pt_clust_4="50.93448" pt_clust_5="30.85915" pt_clust_6="14000.00000"></scales>
<clustering>
<clus scale="   30.859">  1  5  2 -1</clus>
<clus scale="   50.934">  2  4  1 -1</clus>
<clus scale="  118.286">  2  3  1 -1</clus>
<clus scale="   30.859">  1  3  2 -1</clus>
</clustering>
</event>
<event>
 6    0  0.1622933E+002  0.2253233E+03  0.7546771E-02  0.1129975E+00
          1   -1    0    0  502    0 -0.00000000000E+00  0.00000000000E+00  0.53520339585E+03  0.53520339585E+03  0.00000000000E+00 0.  1.
         21   -1    0    0  505  502  0.00000000000E+00 -0.00000000000E+00 -0.23019424130E+03  0.23019424130E+03  0.00000000000E+00 0.  1.
         21    1    1    2  503  501  0.20818319890E+02  0.28461098957E+02  0.61605839960E+02  0.70983914474E+02  0.00000000000E+00 0. -1.
         21    1    1    2  504  503 -0.18071021687E+03 -0.65395567993E+01  0.28837852903E+02  0.18311354413E+03  0.00000000000E+00 0.  1.
         21    1    1    2  505  504 -0.40590265076E+02 -0.31119797021E+01 -0.11672171459E+03  0.12361720226E+03  0.00000000000E+00 0.  1.
          1    1    1    2  501    0  0.20048216206E+03 -0.18809562455E+02  0.33128717628E+03  0.38768297630E+03  0.00000000000E+00 0.  1.
<scales pt_clust_3="34.86990" pt_clust_4="209.34960" pt_clust_5="40.70939" pt_clust_6="34.86990"></scales>
<clustering>
<clus scale="   34.870">  3  6 -1 -1</clus>
<clus scale="   40.709">  2  5  1 -1</clus>
<clus scale="  209.350">  2  4  1 -1</clus>
<clus scale="   40.709">  2  3  1 -1</clus>
</clustering>
</event>
<event>
 6    0  0.1622933E+002  0.1156621E+03  0.7546771E-02  0.1250430E+00
         21   -1    0    0  504  502  0.00000000000E+00  0.00000000000E+00  0.18710700551E+04  0.18710700551E+04  0.00000000000E+00 0.  1.
         -3   -1    0    0    0  501 -0.00000000000E+00 -0.00000000000E+00 -0.56385927539E+03  0.56385927539E+03  0.00000000000E+00 0.  1.
         21    1    1    2  503  505 -0.46180450004E+02  0.86303339231E+01  0.35384453444E+02  0.58814761512E+02  0.00000000000E+00 0.  1.
         21    1    1    2  504  503  0.33775311722E+02  0.17161775437E+02  0.17955985670E+04  0.17959981937E+04  0.00000000000E+00 0.  1.
         21    1    1    2  505  501  0.78493030136E+02 -0.96742624477E+02 -0.42003175272E+03  0.43811752358E+03  0.00000000000E+00 0.  1.
         -3    1    1    2    0  502 -0.66087891854E+02  0.70950515117E+02 -0.10374048794E+03  0.14199885170E+03  0.00000000000E+00 0.  1.
<scales pt_clust_3="31.66184" pt_clust_4="37.88533" pt_clust_5="115.66214" pt_clust_6="14000.00000"></scales>
<clustering>
<clus scale="   37.885">  1  4  2 -1</clus>
<clus scale="   31.662">  1  3  2 -1</clus>
<clus scale="  115.662">  2  5  1 -1</clus>
<clus scale="   37.885">  1  3  2 -1</clus>
</clustering>
</event>
<event>
 6    0  0.1622933E+002  0.2674616E+03  0.7546771E-02  0.1102741E+00
         21   -1    0    0  505  502  0.00000000000E+00  0.00000000000E+00  0.38108873367E+03  0.38108873367E+03  0.00000000000E+00 0. -1.
         -1   -1    0    0    0  501 -0.00000000000E+00 -0.00000000000E+00 -0.67672177265E+03  0.67672177265E+03  0.00000000000E+00 0. -1.
         21    1    1    2  503  501  0.10494715694E+03  0.28292208558E+03 -0.53221277557E+03  0.61180818133E+03  0.00000000000E+00 0. -1.
         21    1    1    2  504  503  0.12698110202E+02 -0.16757269119E+03  0.76639812211E+02  0.18470384309E+03  0.00000000000E+00 0. -1.
         21    1    1    2  505  504  0.23606046788E+02 -0.25040295069E+02  0.50414206625E+02  0.61039774342E+02  0.00000000000E+00 0.  1.
         -1    1    1    2    0  502 -0.14125131393E+03 -0.90309099318E+02  0.10952571775E+03  0.20025870756E+03  0.00000000000E+00 0. -1.
<scales pt_clust_3="14000.00000" pt_clust_4="267.46156" pt_clust_5="34.41311" pt_clust_6="165.39170"></scales>
<clustering>
<clus scale="   34.413">  1  5  2 -1</clus>
<clus scale="  165.392">  1  6  2 -1</clus>
<clus scale="  267.462">  1  4  2 -1</clus>
<clus scale="   34.413">  1  3  2 -1</clus>
</clustering>
</event>
<event>
 6    0  0.1622933E+002  0.1268839E+03  0.7546771E-02  0.1232154E+00
         21   -1    0    0  505  502  0.00000000000E+00  0.00000000000E+00  0.40526337287E+03  0.40526337287E+03  0.00000000000E+00 0.  1.
          2   -1    0    0  503    0 -0.00000000000E+00 -0.00000000000E+00 -0.15227000384E+04  0.15227000384E+04  0.00000000000E+00 0. -1.
         21    1    1    2  503  504  0.38458906495E+02  0.26697652060E+02 -0.12975078254E+03  0.13793881863E+03  0.00000000000E+00 0. -1.
         21    1    1    2  504  502 -0.48208747791E+02  0.34149921513E+02  0.37377451206E+03  0.37841470158E+03  0.00000000000E+00 0.  1.
         21    1    1    2  505  501 -0.93518271215E+02 -0.41378200950E+02 -0.91238780985E+02  0.13704866917E+03  0.00000000000E+00 0. -1.
          2    1    1    2  501    0  0.10326811251E+03 -0.19469372623E+02 -0.12702216140E+04  0.12745612219E+04  0.00000000000E+00 0. -1.
<scales pt_clust_3="46.81722" pt_clust_4="59.05217" pt_clust_5="126.88392" pt_clust_6="14000.00000"></scales>
<clustering>
<clus scale="   46.817">  2  3  1 -1</clus>
<clus scale="   59.052">  1  4  2 -1</clus>
<clus scale="  126.884">  1  5  2 -1</clus>
<clus scale="   59.052">  1  3  2 -1</clus>
</clustering>
</event>
<event>
 6    0  0.1622933E+002  0.7706302E+02  0.7546771E-02  0.1337599E+00
          2   -1    0    0  503    0 -0.00000000000E+00  0.00000000000E+00  0.89365038963E+03  0.89365038963E+03  0.00000000000E+00 0.  1.
         21   -1    0    0  505  502  0.00000000000E+00 -0.00000000000E+00 -0.19867317170E+03  0.19867317170E+03  0.00000000000E+00 0.  1.
         21    1    1    2  503  504 -0.22458105035E+02  0.20033219523E+02  0.77945416676E+02  0.83553481956E+02  0.00000000000E+00 0.  1.
         21    1    1    2  504  502  0.75430281783E+02  0.11952787945E+02 -0.17869083601E+03  0.19432707332E+03  0.00000000000E+00 0.  1.
         21    1    1    2  505  501 -0.72614237624E+01 -0.84611583030E+02  0.24445523002E+03  0.25878602694E+03  0.00000000000E+00 0.  1.
          2    1    1    2  501    0 -0.45710752986E+02  0.52625575561E+02  0.55126740725E+03  0.55565697911E+03  0.00000000000E+00 0.  1.
<scales pt_clust_3="30.09479" pt_clust_4="76.18859" pt_clust_5="14000.00000" pt_clust_6="77.06302"></scales>
<clustering>
<clus scale="   30.095">  1  3  2 -1</clus>
<clus scale="   76.189">  2  4  1 -1</clus>
<clus scale="   77.063">  1  6  2 -1</clus>
<clus scale="   76.189">  2  3  1 -1</clus>
</clustering>
</event>
<event>
 6    0  0.1622933E+002  0.1348810E+03  0.7546771E-02  0.1220388E+00
          2   -1    0    0  504    0 -0.00000000000E+00  0.00000000000E+00  0.77300527472E+03  0.77300527472E+03  0.00000000000E+00 0.  1.
         21   -1    0    0  503  502  0.00000000000E+00 -0.00000000000E+00 -0.43903514147E+03  0.43903514147E+03  0.00000000000E+00 0. -1.
         21    1    1    2  503  501 -0.89666619917E+02  0.10130717336E+03 -0.40206903135E+03  0.42422016934E+03  0.00000000000E+00 0. -1.
         21    1    1    2  504  505 -0.35649457120E+02 -0.47114853381E+01  0.14306276258E+02  0.38700793627E+02  0.00000000000E+00 0.  1.
         21    1    1    2  505  502  0.60350798112E+02 -0.50098459966E+01  0.96823989781E+02  0.11420246226E+03  0.00000000000E+00 0.  1.
          2    1    1    2  501    0  0.64965278925E+02 -0.91585842029E+02  0.62490889855E+03  0.63491699097E+03  0.00000000000E+00 0.  1.
<scales pt_clust_3="134.88099" pt_clust_4="35.95945" pt_clust_5="55.60242" pt_clust_6="14000.00000"></scales>
<clustering>
<clus scale="   35.959">  1  4  2 -1</clus>
<clus scale="   55.602">  1  5  2 -1</clus>
<clus scale="  134.881">  2  3  1 -1</clus>
<clus scale="  134.881">  2  3  1 -1</clus>
</clustering>
</event>
<event>
 6    0  0.1622933E+002  0.9595937E+02  0.7546771E-02  0.1289030E+00
          2   -1    0    0  504    0 -0.00000000000E+00  0.00000000000E+00  0.38641974485E+03  0.38641974485E+03  0.00000000000E+00 0.  1.
         21   -1    0    0  501  502  0.00000000000E+00 -0.00000000000E+00 -0.41350572867E+03  0.41350572867E+03  0.00000000000E+00 0.  1.
         21    1    1    2  503  505  0.92287451752E+02 -0.12243108297E+02  0.51648172238E+02  0.10646314455E+03  0.00000000000E+00 0.  1.
         21    1    1    2  504  503 -0.62033169235E+02  0.43363180790E+02  0.55821394405E+02  0.94045242341E+02  0.00000000000E+00 0. -1.
         21    1    1    2  505  502  0.94901332858E+02  0.55275661184E+01 -0.34167963108E+03  0.35465728142E+03  0.00000000000E+00 0.  1.
          2    1    1    2  501    0 -0.12515561538E+03 -0.36647638611E+02  0.20712408061E+03  0.24475980521E+03  0.00000000000E+00 0.  1.
<scales pt_clust_3="76.55336" pt_clust_4="75.68672" pt_clust_5="95.95937" pt_clust_6="14000.00000"></scales>
<clustering>
<clus scale="   75.687">  1  4  2 -1</clus>
<clus scale="   76.553">  1  3  2 -1</clus>
<clus scale="   95.959">  2  5  1 -1</clus>
<clus scale="   95.959">  2  3  1 -1</clus>
</clustering>
</event>
<event>
 6    0  0.1622933E+002  0.7075140E+02  0.7546771E-02  0.1357556E+00
         21   -1    0    0  505  502  0.00000000000E+00  0.00000000000E+00  0.60625585129E+02  0.60625585129E+02  0.00000000000E+00 0. -1.
         -2   -1    0    0    0  501 -0.00000000000E+00 -0.00000000000E+00 -0.19996506676E+04  0.19996506676E+04  0.00000000000E+00 0. -1.
         21    1    1    2  503  501 -0.23419758496E+02 -0.33168535974E+02 -0.86819480507E+03  0.86914374899E+03  0.00000000000E+00 0.  1.
         21    1    1    2  504  503 -0.54595767083E+02  0.89404771937E+02 -0.84244829328E+03  0.84893641568E+03  0.00000000000E+00 0. -1.
         21    1    1    2  505  504  0.35599879909E+02 -0.60111758746E+02  0.33072322904E+02  0.77295236149E+02  0.00000000000E+00 0. -1.
         -2    1    1    2    0  502  0.42415645669E+02  0.38755227824E+01 -0.26145430704E+03  0.26490085191E+03  0.00000000000E+00 0. -1.
<scales pt_clust_3="40.60341" pt_clust_4="14000.00000" pt_clust_5="70.75140" pt_clust_6="37.16510"></scales>
<clustering>
<clus scale="   40.603">  2  3  1 -1</clus>
<clus scale="   37.165">  2  6  1 -1</clus>
<clus scale="   70.751">  1  5  2 -1</clus>
<clus scale="   70.751">  1  3  2 -1</clus>
</clustering>
</event>
<event>
 6    0  0.1622933E+002  0.1111809E+03  0.7546771E-02  0.1258399E+00
          1   -1    0    0  503    0 -0.00000000000E+00  0.00000000000E+00  0.14585930884E+03  0.14585930884E+03  0.00000000000E+00 0.  1.
         21   -1    0    0  504  502  0.00000000000E+00 -0.00000000000E+00 -0.35545297226E+03  0.35545297226E+03  0.00000000000E+00 0.  1.
         21    1    1    2  503  505 -0.23963407064E+02  0.50704069448E+02  0.60312171622E+02  0.82357182944E+02  0.00000000000E+00 0.  1.
         21    1    1    2  504  501  0.49618691245E+02 -0.33337433388E+02 -0.32926167576E+02  0.68246109757E+02  0.00000000000E+00 0.  1.
         21    1    1    2  505  502 -0.76561720301E+02  0.51161275757E+02 -0.24808459900E+03  0.26462263965E+03  0.00000000000E+00 0.  1.
          1    1    1    2  501    0  0.50906436120E+02 -0.68527911817E+02  0.11104931534E+02  0.86086348749E+02  0.00000000000E+00 0.  1.
<scales pt_clust_3="56.08161" pt_clust_4="44.75540" pt_clust_5="97.47152" pt_clust_6="44.75540"></scales>
<clustering>
<clus scale="   44.755">  4  6 -1 -1</clus>
<clus scale="   56.082">  1  3  2 -1</clus>
<clus scale="   97.472">  2  5  1 -1</clus>
<clus scale="   97.472">  2  3  1 -1</clus>
</clustering>
</event>
<event>
 6    0  0.1622933E+002  0.9910901E+02  0.7546771E-02  0.1282181E+00
         21   -1    0    0  501  502  0.00000000000E+00  0.00000000000E+00  0.69696607612E+02  0.69696607612E+02  0.00000000000E+00 0.  1.
          2   -1    0    0  503    0 -0.00000000000E+00 -0.00000000000E+00 -0.16496903710E+04  0.16496903710E+04  0.00000000000E+00 0.  1.
         21    1    1    2  503  505 -0.33190978268E+02  0.15056253592E+02 -0.64284243526E+03  0.64387477694E+03  0.00000000000E+00 0.  1.
         21    1    1    2  504  502 -0.33337307239E+02  0.38943374417E+02  0.42269741400E+02  0.66443159941E+02  0.00000000000E+00 0.  1.
         21    1    1    2  505  504 -0.48147899677E+01  0.64347062568E+02 -0.10105452654E+03  0.11989889073E+03  0.00000000000E+00 0. -1.
          2    1    1    2  501    0  0.71343075475E+02 -0.11834669058E+03 -0.87836654300E+03  0.88917015101E+03  0.00000000000E+00 0.  1.
<scales pt_clust_3="36.44629" pt_clust_4="51.66061" pt_clust_5="99.10901" pt_clust_6="14000.00000"></scales>
<clustering>
<clus scale="   36.446">  2  3  1 -1</clus>
<clus scale="   51.661">  1  4  2 -1</clus>
<clus scale="   99.109">  1  5  2 -1</clus>
<clus scale="   51.661">  1  3  2 -1</clus>
</clustering>
</event>
<event>
 6    0  0.1622933E+002  0.9680637E+02  0.7546771E-02  0.1287159E+00
         21   -1    0    0  503  502  0.00000000000E+00  0.00000000000E+00  0.16261386487E+03  0.16261386487E+03  0.00000000000E+00 0.  1.
         -4   -1    0    0    0  501 -0.00000000000E+00 -0.00000000000E+00 -0.24451801270E+03  0.24451801270E+03  0.00000000000E+00 0. -1.
         21    1    1    2  503  504  0.28697790849E+02  0.70675736007E+02  0.86251400470E+02  0.11514307162E+03  0.00000000000E+00 0.  1.
         21    1    1    2  504  501  0.39592308065E+01  0.43729130414E+02 -0.19211026089E+02  0.47926776219E+02  0.00000000000E+00 0.  1.
         21    1    1    2  505  502  0.43706460389E+02 -0.59461245627E+01  0.66987343539E+00  0.44114167877E+02  0.00000000000E+00 0.  1.
         -4    1    1    2    0  505 -0.76363482045E+02 -0.10845874186E+03 -0.14961439565E+03  0.19994786186E+03  0.00000000000E+00 0. -1.
<scales pt_clust_3="96.80637" pt_clust_4="43.90800" pt_clust_5="44.13776" pt_clust_6="14000.00000"></scales>
<clustering>
<clus scale="   43.908">  2  4  1 -1</clus>
<clus scale="   44.138">  1  5  2 -1</clus>
<clus scale="   96.806">  1  3  2 -1</clus>
<clus scale="   44.138">  1  3  2 -1</clus>
</clustering>
</event>
<event>
 6    0  0.1622933E+002  0.1132901E+03  0.7546771E-02  0.1254596E+00
         21   -1    0    0  501  502  0.00000000000E+00  0.00000000000E+00  0.10169461698E+03  0.10169461698E+03  0.00000000000E+00 0. -1.
          1   -1    0    0  503    0 -0.00000000000E+00 -0.00000000000E+00 -0.18741661589E+04  0.18741661589E+04  0.00000000000E+00 0. -1.
         21    1    1    2  503  505 -0.28047048302E+02  0.15295790095E+02 -0.14933015473E+03  0.15270917859E+03  0.00000000000E+00 0.  1.
         21    1    1    2  504  502  0.10690685056E+03 -0.41633412945E+02  0.64873413924E+02  0.13179899698E+03  0.00000000000E+00 0. -1.
         21    1    1    2  505  504 -0.92615967224E+01  0.34437379847E+02 -0.49608684873E+03  0.49736693877E+03  0.00000000000E+00 0.  1.
          1    1    1    2  501    0 -0.69598205540E+02 -0.80997569969E+01 -0.11919279524E+04  0.11939856615E+04  0.00000000000E+00 0. -1.
<scales pt_clust_3="31.94680" pt_clust_4="14000.00000" pt_clust_5="42.54373" pt_clust_6="113.29011"></scales>
<clustering>
<clus scale="   31.947">  2  3  1 -1</clus>
<clus scale="   42.544">  2  5  1 -1</clus>
<clus scale="  113.290">  2  6  1 -1</clus>
<clus scale="  113.290">  1  3  2 -1</clus>
</clustering>
</event>
<event>
 6    0  0.1622933E+002  0.8327271E+02  0.7546771E-02  0.1320012E+00
         21   -1    0    0  503  502  0.00000000000E+00  0.00000000000E+00  0.33343049010E+02  0.33343049010E+02  0.00000000000E+00 0.  1.
          2   -1    0    0  504    0 -0.00000000000E+00 -0.00000000000E+00 -0.87046532298E+03  0.87046532298E+03  0.00000000000E+00 0.  1.
         21    1    1    2  503  501  0.46966147517E+01  0.89524339526E+02 -0.94513724010E+02  0.13026707022E+03  0.00000000000E+00 0.  1.
         21    1    1    2  504  505  0.45429781424E+02  0.14056634761E+02 -0.31073037289E+03  0.31434824424E+03  0.00000000000E+00 0.  1.
         21    1    1    2  505  502 -0.52708083106E+02 -0.17706567440E+02 -0.83078633865E+02  0.99968614876E+02  0.00000000000E+00 0. -1.
          2    1    1    2  501    0  0.25816869305E+01 -0.85874406848E+02 -0.34879954321E+03  0.35922444266E+03  0.00000000000E+00 0.  1.
<scales pt_clust_3="83.27271" pt_clust_4="47.55475" pt_clust_5="47.80435" pt_clust_6="14000.00000"></scales>
<clustering>
<clus scale="   47.555">  2  4  1 -1</clus>
<clus scale="   47.804">  1  5  2 -1</clus>
<clus scale="   83.273">  1  3  2 -1</clus>
<clus scale="   47.804">  1  3  2 -1</clus>
</clustering>
</event>
<event>
 6    0  0.1622933E+002  0.7753795E+02  0.7546771E-02  0.1336187E+00
          2   -1    0    0  505    0 -0.00000000000E+00  0.00000000000E+00  0.30921565583E+03  0.30921565583E+03  0.00000000000E+00 0. -1.
         21   -1    0    0  503  502  0.00000000000E+00 -0.00000000000E+00 -0.58030392345E+03  0.58030392345E+03  0.00000000000E+00 0. -1.
         21    1    1    2  503  501 -0.75135053535E+02  0.18359106090E+02  0.11632441334E+02  0.78215386834E+02  0.00000000000E+00 0.  1.
         21    1    1    2  504  502  0.23219829423E+01  0.64647014185E+02 -0.50816381182E+03  0.51226466567E+03  0.00000000000E+00 0. -1.
         21    1    1    2  505  504 -0.44898283691E+01 -0.75097271158E+02  0.17765791586E+02  0.77300595372E+02  0.00000000000E+00 0. -1.
          2    1    1    2  501    0  0.77302898962E+02 -0.79088491167E+01  0.20767731128E+03  0.22173893141E+03  0.00000000000E+00 0. -1.
<scales pt_clust_3="14000.00000" pt_clust_4="64.68870" pt_clust_5="47.77006" pt_clust_6="77.53795"></scales>
<clustering>
<clus scale="   64.689">  2  4  1 -1</clus>
<clus scale="   47.770">  2  5  1 -1</clus>
<clus scale="   77.538">  1  6  2 -1</clus>
<clus scale="   64.689">  2  3  1 -1</clus>
</clustering>
</event>
<event>
 6    0  0.1622933E+002  0.1102693E+03  0.7546771E-02  0.1260072E+00
          1   -1    0    0  503    0 -0.00000000000E+00  0.00000000000E+00  0.11819028126E+04  0.11819028126E+04  0.00000000000E+00 0.  1.
         21   -1    0    0  505  502  0.00000000000E+00 -0.00000000000E+00 -0.93716941868E+03  0.93716941868E+03  0.00000000000E+00 0.  1.
         21    1    1    2  503  502 -0.32474839541E+01  0.36064993769E+02  0.17299832672E+03  0.17674742141E+03  0.00000000000E+00 0. -1.
         21    1    1    2  504  501  0.43399011555E+02 -0.80864779926E+02  0.32944644794E+03  0.34199056843E+03  0.00000000000E+00 0.  1.
         21    1    1    2  505  504 -0.70265859899E+02  0.85239700586E+02 -0.92478418157E+03  0.93135862057E+03  0.00000000000E+00 0.  1.
          1    1    1    2  501    0  0.30114332299E+02 -0.40439914429E+02  0.66707280080E+03  0.66897562082E+03  0.00000000000E+00 0.  1.
<scales pt_clust_3="36.21091" pt_clust_4="110.26933" pt_clust_5="14000.00000" pt_clust_6="32.47365"></scales>
<clustering>
<clus scale="   36.211">  1  3  2 -1</clus>
<clus scale="   32.474">  1  6  2 -1</clus>
<clus scale="  110.269">  1  4  2 -1</clus>
<clus scale="  110.269">  2  3  1 -1</clus>
</clustering>
</event>
<event>
 6    0  0.1622933E+002  0.1418923E+03  0.7546771E-02  0.1210805E+00
         21   -1    0    0  503  502  0.00000000000E+00  0.00000000000E+00  0.65156550921E+03  0.65156550921E+03  0.00000000000E+00 0. -1.
         -2   -1    0    0    0  501 -0.00000000000E+00 -0.00000000000E+00 -0.53892006344E+02  0.53892006344E+02  0.00000000000E+00 0. -1.
         21    1    1    2  503  504  0.12907598916E+02  0.30206233752E+02  0.28347679654E+03  0.28537364427E+03  0.00000000000E+00 0. -1.
         21    1    1    2  504  505  0.84918868992E+01  0.46666891982E+02  0.48192464167E+02  0.67619705360E+02  0.00000000000E+00 0. -1.
         21    1    1    2  505  501 -0.38439435413E+02  0.71052948743E+02  0.11357105773E+03  0.13937179368E+03  0.00000000000E+00 0. -1.
         -2    1    1    2    0  502  0.17039949597E+02 -0.14792607448E+03  0.15243318443E+03  0.21309237224E+03  0.00000000000E+00 0. -1.
<scales pt_clust_3="32.84848" pt_clust_4="33.82101" pt_clust_5="33.82101" pt_clust_6="134.94522"></scales>
<clustering>
<clus scale="   32.848">  1  3  2 -1</clus>
<clus scale="   33.821">  4  5 -1 -1</clus>
<clus scale="  134.945">  1  6  2 -1</clus>
<clus scale="   32.848">  1  3  2 -1</clus>
</clustering>
</event>
<event>
 6    0  0.1622933E+002  0.8581076E+02  0.7546771E-02  0.1313326E+00
         21   -1    0    0  505  502  0.00000000000E+00  0.00000000000E+00  0.37495488707E+03  0.37495488707E+03  0.00000000000E+00 0. -1.
         -2   -1    0    0    0  501 -0.00000000000E+00 -0.00000000000E+00 -0.16998269855E+04  0.16998269855E+04  0.00000000000E+00 0.  1.
         21    1    1    2  503  504  0.48037160969E+02  0.11469511038E+03 -0.10392860604E+04  0.10466986445E+04  0.00000000000E+00 0.  1.
         21    1    1    2  504  501 -0.37251272455E+02  0.94333617104E+00 -0.15014273866E+03  0.15469773481E+03  0.00000000000E+00 0. -1.
         21    1    1    2  505  503 -0.89008251355E+01 -0.54176873905E+02  0.36503656754E+03  0.36914232214E+03  0.00000000000E+00 0. -1.
         -2    1    1    2    0  502 -0.18850633783E+01 -0.61461572646E+02 -0.50047986694E+03  0.50424317108E+03  0.00000000000E+00 0.  1.
<scales pt_clust_3="14000.00000" pt_clust_4="37.26321" pt_clust_5="54.90997" pt_clust_6="85.81076"></scales>
<clustering>
<clus scale="   37.263">  2  4  1 -1</clus>
<clus scale="   54.910">  1  5  2 -1</clus>
<clus scale="   85.811">  2  6  1 -1</clus>
<clus scale="   54.910">  1  3  2 -1</clus>
</clustering>
</event>
<event>
 6    0  0.1622933E+002  0.1033927E+03  0.7546771E-02  0.1273319E+00
          1   -1    0    0  505    0 -0.00000000000E+00  0.00000000000E+00  0.13307439322E+04  0.13307439322E+04  0.00000000000E+00 0.  1.
         21   -1    0    0  503  502  0.00000000000E+00 -0.00000000000E+00 -0.15232558331E+03  0.15232558331E+03  0.00000000000E+00 0.  1.
         21    1    1    2  503  501 -0.42818236670E+02  0.99322800989E+01  0.88105181126E+02  0.98461030468E+02  0.00000000000E+00 0.  1.
         21    1    1    2  504  502  0.43472382175E+02 -0.16973924133E+01 -0.13660557942E+03  0.14336601230E+03  0.00000000000E+00 0.  1.
         21    1    1    2  505  504  0.61678484028E+02 -0.60553728856E+02  0.90799349019E+03  0.91209822262E+03  0.00000000000E+00 0.  1.
          1    1    1    2  501    0 -0.62332629532E+02  0.52318841171E+02  0.31892525700E+03  0.32914425014E+03  0.00000000000E+00 0.  1.
<scales pt_clust_3="34.78793" pt_clust_4="43.50551" pt_clust_5="91.92091" pt_clust_6="34.78793"></scales>
<clustering>
<clus scale="   34.788">  3  6 -1 -1</clus>
<clus scale="   43.506">  2  4  1 -1</clus>
<clus scale="   91.921">  1  5  2 -1</clus>
<clus scale="   43.506">  2  3  1 -1</clus>
</clustering>
</event>
<event>
 6    0  0.1622933E+002  0.1571370E+03  0.7546771E-02  0.1191968E+00
          2   -1    0    0  504    0 -0.00000000000E+00  0.00000000000E+00  0.30540242676E+04  0.30540242676E+04  0.00000000000E+00 0.  1.
         21   -1    0    0  501  502  0.00000000000E+00 -0.00000000000E+00 -0.44984601460E+03  0.44984601460E+03  0.00000000000E+00 0.  1.
         21    1    1    2  503  505  0.93918184285E+02  0.10804493771E+03  0.12529698454E+03  0.19024633568E+03  0.00000000000E+00 0.  1.
         21    1    1    2  504  503  0.44158344445E+02 -0.15715981329E+02  0.26294673810E+03  0.26709162947E+03  0.00000000000E+00 0.  1.
         21    1    1    2  505  502 -0.14004103699E+02  0.29077610059E+02 -0.41180376023E+03  0.41306653128E+03  0.00000000000E+00 0.  1.
          2    1    1    2  501    0 -0.12407242503E+03 -0.12140656644E+03  0.26277382906E+04  0.26334657858E+04  0.00000000000E+00 0.  1.
<scales pt_clust_3="14000.00000" pt_clust_4="45.61801" pt_clust_5="32.27417" pt_clust_6="157.13697"></scales>
<clustering>
<clus scale="   32.274">  2  5  1 -1</clus>
<clus scale="   45.618">  1  4  2 -1</clus>
<clus scale="  157.137">  1  6  2 -1</clus>
<clus scale="   32.274">  2  3  1 -1</clus>
</clustering>
</event>
<event>
 6    0  0.1622933E+002  0.1104060E+03  0.7546771E-02  0.1259820E+00
          2   -1    0    0  503    0 -0.00000000000E+00  0.00000000000E+00  0.43585334817E+04  0.43585334817E+04  0.00000000000E+00 0.  1.
         21   -1    0    0  501  502  0.00000000000E+00 -0.00000000000E+00 -0.18982264702E+02  0.18982264702E+02  0.00000000000E+00 0. -1.
         21    1    1    2  503  504 -0.37055229334E+02 -0.25089546322E+02  0.54381744335E+03  0.54565555715E+03  0.00000000000E+00 0.  1.
         21    1    1    2  504  505 -0.21630724257E+02 -0.79039595094E+02  0.28745345381E+04  0.28757023414E+04  0.00000000000E+00 0.  1.
         21    1    1    2  505  502  0.46347618489E+02 -0.21215225725E+02  0.36882108388E+02  0.62916432363E+02  0.00000000000E+00 0. -1.
          2    1    1    2  501    0  0.12338335101E+02  0.12534436714E+03  0.88431712716E+03  0.89324141545E+03  0.00000000000E+00 0.  1.
<scales pt_clust_3="44.75014" pt_clust_4="110.40601" pt_clust_5="50.67068" pt_clust_6="14000.00000"></scales>
<clustering>
<clus scale="   44.750">  1  3  2 -1</clus>
<clus scale="   50.671">  2  5  1 -1</clus>
<clus scale="  110.406">  1  4  2 -1</clus>
<clus scale="   50.671">  2  3  1 -1</clus>
</clustering>
</event>
<event>
 6    0  0.1622933E+002  0.7355690E+02  0.7546771E-02  0.1348399E+00
         -3   -1    0    0    0  501 -0.00000000000E+00  0.00000000000E+00  0.10267865326E+04  0.10267865326E+04  0.00000000000E+00 0. -1.
         21   -1    0    0  503  502  0.00000000000E+00 -0.00000000000E+00 -0.16600376399E+03  0.16600376399E+03  0.00000000000E+00 0. -1.
         21    1    1    2  503  501 -0.27987654311E+02  0.24149235393E+02  0.27039124959E+02  0.45799657667E+02  0.00000000000E+00 0. -1.
         21    1    1    2  504  502  0.35504681359E+01 -0.77760366357E+02 -0.12331662799E+03  0.14582959624E+03  0.00000000000E+00 0. -1.
         21    1    1    2  505  504  0.96249379878E+02  0.47778876440E+02  0.12029583904E+03  0.16130050543E+03  0.00000000000E+00 0. -1.
         -3    1    1    2    0  505 -0.71812193702E+02  0.58322545231E+01  0.83676443257E+03  0.83986053722E+03  0.00000000000E+00 0. -1.
<scales pt_clust_3="36.96612" pt_clust_4="60.58365" pt_clust_5="14000.00000" pt_clust_6="73.55690"></scales>
<clustering>
<clus scale="   36.966">  2  3  1 -1</clus>
<clus scale="   60.584">  2  4  1 -1</clus>
<clus scale="   73.557">  1  6  2 -1</clus>
<clus scale="   36.966">  2  3  1 -1</clus>
</clustering>
</event>
<event>
 6    0  0.1622933E+002  0.1440468E+03  0.7546771E-02  0.1207985E+00
         21   -1    0    0  505  502  0.00000000000E+00  0.00000000000E+00  0.12052596831E+04  0.12052596831E+04  0.00000000000E+00 0.  1.
          1   -1    0    0  503    0 -0.00000000000E+00 -0.00000000000E+00 -0.49099252503E+03  0.49099252503E+03  0.00000000000E+00 0.  1.
         21    1    1    2  503  504 -0.10988660914E+03  0.12822264302E+03 -0.81026746214E+02  0.18730041819E+03  0.00000000000E+00 0.  1.
         21    1    1    2  504  502 -0.58189673240E+01  0.31026858609E+02  0.10924902947E+04  0.10929462797E+04  0.00000000000E+00 0.  1.
         21    1    1    2  505  501 -0.16948726978E+02 -0.11127329283E+03 -0.34321193052E+02  0.11767306121E+03  0.00000000000E+00 0.  1.
          1    1    1    2  501    0  0.13265430345E+03 -0.47976208801E+02 -0.26287519728E+03  0.29833244909E+03  0.00000000000E+00 0.  1.
<scales pt_clust_3="14000.00000" pt_clust_4="31.56781" pt_clust_5="101.59577" pt_clust_6="144.04680"></scales>
<clustering>
<clus scale="   31.568">  1  4  2 -1</clus>
<clus scale="  101.596">  1  5  2 -1</clus>
<clus scale="  144.047">  2  6  1 -1</clus>
<clus scale="   31.568">  1  3  2 -1</clus>
</clustering>
</event>
<event>
 6    0  0.1622933E+002  0.1106924E+03  0.7546771E-02  0.1259293E+00
         21   -1    0    0  503  502  0.00000000000E+00  0.00000000000E+00  0.39428510572E+02  0.39428510572E+02  0.00000000000E+00 0.  1.
          2   -1    0    0  504    0 -0.00000000000E+00 -0.00000000000E+00 -0.13410874016E+04  0.13410874016E+04  0.00000000000E+00 0.  1.
         21    1    1    2  503  501  0.19143554771E+02 -0.25603652789E+02 -0.18111898630E+02  0.36743211583E+02  0.00000000000E+00 0.  1.
         21    1    1    2  504  505  0.38711653451E+02 -0.14345942259E+02 -0.50701809667E+03  0.50869612592E+03  0.00000000000E+00 0.  1.
         21    1    1    2  505  502 -0.20850220409E+02  0.13490600000E+03 -0.16061380723E+03  0.21078699106E+03  0.00000000000E+00 0.  1.
          2    1    1    2  501    0 -0.37004987813E+02 -0.94956404956E+02 -0.61591508846E+03  0.62428958357E+03  0.00000000000E+00 0.  1.
<scales pt_clust_3="31.96909" pt_clust_4="42.03518" pt_clust_5="14000.00000" pt_clust_6="110.69241"></scales>
<clustering>
<clus scale="   31.969">  1  3  2 -1</clus>
<clus scale="   42.035">  2  4  1 -1</clus>
<clus scale="  110.692">  2  6  1 -1</clus>
<clus scale="   31.969">  1  3  2 -1</clus>
</clustering>
</event>
<event>
 6    0  0.1622933E+002  0.1097910E+03  0.7546771E-02  0.1260957E+00
         21   -1    0    0  503  502  0.00000000000E+00  0.00000000000E+00  0.34152191418E+03  0.34152191418E+03  0.00000000000E+00 0.  1.
          4   -1    0    0  505    0 -0.00000000000E+00 -0.00000000000E+00 -0.19464418482E+03  0.19464418482E+03  0.00000000000E+00 0.  1.
         21    1    1    2  503  501 -0.10218487101E+03  0.13320504674E+02  0.17960611345E+03  0.20706892499E+03  0.00000000000E+00 0.  1.
         21    1    1    2  504  502 -0.10787188987E+02  0.10778526497E+03  0.49844603371E+01  0.10843833103E+03  0.00000000000E+00 0.  1.
         21    1    1    2  505  504 -0.24391081613E+02 -0.44932756263E+02 -0.37810969674E+02  0.63588889559E+02  0.00000000000E+00 0.  1.
          4    1    1    2  501    0  0.13736314161E+03 -0.76173013379E+02  0.98125242634E-01  0.15706995343E+03  0.00000000000E+00 0.  1.
<scales pt_clust_3="109.79098" pt_clust_4="93.70114" pt_clust_5="51.12609" pt_clust_6="14000.00000"></scales>
<clustering>
<clus scale="   51.126">  2  5  1 -1</clus>
<clus scale="   93.701">  2  4  1 -1</clus>
<clus scale="  109.791">  1  3  2 -1</clus>
<clus scale="  109.791">  1  3  2 -1</clus>
</clustering>
</event>
<event>
 6    0  0.1622933E+002  0.1031396E+03  0.7546771E-02  0.1273829E+00
         21   -1    0    0  503  502  0.00000000000E+00  0.00000000000E+00  0.14956050064E+03  0.14956050064E+03  0.00000000000E+00 0. -1.
          2   -1    0    0  505    0 -0.00000000000E+00 -0.00000000000E+00 -0.47686169468E+03  0.47686169468E+03  0.00000000000E+00 0. -1.
         21    1    1    2  503  504  0.33618556693E+02 -0.69514240934E+02 -0.46751665338E+02  0.90267132771E+02  0.00000000000E+00 0.  1.
         21    1    1    2  504  501 -0.87455641206E+02  0.10829016432E+03 -0.19962467429E+03  0.24336240353E+03  0.00000000000E+00 0. -1.
         21    1    1    2  505  502  0.16558272215E+02 -0.26743006947E+02  0.10147275952E+03  0.10623599071E+03  0.00000000000E+00 0. -1.
          2    1    1    2  501    0  0.37278812298E+02 -0.12032916443E+02 -0.18239761392E+03  0.18655666831E+03  0.00000000000E+00 0. -1.
<scales pt_clust_3="14000.00000" pt_clust_4="103.13957" pt_clust_5="31.45417" pt_clust_6="40.27406"></scales>
<clustering>
<clus scale="   31.454">  1  5  2 -1</clus>
<clus scale="   40.274">  2  6  1 -1</clus>
<clus scale="  103.140">  2  4  1 -1</clus>
<clus scale="   31.454">  1  3  2 -1</clus>
</clustering>
</event>
<event>
 6    0  0.1622933E+002  0.8746722E+02  0.7546771E-02  0.1309104E+00
         21   -1    0    0  501  502  0.00000000000E+00  0.00000000000E+00  0.14678986866E+03  0.14678986866E+03  0.00000000000E+00 0. -1.
          2   -1    0    0  505    0 -0.00000000000E+00 -0.00000000000E+00 -0.53142253757E+03  0.53142253757E+03  0.00000000000E+00 0. -1.
         21    1    1    2  503  504 -0.22715199941E+02 -0.89400214786E+02 -0.65295067943E+02  0.11301249758E+03  0.00000000000E+00 0.  1.
         21    1    1    2  504  502  0.30249058959E+02  0.90754684501E+01  0.10945990216E+03  0.11392471144E+03  0.00000000000E+00 0. -1.
         21    1    1    2  505  503 -0.29072643130E+02 -0.21688377686E+02 -0.11883048457E+03  0.12424286043E+03  0.00000000000E+00 0.  1.
          2    1    1    2  501    0  0.21538784112E+02  0.10201312402E+03 -0.30996701857E+03  0.32703233677E+03  0.00000000000E+00 0. -1.
<scales pt_clust_3="87.46722" pt_clust_4="31.58116" pt_clust_5="33.99361" pt_clust_6="14000.00000"></scales>
<clustering>
<clus scale="   31.581">  1  4  2 -1</clus>
<clus scale="   33.994">  2  5  1 -1</clus>
<clus scale="   87.467">  1  3  2 -1</clus>
<clus scale="   31.581">  1  3  2 -1</clus>
</clustering>
</event>
<event>
 6    0  0.1622933E+002  0.1012868E+03  0.7546771E-02  0.1277613E+00
         21   -1    0    0  503  502  0.00000000000E+00  0.00000000000E+00  0.19357926098E+02  0.19357926098E+02  0.00000000000E+00 0.  1.
          2   -1    0    0  505    0 -0.00000000000E+00 -0.00000000000E+00 -0.33712646533E+04  0.33712646533E+04  0.00000000000E+00 0.  1.
         21    1    1    2  503  501  0.42136822540E+02  0.14663466810E+02 -0.25470305696E+02  0.51373782661E+02  0.00000000000E+00 0.  1.
         21    1    1    2  504  502  0.76440459031E+02  0.52523815288E+02 -0.53577851497E+03  0.54374673521E+03  0.00000000000E+00 0. -1.
         21    1    1    2  505  504 -0.24987026872E+02 -0.31913860304E+02 -0.16413737312E+04  0.16418741034E+04  0.00000000000E+00 0.  1.
          2    1    1    2  501    0 -0.93590254698E+02 -0.35273421794E+02 -0.11492841754E+04  0.11536279582E+04  0.00000000000E+00 0.  1.
<scales pt_clust_3="43.86083" pt_clust_4="14000.00000" pt_clust_5="40.53204" pt_clust_6="101.28680"></scales>
<clustering>
<clus scale="   40.532">  2  5  1 -1</clus>
<clus scale="   43.861">  1  3  2 -1</clus>
<clus scale="  101.287">  1  6  2 -1</clus>
<clus scale="   43.861">  1  3  2 -1</clus>
</clustering>
</event>
<event>
 6    0  0.1622933E+002  0.1890695E+03  0.7546771E-02  0.1159303E+00
          2   -1    0    0  503    0 -0.00000000000E+00  0.00000000000E+00  0.53364125341E+03  0.53364125341E+03  0.00000000000E+00 0. -1.
         21   -1    0    0  501  502  0.00000000000E+00 -0.00000000000E+00 -0.36143542500E+03  0.36143542500E+03  0.00000000000E+00 0.  1.
         21    1    1    2  503  505  0.30496016221E+02 -0.74370397279E+02  0.88757642295E+02  0.11974507114E+03  0.00000000000E+00 0.  1.
         21    1    1    2  504  502 -0.54797958813E+02  0.36509214385E+01 -0.15854967917E+03  0.16779197323E+03  0.00000000000E+00 0.  1.
         21    1    1    2  505  504 -0.13797288750E+03 -0.58470169577E+02 -0.11889358086E+03  0.19128764201E+03  0.00000000000E+00 0.  1.
          2    1    1    2  501    0  0.16227483010E+03  0.12918964542E+03  0.36089144614E+03  0.41625199203E+03  0.00000000000E+00 0. -1.
<scales pt_clust_3="78.58601" pt_clust_4="54.91945" pt_clust_5="14000.00000" pt_clust_6="189.06948"></scales>
<clustering>
<clus scale="   54.919">  2  4  1 -1</clus>
<clus scale="   78.586">  1  3  2 -1</clus>
<clus scale="  189.069">  1  6  2 -1</clus>
<clus scale="   54.919">  2  3  1 -1</clus>
</clustering>
</event>
<event>
 6    0  0.1622933E+002  0.9202813E+02  0.7546771E-02  0.1298013E+00
         21   -1    0    0  504  502  0.00000000000E+00  0.00000000000E+00  0.69169471208E+02  0.69169471208E+02  0.00000000000E+00 0. -1.
          2   -1    0    0  505    0 -0.00000000000E+00 -0.00000000000E+00 -0.59078152483E+03  0.59078152483E+03  0.00000000000E+00 0.  1.
         21    1    1    2  503  501 -0.16100645283E+02 -0.66711368799E+02 -0.24440555376E+03  0.25385766132E+03  0.00000000000E+00 0.  1.
         21    1    1    2  504  503  0.13723684099E+02  0.77511653826E+02  0.23391330309E+02  0.82119122729E+02  0.00000000000E+00 0. -1.
         21    1    1    2  505  502  0.21953231806E+02  0.48638812334E+02 -0.18477302115E+03  0.19232458968E+03  0.00000000000E+00 0.  1.
          2    1    1    2  501    0 -0.19576270622E+02 -0.59439097361E+02 -0.11582480902E+03  0.13164962230E+03  0.00000000000E+00 0.  1.
<scales pt_clust_3="38.94382" pt_clust_4="82.49853" pt_clust_5="53.36364" pt_clust_6="38.94382"></scales>
<clustering>
<clus scale="   38.944">  3  6 -1 -1</clus>
<clus scale="   53.364">  2  5  1 -1</clus>
<clus scale="   82.499">  1  4  2 -1</clus>
<clus scale="   82.499">  1  3  2 -1</clus>
</clustering>
</event>
<event>
 6    0  0.1622933E+002  0.9755040E+02  0.7546771E-02  0.1285533E+00
         21   -1    0    0  501  502  0.00000000000E+00  0.00000000000E+00  0.57577933079E+03  0.57577933079E+03  0.00000000000E+00 0.  1.
          2   -1    0    0  505    0 -0.00000000000E+00 -0.00000000000E+00 -0.76777508680E+03  0.76777508680E+03  0.00000000000E+00 0.  1.
         21    1    1    2  503  504  0.77736386001E+02  0.48762173310E+01 -0.53513644018E+02  0.94500969836E+02  0.00000000000E+00 0.  1.
         21    1    1    2  504  502 -0.15153166394E+02 -0.96198497661E+02  0.52954380444E+03  0.53842400599E+03  0.00000000000E+00 0.  1.
         21    1    1    2  505  503 -0.29588150897E+02 -0.37117472268E+02 -0.24184865280E+02  0.53273568772E+02  0.00000000000E+00 0.  1.
          2    1    1    2  501    0 -0.32995068710E+02  0.12843975260E+03 -0.64384105115E+03  0.65735587299E+03  0.00000000000E+00 0.  1.
<scales pt_clust_3="74.74104" pt_clust_4="14000.00000" pt_clust_5="47.46752" pt_clust_6="97.55040"></scales>
<clustering>
<clus scale="   47.468">  2  5  1 -1</clus>
<clus scale="   74.741">  2  3  1 -1</clus>
<clus scale="   97.550">  2  6  1 -1</clus>
<clus scale="   97.550">  1  3  2 -1</clus>
</clustering>
</event>
<event>
 6    0  0.1622933E+002  0.8228543E+02  0.7546771E-02  0.1322688E+00
          1   -1    0    0  503    0 -0.00000000000E+00  0.00000000000E+00  0.23247365528E+04  0.23247365528E+04  0.00000000000E+00 0. -1.
         21   -1    0    0  505  502  0.00000000000E+00 -0.00000000000E+00 -0.12342029079E+03  0.12342029079E+03  0.00000000000E+00 0. -1.
         21    1    1    2  503  504 -0.13951490935E+03 -0.41007154088E+02  0.18407226194E+04  0.18464576242E+04  0.00000000000E+00 0. -1.
         21    1    1    2  504  502  0.77871195954E+02  0.24967194046E+02 -0.97370210863E+02  0.12715440182E+03  0.00000000000E+00 0. -1.
         21    1    1    2  505  501  0.43291533630E+02  0.46258808496E+02  0.12933228867E+03  0.14401692657E+03  0.00000000000E+00 0. -1.
          1    1    1    2  501    0  0.18352179770E+02 -0.30218848455E+02  0.32863156482E+03  0.33052789096E+03  0.00000000000E+00 0. -1.
<scales pt_clust_3="14000.00000" pt_clust_4="82.28543" pt_clust_5="62.74736" pt_clust_6="35.35507"></scales>
<clustering>
<clus scale="   35.355">  1  6  2 -1</clus>
<clus scale="   62.747">  1  5  2 -1</clus>
<clus scale="   82.285">  2  4  1 -1</clus>
<clus scale="   82.285">  2  3  1 -1</clus>
</clustering>
</event>
<event>
 6    0  0.1622933E+002  0.6818789E+02  0.7546771E-02  0.1366366E+00
          2   -1    0    0  505    0 -0.00000000000E+00  0.00000000000E+00  0.28122985520E+04  0.28122985520E+04  0.00000000000E+00 0.  1.
         21   -1    0    0  504  502  0.00000000000E+00 -0.00000000000E+00 -0.75112404325E+02  0.75112404325E+02  0.00000000000E+00 0.  1.
         21    1    1    2  503  501 -0.77087007061E+02  0.57557888879E+02  0.35843171464E+03  0.37111805574E+03  0.00000000000E+00 0.  1.
         21    1    1    2  504  503  0.65624108475E+02  0.49473188540E+02  0.41022757416E+03  0.41837875495E+03  0.00000000000E+00 0.  1.
         21    1    1    2  505  502 -0.22885054093E+02 -0.50293823554E+02 -0.52250850570E+02  0.76048312103E+02  0.00000000000E+00 0.  1.
          2    1    1    2  501    0  0.34347952680E+02 -0.56737253865E+02  0.20207777095E+04  0.20218658336E+04  0.00000000000E+00 0.  1.
<scales pt_clust_3="14000.00000" pt_clust_4="64.87998" pt_clust_5="55.25572" pt_clust_6="68.18789"></scales>
<clustering>
<clus scale="   55.256">  2  5  1 -1</clus>
<clus scale="   64.880">  2  4  1 -1</clus>
<clus scale="   68.188">  1  6  2 -1</clus>
<clus scale="   55.256">  2  3  1 -1</clus>
</clustering>
</event>
<event>
 6    0  0.1622933E+002  0.1780995E+03  0.7546771E-02  0.1169655E+00
         21   -1    0    0  505  502  0.00000000000E+00  0.00000000000E+00  0.58820288449E+02  0.58820288449E+02  0.00000000000E+00 0. -1.
          2   -1    0    0  503    0 -0.00000000000E+00 -0.00000000000E+00 -0.42766242749E+04  0.42766242749E+04  0.00000000000E+00 0. -1.
         21    1    1    2  503  504  0.22853142463E+02  0.73706427551E+02 -0.45923896082E+03  0.46567727743E+03  0.00000000000E+00 0.  1.
         21    1    1    2  504  502  0.35922560326E+02  0.29846763547E+02 -0.51997449110E+03  0.52206774563E+03  0.00000000000E+00 0. -1.
         21    1    1    2  505  501 -0.17923735919E+03 -0.29007258175E+02 -0.10268220563E+03  0.20859311424E+03  0.00000000000E+00 0. -1.
          2    1    1    2  501    0  0.12046165640E+03 -0.74545932924E+02 -0.31359083289E+04  0.31391064261E+04  0.00000000000E+00 0. -1.
<scales pt_clust_3="129.54245" pt_clust_4="39.69434" pt_clust_5="178.09947" pt_clust_6="14000.00000"></scales>
<clustering>
<clus scale="   39.694">  3  4 -1 -1</clus>
<clus scale="  129.542">  2  3  1 -1</clus>
<clus scale="  178.099">  1  5  2 -1</clus>
<clus scale="  178.099">  1  3  2 -1</clus>
</clustering>
</event>
<event>
 6    0  0.1622933E+002  0.1438843E+03  0.7546771E-02  0.1208196E+00
         21   -1    0    0  503  502  0.00000000000E+00  0.00000000000E+00  0.21138588175E+03  0.21138588175E+03  0.00000000000E+00 0. -1.
         -1   -1    0    0    0  501 -0.00000000000E+00 -0.00000000000E+00 -0.52681245021E+03  0.52681245021E+03  0.00000000000E+00 0. -1.
         21    1    1    2  503  504  0.51874952885E+01 -0.42843762228E+02 -0.92293847731E+02  0.10188548669E+03  0.00000000000E+00 0. -1.
         21    1    1    2  504  501  0.28042249980E+02 -0.21076248490E+02 -0.31072391181E+03  0.31269781804E+03  0.00000000000E+00 0. -1.
         21    1    1    2  505  502  0.13163097335E+03  0.62692229558E+01  0.66763491203E+02  0.14772738425E+03  0.00000000000E+00 0. -1.
         -1    1    1    2    0  505 -0.16486071861E+03  0.57650787763E+02  0.20827699881E+02  0.17588764298E+03  0.00000000000E+00 0. -1.
<scales pt_clust_3="55.31438" pt_clust_4="35.07957" pt_clust_5="143.88432" pt_clust_6="14000.00000"></scales>
<clustering>
<clus scale="   35.080">  2  4  1 -1</clus>
<clus scale="   55.314">  2  3  1 -1</clus>
<clus scale="  143.884">  1  5  2 -1</clus>
<clus scale="  143.884">  1  3  2 -1</clus>
</clustering>
</event>
<event>
 6    0  0.1622933E+002  0.1879442E+03  0.7546771E-02  0.1160329E+00
         21   -1    0    0  501  502  0.00000000000E+00  0.00000000000E+00  0.15049443790E+03  0.15049443790E+03  0.00000000000E+00 0. -1.
          2   -1    0    0  504    0 -0.00000000000E+00 -0.00000000000E+00 -0.18945247573E+04  0.18945247573E+04  0.00000000000E+00 0. -1.
         21    1    1    2  503  502 -0.14484610269E+03  0.12102330651E+03 -0.71403939912E+02  0.20180574030E+03  0.00000000000E+00 0. -1.
         21    1    1    2  504  505  0.14550943253E+02 -0.26615787856E+02 -0.93069936496E+02  0.97888422155E+02  0.00000000000E+00 0.  1.
         21    1    1    2  505  503 -0.16129714417E+02 -0.22496499107E+03 -0.89888092802E+02  0.24279473660E+03  0.00000000000E+00 0. -1.
          2    1    1    2  501    0  0.14642487385E+03  0.13055747241E+03 -0.14896683502E+04  0.15025302961E+04  0.00000000000E+00 0. -1.
<scales pt_clust_3="186.60946" pt_clust_4="30.33365" pt_clust_5="187.94419" pt_clust_6="14000.00000"></scales>
<clustering>
<clus scale="   30.334">  2  4  1 -1</clus>
<clus scale="  186.609">  1  3  2 -1</clus>
<clus scale="  187.944">  1  5  2 -1</clus>
<clus scale="  186.609">  1  3  2 -1</clus>
</clustering>
</event>
<event>
 6    0  0.1622933E+002  0.7443434E+02  0.7546771E-02  0.1345632E+00
         21   -1    0    0  505  502  0.00000000000E+00  0.00000000000E+00  0.10387410490E+04  0.10387410490E+04  0.00000000000E+00 0.  1.
         -1   -1    0    0    0  501 -0.00000000000E+00 -0.00000000000E+00 -0.76869514818E+02  0.76869514818E+02  0.00000000000E+00 0. -1.
         21    1    1    2  503  501 -0.14754366224E+02 -0.44136844141E+02 -0.34756365855E+02  0.58084053757E+02  0.00000000000E+00 0. -1.
         21    1    1    2  504  503  0.55326562056E+02  0.56544208162E+01  0.51554432420E+02  0.75834427840E+02  0.00000000000E+00 0. -1.
         21    1    1    2  505  504  0.57235778955E+02 -0.39321126017E+02  0.72727471055E+03  0.73058236357E+03  0.00000000000E+00 0.  1.
         -1    1    1    2    0  502 -0.97807974788E+02  0.77803549342E+02  0.21779875704E+03  0.25110971863E+03  0.00000000000E+00 0. -1.
<scales pt_clust_3="46.53764" pt_clust_4="50.86595" pt_clust_5="14000.00000" pt_clust_6="74.43434"></scales>
<clustering>
<clus scale="   46.538">  2  3  1 -1</clus>
<clus scale="   50.866">  2  4  1 -1</clus>
<clus scale="   74.434">  2  6  1 -1</clus>
<clus scale="   74.434">  1  3  2 -1</clus>
</clustering>
</event>
<event>
 6    0  0.1622933E+002  0.1335883E+03  0.7546771E-02  0.1222226E+00
         21   -1    0    0  505  502  0.00000000000E+00  0.00000000000E+00  0.21245933729E+03  0.21245933729E+03  0.00000000000E+00 0.  1.
          2   -1    0    0  503    0 -0.00000000000E+00 -0.00000000000E+00 -0.51922430093E+03  0.51922430093E+03  0.00000000000E+00 0.  1.
         21    1    1    2  503  504  0.33714849776E+00  0.12867369889E+03 -0.24250000598E+03  0.27452374643E+03  0.00000000000E+00 0.  1.
         21    1    1    2  504  502  0.11643406963E+03 -0.34991151646E+02  0.14864951874E+03  0.19203633168E+03  0.00000000000E+00 0.  1.
         21    1    1    2  505  501 -0.43590023045E+02 -0.60184303635E+02 -0.75916764820E+02  0.10623368437E+03  0.00000000000E+00 0.  1.
          2    1    1    2  501    0 -0.73181195078E+02 -0.33498243610E+02 -0.13699771158E+03  0.15888987575E+03  0.00000000000E+00 0.  1.
<scales pt_clust_3="123.69255" pt_clust_4="121.57826" pt_clust_5="48.48455" pt_clust_6="48.48455"></scales>
<clustering>
<clus scale="   48.485">  5  6 -1 -1</clus>
<clus scale="  121.578">  1  4  2 -1</clus>
<clus scale="  123.693">  2  3  1 -1</clus>
<clus scale="  121.578">  1  3  2 -1</clus>
</clustering>
</event>
<event>
 6    0  0.1622933E+002  0.1783576E+03  0.7546771E-02  0.1169402E+00
         21   -1    0    0  503  502  0.00000000000E+00  0.00000000000E+00  0.88821626580E+02  0.88821626580E+02  0.00000000000E+00 0.  1.
          2   -1    0    0  504    0 -0.00000000000E+00 -0.00000000000E+00 -0.89447925290E+03  0.89447925290E+03  0.00000000000E+00 0. -1.
         21    1    1    2  503  501  0.32612980464E+02 -0.56836062755E+02 -0.28904428154E+03  0.29637904990E+03  0.00000000000E+00 0. -1.
         21    1    1    2  504  505 -0.11003818441E+02  0.11572143591E+03 -0.14178177062E+03  0.18334286249E+03  0.00000000000E+00 0.  1.
         21    1    1    2  505  502 -0.58394939799E+02  0.86737703719E+02 -0.53087818174E+01  0.10469757115E+03  0.00000000000E+00 0.  1.
          2    1    1    2  501    0  0.36785777777E+02 -0.14562307687E+03 -0.36952279234E+03  0.39888139593E+03  0.00000000000E+00 0. -1.
<scales pt_clust_3="41.09342" pt_clust_4="167.15509" pt_clust_5="104.56289" pt_clust_6="41.09342"></scales>
<clustering>
<clus scale="   41.093">  3  6 -1 -1</clus>
<clus scale="  104.563">  1  5  2 -1</clus>
<clus scale="  167.155">  1  4  2 -1</clus>
<clus scale="  104.563">  1  3  2 -1</clus>
</clustering>
</event>
<event>
 6    0  0.1622933E+002  0.8306321E+02  0.7546771E-02  0.1320577E+00
         -2   -1    0    0    0  501 -0.00000000000E+00  0.00000000000E+00  0.17737504235E+04  0.17737504235E+04  0.00000000000E+00 0.  1.
         21   -1    0    0  504  502  0.00000000000E+00 -0.00000000000E+00 -0.77112124644E+03  0.77112124644E+03  0.00000000000E+00 0. -1.
         21    1    1    2  503  505 -0.10809888283E+03  0.10059525883E+02  0.10579139448E+03  0.15158621862E+03  0.00000000000E+00 0.  1.
         21    1    1    2  504  501 -0.23754407979E+02  0.40930813310E+02  0.35572610277E+03  0.35886022846E+03  0.00000000000E+00 0. -1.
         21    1    1    2  505  502  0.41937059096E+02  0.28931090931E+02 -0.74297288416E+03  0.74471768581E+03  0.00000000000E+00 0. -1.
         -2    1    1    2    0  503  0.89916231711E+02 -0.79921430123E+02  0.12840845640E+04  0.12897075371E+04  0.00000000000E+00 0.  1.
<scales pt_clust_3="14000.00000" pt_clust_4="47.32445" pt_clust_5="50.95054" pt_clust_6="83.06321"></scales>
<clustering>
<clus scale="   47.324">  1  4  2 -1</clus>
<clus scale="   50.951">  2  5  1 -1</clus>
<clus scale="   83.063">  1  6  2 -1</clus>
<clus scale="   50.951">  2  3  1 -1</clus>
</clustering>
</event>
<event>
 6    0  0.1622933E+002  0.1917151E+03  0.7546771E-02  0.1156923E+00
         21   -1    0    0  505  502  0.00000000000E+00  0.00000000000E+00  0.58397190483E+02  0.58397190483E+02  0.00000000000E+00 0. -1.
          1   -1    0    0  503    0 -0.00000000000E+00 -0.00000000000E+00 -0.19159638979E+04  0.19159638979E+04  0.00000000000E+00 0. -1.
         21    1    1    2  503  504  0.13569445284E+03  0.12401653204E+03 -0.70261241303E+03  0.72626254736E+03  0.00000000000E+00 0. -1.
         21    1    1    2  504  502 -0.88633627786E+02  0.65128062199E+02 -0.43800889482E+02  0.11838962108E+03  0.00000000000E+00 0. -1.
         21    1    1    2  505  501 -0.37453447995E+02 -0.52906171273E+02 -0.44525884997E+03  0.44995251661E+03  0.00000000000E+00 0. -1.
          1    1    1    2  501    0 -0.96073770578E+01 -0.13623842297E+03 -0.66589455497E+03  0.67975640337E+03  0.00000000000E+00 0. -1.
<scales pt_clust_3="182.11189" pt_clust_4="109.98902" pt_clust_5="41.27771" pt_clust_6="41.27771"></scales>
<clustering>
<clus scale="   41.278">  5  6 -1 -1</clus>
<clus scale="  109.989">  1  4  2 -1</clus>
<clus scale="  182.112">  1  3  2 -1</clus>
<clus scale="  109.989">  1  3  2 -1</clus>
</clustering>
</event>
<event>
 6    0  0.1622933E+002  0.1373120E+03  0.7546771E-02  0.1216992E+00
         -1   -1    0    0    0  501 -0.00000000000E+00  0.00000000000E+00  0.40911363482E+03  0.40911363482E+03  0.00000000000E+00 0.  1.
         21   -1    0    0  504  502  0.00000000000E+00 -0.00000000000E+00 -0.48050219114E+03  0.48050219114E+03  0.00000000000E+00 0.  1.
         21    1    1    2  503  501 -0.37865440106E+02 -0.39781053513E+01  0.21355356198E+02  0.43653958755E+02  0.00000000000E+00 0.  1.
         21    1    1    2  504  503 -0.18576899649E+02  0.12222333624E+03 -0.44688705372E+03  0.46367195721E+03  0.00000000000E+00 0.  1.
         21    1    1    2  505  502  0.10543569866E+02 -0.75680737026E+02  0.14394627993E+03  0.16297015778E+03  0.00000000000E+00 0. -1.
         -1    1    1    2    0  505  0.45898769890E+02 -0.42564493862E+02  0.21019686128E+03  0.21931975220E+03  0.00000000000E+00 0.  1.
<scales pt_clust_3="38.07383" pt_clust_4="123.66910" pt_clust_5="48.41800" pt_clust_6="48.41800"></scales>
<clustering>
<clus scale="   38.074">  1  3  2 -1</clus>
<clus scale="   48.418">  5  6 -1 -1</clus>
<clus scale="  123.669">  2  4  1 -1</clus>
<clus scale="  123.669">  2  3  1 -1</clus>
</clustering>
</event>
<event>
 6    0  0.1622933E+002  0.8875175E+02  0.7546771E-02  0.1305903E+00
         21   -1    0    0  501  502  0.00000000000E+00  0.00000000000E+00  0.48761944365E+01  0.48761944365E+01  0.00000000000E+00 0.  1.
          2   -1    0    0  504    0 -0.00000000000E+00 -0.00000000000E+00 -0.40335490393E+04  0.40335490393E+04  0.00000000000E+00 0.  1.
         21    1    1    2  503  502 -0.88306431950E+02  0.57996413260E+01 -0.10158729774E+04  0.10197203381E+04  0.00000000000E+00 0.  1.
         21    1    1    2  504  505 -0.24035980350E+02  0.18748540266E+02 -0.98308647710E+03  0.98355897514E+03  0.00000000000E+00 0.  1.
         21    1    1    2  505  503  0.34650486647E+02  0.36101582258E+02 -0.68473198757E+03  0.68655799119E+03  0.00000000000E+00 0.  1.
          2    1    1    2  501    0  0.77691925653E+02 -0.60649763851E+02 -0.13449814028E+04  0.13485879293E+04  0.00000000000E+00 0.  1.
<scales pt_clust_3="14000.00000" pt_clust_4="30.48337" pt_clust_5="49.80760" pt_clust_6="88.75175"></scales>
<clustering>
<clus scale="   30.483">  2  4  1 -1</clus>
<clus scale="   49.808">  2  5  1 -1</clus>
<clus scale="   88.752">  2  6  1 -1</clus>
<clus scale="   88.752">  1  3  2 -1</clus>
</clustering>
</event>
<event>
 6    0  0.1622933E+002  0.7867970E+02  0.7546771E-02  0.1332841E+00
         21   -1    0    0  503  502  0.00000000000E+00  0.00000000000E+00  0.60267854077E+02  0.60267854077E+02  0.00000000000E+00 0.  1.
          1   -1    0    0  502    0 -0.00000000000E+00 -0.00000000000E+00 -0.10869889422E+04  0.10869889422E+04  0.00000000000E+00 0.  1.
         21    1    1    2  503  504 -0.77477227302E+02  0.30899531649E+00  0.22192251818E+02  0.80593500168E+02  0.00000000000E+00 0.  1.
         21    1    1    2  504  505  0.99028191087E+02  0.11405905734E+02 -0.48944270938E+03  0.49949058358E+03  0.00000000000E+00 0.  1.
         21    1    1    2  505  501 -0.44212761750E+02  0.19576964791E+02 -0.20609407271E+03  0.21169032254E+03  0.00000000000E+00 0.  1.
          1    1    1    2  501    0  0.22661797965E+02 -0.31291865842E+02 -0.35337655790E+03  0.35548239004E+03  0.00000000000E+00 0.  1.
<scales pt_clust_3="78.67970" pt_clust_4="14000.00000" pt_clust_5="39.22524" pt_clust_6="38.63597"></scales>
<clustering>
<clus scale="   38.636">  2  6  1 -1</clus>
<clus scale="   39.225">  2  5  1 -1</clus>
<clus scale="   78.680">  1  3  2 -1</clus>
<clus scale="   78.680">  1  3  2 -1</clus>
</clustering>
</event>
<event>
 6    0  0.1622933E+002  0.1780545E+03  0.7546771E-02  0.1169699E+00
          1   -1    0    0  505    0 -0.00000000000E+00  0.00000000000E+00  0.49725086262E+03  0.49725086262E+03  0.00000000000E+00 0. -1.
         21   -1    0    0  503  502  0.00000000000E+00 -0.00000000000E+00 -0.10693027615E+03  0.10693027615E+03  0.00000000000E+00 0.  1.
         21    1    1    2  503  501  0.33715899979E+02  0.92301377462E+01 -0.35923450282E+02  0.50124361685E+02  0.00000000000E+00 0.  1.
         21    1    1    2  504  502  0.70366277837E+02  0.88105289996E+02  0.88504710452E+02  0.14334238366E+03  0.00000000000E+00 0.  1.
         21    1    1    2  505  504  0.42967963008E+02 -0.91250666484E+01  0.17169152658E+02  0.47162405466E+02  0.00000000000E+00 0.  1.
          1    1    1    2  501    0 -0.14705014082E+03 -0.88210361093E+02  0.32057017364E+03  0.36355198796E+03  0.00000000000E+00 0. -1.
<scales pt_clust_3="34.95651" pt_clust_4="49.78657" pt_clust_5="49.78657" pt_clust_6="160.18994"></scales>
<clustering>
<clus scale="   34.957">  2  3  1 -1</clus>
<clus scale="   49.787">  4  5 -1 -1</clus>
<clus scale="  160.190">  1  6  2 -1</clus>
<clus scale="   34.957">  2  3  1 -1</clus>
</clustering>
</event>
<event>
 6    0  0.1622933E+002  0.1162066E+03  0.7546771E-02  0.1249489E+00
         21   -1    0    0  504  502  0.00000000000E+00  0.00000000000E+00  0.68819824301E+02  0.68819824301E+02  0.00000000000E+00 0.  1.
          2   -1    0    0  503    0 -0.00000000000E+00 -0.00000000000E+00 -0.18488301648E+04  0.18488301648E+04  0.00000000000E+00 0.  1.
         21    1    1    2  503  505 -0.42470056068E+02  0.32667071608E+02 -0.38387640142E+03  0.38759764550E+03  0.00000000000E+00 0.  1.
         21    1    1    2  504  501  0.33881112510E+02 -0.46114152152E+02 -0.96934299964E+02  0.11256421866E+03  0.00000000000E+00 0.  1.
         21    1    1    2  505  502 -0.57218945910E+02 -0.72736303220E+02  0.19300818559E+02  0.94536232071E+02  0.00000000000E+00 0.  1.
          2    1    1    2  501    0  0.65807889467E+02  0.86183383764E+02 -0.13185004577E+04  0.13229518929E+04  0.00000000000E+00 0.  1.
<scales pt_clust_3="53.58025" pt_clust_4="53.54829" pt_clust_5="14000.00000" pt_clust_6="116.20661"></scales>
<clustering>
<clus scale="   53.580">  2  3  1 -1</clus>
<clus scale="   53.548">  1  4  2 -1</clus>
<clus scale="  116.207">  2  6  1 -1</clus>
<clus scale="   53.548">  1  3  2 -1</clus>
</clustering>
</event>
<event>
 6    0  0.1622933E+002  0.9555723E+02  0.7546771E-02  0.1289926E+00
         21   -1    0    0  503  502  0.00000000000E+00  0.00000000000E+00  0.10824254874E+03  0.10824254874E+03  0.00000000000E+00 0.  1.
         -2   -1    0    0    0  501 -0.00000000000E+00 -0.00000000000E+00 -0.39039893191E+03  0.39039893191E+03  0.00000000000E+00 0.  1.
         21    1    1    2  503  504 -0.61800429572E+02 -0.10286342589E+03 -0.18809551665E+03  0.22311454651E+03  0.00000000000E+00 0.  1.
         21    1    1    2  504  501 -0.35449316166E+02  0.70540215325E+01 -0.60756348589E+02  0.70694746129E+02  0.00000000000E+00 0. -1.
         21    1    1    2  505  502  0.45494817099E+02  0.80316786070E+02  0.50428579740E+02  0.10518367821E+03  0.00000000000E+00 0.  1.
         -2    1    1    2    0  505  0.51754928639E+02  0.15492618290E+02 -0.83733097673E+02  0.99648509802E+02  0.00000000000E+00 0.  1.
<scales pt_clust_3="95.55723" pt_clust_4="36.14434" pt_clust_5="14000.00000" pt_clust_6="45.25763"></scales>
<clustering>
<clus scale="   36.144">  2  4  1 -1</clus>
<clus scale="   45.258">  2  6  1 -1</clus>
<clus scale="   95.557">  2  3  1 -1</clus>
<clus scale="   95.557">  1  3  2 -1</clus>
</clustering>
</event>
<event>
 6    0  0.1622933E+002  0.8785962E+02  0.7546771E-02  0.1308119E+00
         21   -1    0    0  505  502  0.00000000000E+00  0.00000000000E+00  0.28442773198E+03  0.28442773198E+03  0.00000000000E+00 0.  1.
          1   -1    0    0  504    0 -0.00000000000E+00 -0.00000000000E+00 -0.30588753083E+03  0.30588753083E+03  0.00000000000E+00 0.  1.
         21    1    1    2  503  502  0.22800851076E+02 -0.31337934785E+02  0.23285002514E+03  0.23605312786E+03  0.00000000000E+00 0.  1.
         21    1    1    2  504  503  0.30760864374E+02 -0.13751175507E+02 -0.21790455828E+02  0.40126669062E+02  0.00000000000E+00 0. -1.
         21    1    1    2  505  501 -0.92076832195E+02  0.86201741268E+02 -0.74765802900E+02  0.14662471998E+03  0.00000000000E+00 0.  1.
          1    1    1    2  501    0  0.38515116745E+02 -0.41112630976E+02 -0.15775356525E+03  0.16751074591E+03  0.00000000000E+00 0.  1.
<scales pt_clust_3="38.92526" pt_clust_4="33.69459" pt_clust_5="87.85962" pt_clust_6="14000.00000"></scales>
<clustering>
<clus scale="   33.695">  2  4  1 -1</clus>
<clus scale="   38.925">  1  3  2 -1</clus>
<clus scale="   87.860">  1  5  2 -1</clus>
<clus scale="   38.925">  1  3  2 -1</clus>
</clustering>
</event>
<event>
 6    0  0.1622933E+002  0.2441211E+03  0.7546771E-02  0.1117078E+00
         21   -1    0    0  501  502  0.00000000000E+00  0.00000000000E+00  0.80157533731E+02  0.80157533731E+02  0.00000000000E+00 0.  1.
          2   -1    0    0  505    0 -0.00000000000E+00 -0.00000000000E+00 -0.16345882055E+04  0.16345882055E+04  0.00000000000E+00 0.  1.
         21    1    1    2  503  504  0.23385016472E+03 -0.11245303087E+03 -0.11809643187E+04  0.12091353546E+04  0.00000000000E+00 0.  1.
         21    1    1    2  504  502 -0.20515576992E+03  0.11672375101E+03 -0.21453882489E+03  0.31896744562E+03  0.00000000000E+00 0.  1.
         21    1    1    2  505  503 -0.39482243005E+02 -0.34648869401E+02 -0.13936166755E+03  0.14893309252E+03  0.00000000000E+00 0.  1.
          2    1    1    2  501    0  0.10787848205E+02  0.30378149268E+02 -0.19565860654E+02  0.37709846525E+02  0.00000000000E+00 0.  1.
<scales pt_clust_3="244.12112" pt_clust_4="14000.00000" pt_clust_5="50.64610" pt_clust_6="32.23677"></scales>
<clustering>
<clus scale="   32.237">  1  6  2 -1</clus>
<clus scale="   50.646">  2  5  1 -1</clus>
<clus scale="  244.121">  2  3  1 -1</clus>
<clus scale="   32.237">  1  3  2 -1</clus>
</clustering>
</event>
<event>
 6    0  0.1622933E+002  0.9441537E+02  0.7546771E-02  0.1292498E+00
          2   -1    0    0  504    0 -0.00000000000E+00  0.00000000000E+00  0.38567535549E+04  0.38567535549E+04  0.00000000000E+00 0. -1.
         21   -1    0    0  503  502  0.00000000000E+00 -0.00000000000E+00 -0.14951221626E+02  0.14951221626E+02  0.00000000000E+00 0. -1.
         21    1    1    2  503  505  0.61093245117E+02 -0.31243428580E+02  0.86607455197E+02  0.11049609823E+03  0.00000000000E+00 0. -1.
         21    1    1    2  504  502  0.36689627249E+02 -0.56117634395E+02  0.12889673357E+04  0.12907099249E+04  0.00000000000E+00 0. -1.
         21    1    1    2  505  501 -0.86000410078E+02  0.39498402834E+02  0.17703021425E+04  0.17728299044E+04  0.00000000000E+00 0. -1.
          2    1    1    2  501    0 -0.11782462289E+02  0.47862660141E+02  0.69592539986E+03  0.69766884897E+03  0.00000000000E+00 0. -1.
<scales pt_clust_3="70.86542" pt_clust_4="67.04713" pt_clust_5="45.02583" pt_clust_6="45.02583"></scales>
<clustering>
<clus scale="   45.026">  5  6 -1 -1</clus>
<clus scale="   67.047">  1  4  2 -1</clus>
<clus scale="   70.865">  2  3  1 -1</clus>
<clus scale="   70.865">  2  3  1 -1</clus>
</clustering>
</event>
<event>
 6    0  0.1622933E+002  0.2641573E+03  0.7546771E-02  0.1104671E+00
         21   -1    0    0  503  502  0.00000000000E+00  0.00000000000E+00  0.72452423402E+02  0.72452423402E+02  0.00000000000E+00 0.  1.
          2   -1    0    0  502    0 -0.00000000000E+00 -0.00000000000E+00 -0.26635079296E+04  0.26635079296E+04  0.00000000000E+00 0. -1.
         21    1    1    2  503  504  0.12149658853E+02 -0.41289198302E+02  0.24931007389E+02  0.49738991105E+02  0.00000000000E+00 0.  1.
         21    1    1    2  504  505  0.19671304064E+03  0.15075235420E+03 -0.54500792351E+03  0.59871189177E+03  0.00000000000E+00 0.  1.
         21    1    1    2  505  501 -0.13495798948E+03 -0.83404449863E+01 -0.11939868339E+04  0.12016188170E+04  0.00000000000E+00 0. -1.
          2    1    1    2  501    0 -0.73904710020E+02 -0.10112271091E+03 -0.87699175617E+03  0.88589065308E+03  0.00000000000E+00 0. -1.
<scales pt_clust_3="43.03966" pt_clust_4="237.99461" pt_clust_5="112.19789" pt_clust_6="112.19789"></scales>
<clustering>
<clus scale="   43.040">  1  3  2 -1</clus>
<clus scale="  112.198">  5  6 -1 -1</clus>
<clus scale="  237.995">  1  4  2 -1</clus>
<clus scale="   43.040">  1  3  2 -1</clus>
</clustering>
</event>
<event>
 6    0  0.1622933E+002  0.8352469E+02  0.7546771E-02  0.1319336E+00
         21   -1    0    0  501  502  0.00000000000E+00  0.00000000000E+00  0.36515899668E+03  0.36515899668E+03  0.00000000000E+00 0.  1.
          2   -1    0    0  504    0 -0.00000000000E+00 -0.00000000000E+00 -0.22373000304E+04  0.22373000304E+04  0.00000000000E+00 0. -1.
         21    1    1    2  503  502 -0.20787152849E+02  0.34406173052E+02  0.35857218952E+03  0.36081838308E+03  0.00000000000E+00 0.  1.
         21    1    1    2  504  505 -0.13262471011E+02  0.27122692782E+02 -0.28712318696E+03  0.28870617952E+03  0.00000000000E+00 0.  1.
         21    1    1    2  505  503 -0.67798243985E+02 -0.23811089661E+02 -0.48349553041E+03  0.48880619656E+03  0.00000000000E+00 0. -1.
          2    1    1    2  501    0  0.10184786785E+03 -0.37717776173E+02 -0.14600945058E+04  0.14641282679E+04  0.00000000000E+00 0. -1.
<scales pt_clust_3="40.21547" pt_clust_4="30.19161" pt_clust_5="83.52469" pt_clust_6="14000.00000"></scales>
<clustering>
<clus scale="   30.192">  2  4  1 -1</clus>
<clus scale="   40.215">  1  3  2 -1</clus>
<clus scale="   83.525">  1  5  2 -1</clus>
<clus scale="   40.215">  1  3  2 -1</clus>
</clustering>
</event>
<event>
 6    0  0.1622933E+002  0.9396130E+02  0.7546771E-02  0.1293533E+00
          2   -1    0    0  503    0 -0.00000000000E+00  0.00000000000E+00  0.19815726265E+04  0.19815726265E+04  0.00000000000E+00 0. -1.
         21   -1    0    0  504  502  0.00000000000E+00 -0.00000000000E+00 -0.33211985714E+02  0.33211985714E+02  0.00000000000E+00 0. -1.
         21    1    1    2  503  505  0.27449332724E+02 -0.52653325140E+02  0.56379138619E+03  0.56690966269E+03  0.00000000000E+00 0. -1.
         21    1    1    2  504  501  0.33911601928E+02  0.76193652134E+02  0.86243817500E+02  0.11997276953E+03  0.00000000000E+00 0. -1.
         21    1    1    2  505  502  0.38030503986E+02 -0.10612758410E+03  0.28689883443E+03  0.30825366914E+03  0.00000000000E+00 0. -1.
          2    1    1    2  501    0 -0.99391438637E+02  0.82587257100E+02  0.10114266027E+04  0.10196485109E+04  0.00000000000E+00 0. -1.
<scales pt_clust_3="59.37877" pt_clust_4="80.78077" pt_clust_5="14000.00000" pt_clust_6="93.96130"></scales>
<clustering>
<clus scale="   59.379">  1  3  2 -1</clus>
<clus scale="   80.781">  2  4  1 -1</clus>
<clus scale="   93.961">  1  6  2 -1</clus>
<clus scale="   80.781">  2  3  1 -1</clus>
</clustering>
</event>
<event>
 6    0  0.1622933E+002  0.1047908E+03  0.7546771E-02  0.1270532E+00
         21   -1    0    0  503  502  0.00000000000E+00  0.00000000000E+00  0.18259736723E+03  0.18259736723E+03  0.00000000000E+00 0.  1.
          1   -1    0    0  505    0 -0.00000000000E+00 -0.00000000000E+00 -0.12009777297E+04  0.12009777297E+04  0.00000000000E+00 0.  1.
         21    1    1    2  503  501  0.72961445808E+02 -0.98634098379E+02 -0.16230070099E+03  0.20345411148E+03  0.00000000000E+00 0. -1.
         21    1    1    2  504  502  0.37052897703E+02  0.61709692297E+02  0.14756998145E+03  0.16418861951E+03  0.00000000000E+00 0.  1.
         21    1    1    2  505  504 -0.95963524894E+02 -0.20651148413E+02 -0.64072408541E+03  0.64819967731E+03  0.00000000000E+00 0.  1.
          1    1    1    2  501    0 -0.14050818617E+02  0.57575554494E+02 -0.36292555752E+03  0.36773268862E+03  0.00000000000E+00 0.  1.
<scales pt_clust_3="104.79077" pt_clust_4="72.39928" pt_clust_5="14000.00000" pt_clust_6="59.26525"></scales>
<clustering>
<clus scale="   59.265">  2  6  1 -1</clus>
<clus scale="   72.399">  1  4  2 -1</clus>
<clus scale="  104.791">  1  3  2 -1</clus>
<clus scale="   72.399">  1  3  2 -1</clus>
</clustering>
</event>
<event>
 6    0  0.1622933E+002  0.1646515E+03  0.7546771E-02  0.1183543E+00
         21   -1    0    0  503  502  0.00000000000E+00  0.00000000000E+00  0.11056547171E+04  0.11056547171E+04  0.00000000000E+00 0. -1.
          2   -1    0    0  505    0 -0.00000000000E+00 -0.00000000000E+00 -0.64729640953E+03  0.64729640953E+03  0.00000000000E+00 0. -1.
         21    1    1    2  503  504 -0.42527140507E+02 -0.69340058177E+02  0.92289014876E+03  0.92646793147E+03  0.00000000000E+00 0. -1.
         21    1    1    2  504  501 -0.13062929845E+02 -0.94202683292E+02  0.15355295207E+03  0.18061919822E+03  0.00000000000E+00 0.  1.
         21    1    1    2  505  502 -0.16880773814E+02  0.27679055656E+02 -0.13465143758E+03  0.13849945953E+03  0.00000000000E+00 0.  1.
          2    1    1    2  501    0  0.72470844166E+02  0.13586368581E+03 -0.48343335571E+03  0.50736453738E+03  0.00000000000E+00 0. -1.
<scales pt_clust_3="81.29082" pt_clust_4="164.65155" pt_clust_5="32.42053" pt_clust_6="14000.00000"></scales>
<clustering>
<clus scale="   32.421">  2  5  1 -1</clus>
<clus scale="   81.291">  1  3  2 -1</clus>
<clus scale="  164.652">  1  4  2 -1</clus>
<clus scale="   81.291">  1  3  2 -1</clus>
</clustering>
</event>
<event>
 6    0  0.1622933E+002  0.7608089E+02  0.7546771E-02  0.1340556E+00
          2   -1    0    0  503    0 -0.00000000000E+00  0.00000000000E+00  0.61046552503E+03  0.61046552503E+03  0.00000000000E+00 0.  1.
         21   -1    0    0  505  502  0.00000000000E+00 -0.00000000000E+00 -0.19381678521E+03  0.19381678521E+03  0.00000000000E+00 0. -1.
         21    1    1    2  503  502  0.43630417972E+02 -0.68755887759E+02  0.13571226944E+03  0.15826814446E+03  0.00000000000E+00 0.  1.
         21    1    1    2  504  501 -0.64444359282E+00  0.83279204385E+02  0.69405414877E+02  0.10841103636E+03  0.00000000000E+00 0.  1.
         21    1    1    2  505  504  0.35280935291E+02 -0.97201817050E+01 -0.15680198936E+03  0.16101580728E+03  0.00000000000E+00 0. -1.
          2    1    1    2  501    0 -0.78266909670E+02 -0.48031349207E+01  0.36833304487E+03  0.37658732214E+03  0.00000000000E+00 0.  1.
<scales pt_clust_3="76.08089" pt_clust_4="14000.00000" pt_clust_5="36.59544" pt_clust_6="74.33437"></scales>
<clustering>
<clus scale="   36.595">  2  5  1 -1</clus>
<clus scale="   74.334">  1  6  2 -1</clus>
<clus scale="   76.081">  1  3  2 -1</clus>
<clus scale="   36.595">  2  3  1 -1</clus>
</clustering>
</event>
<event>
 6    0  0.1622933E+002  0.1085741E+03  0.7546771E-02  0.1263233E+00
         21   -1    0    0  503  502  0.00000000000E+00  0.00000000000E+00  0.50516204531E+03  0.50516204531E+03  0.00000000000E+00 0.  1.
          1   -1    0    0  502    0 -0.00000000000E+00 -0.00000000000E+00 -0.25495255128E+03  0.25495255128E+03  0.00000000000E+00 0.  1.
         21    1    1    2  503  504 -0.30826964835E+01  0.54993338807E+02  0.35542445378E+03  0.35966694688E+03  0.00000000000E+00 0.  1.
         21    1    1    2  504  505 -0.44040631955E+02 -0.43220796507E+02  0.37488860021E+02  0.72201309818E+02  0.00000000000E+00 0. -1.
         21    1    1    2  505  501  0.77187800695E+02 -0.11155849596E+03  0.17856405911E+02  0.13682874636E+03  0.00000000000E+00 0.  1.
          1    1    1    2  501    0 -0.30064472257E+02  0.99785953665E+02 -0.16056022568E+03  0.19141759353E+03  0.00000000000E+00 0.  1.
<scales pt_clust_3="55.07967" pt_clust_4="50.60727" pt_clust_5="14000.00000" pt_clust_6="108.57408"></scales>
<clustering>
<clus scale="   55.080">  1  3  2 -1</clus>
<clus scale="   50.607">  1  4  2 -1</clus>
<clus scale="  108.574">  2  6  1 -1</clus>
<clus scale="   55.080">  1  3  2 -1</clus>
</clustering>
</event>
<event>
 6    0  0.1622933E+002  0.1771474E+03  0.7546771E-02  0.1170593E+00
          2   -1    0    0  504    0 -0.00000000000E+00  0.00000000000E+00  0.16947464596E+03  0.16947464596E+03  0.00000000000E+00 0. -1.
         21   -1    0    0  505  502  0.00000000000E+00 -0.00000000000E+00 -0.75357660215E+03  0.75357660215E+03  0.00000000000E+00 0. -1.
         21    1    1    2  503  501 -0.42139192718E+02 -0.20621043688E+02 -0.67276143653E+02  0.82018403487E+02  0.00000000000E+00 0. -1.
         21    1    1    2  504  502  0.98839488069E+01 -0.35427406696E+02  0.12282095187E+03  0.12820990526E+03  0.00000000000E+00 0. -1.
         21    1    1    2  505  503  0.38133928261E+02  0.16523406952E+03 -0.53591167354E+03  0.56210125071E+03  0.00000000000E+00 0. -1.
          2    1    1    2  501    0 -0.58786843494E+01 -0.10918561914E+03 -0.10373509087E+03  0.15072168866E+03  0.00000000000E+00 0. -1.
<scales pt_clust_3="46.68657" pt_clust_4="36.78034" pt_clust_5="160.04238" pt_clust_6="46.68657"></scales>
<clustering>
<clus scale="   36.780">  1  4  2 -1</clus>
<clus scale="   46.687">  3  6 -1 -1</clus>
<clus scale="  160.042">  2  5  1 -1</clus>
<clus scale="  160.042">  2  3  1 -1</clus>
</clustering>
</event>
<event>
 6    0  0.1622933E+002  0.9932846E+02  0.7546771E-02  0.1281714E+00
         21   -1    0    0  504  502  0.00000000000E+00  0.00000000000E+00  0.61452539699E+03  0.61452539699E+03  0.00000000000E+00 0. -1.
          2   -1    0    0  505    0 -0.00000000000E+00 -0.00000000000E+00 -0.17774245789E+03  0.17774245789E+03  0.00000000000E+00 0. -1.
         21    1    1    2  503  501  0.14220198612E+03  0.47788201946E+02  0.65350655989E+02  0.16363320366E+03  0.00000000000E+00 0. -1.
         21    1    1    2  504  503 -0.18211581307E+02  0.45482817049E+02  0.56609788194E+02  0.74866657865E+02  0.00000000000E+00 0. -1.
         21    1    1    2  505  502 -0.73749679268E+02 -0.37558899541E+02  0.41804774583E+03  0.42616147634E+03  0.00000000000E+00 0. -1.
          2    1    1    2  501    0 -0.50240725545E+02 -0.55712119453E+02 -0.10322525092E+03  0.12760651701E+03  0.00000000000E+00 0. -1.
<scales pt_clust_3="14000.00000" pt_clust_4="48.99335" pt_clust_5="99.32846" pt_clust_6="74.54682"></scales>
<clustering>
<clus scale="   48.993">  1  4  2 -1</clus>
<clus scale="   74.547">  2  6  1 -1</clus>
<clus scale="   99.328">  1  5  2 -1</clus>
<clus scale="   48.993">  1  3  2 -1</clus>
</clustering>
</event>
<event>
 6    0  0.1622933E+002  0.6701932E+02  0.7546771E-02  0.1370533E+00
         21   -1    0    0  501  502  0.00000000000E+00  0.00000000000E+00  0.14908363952E+03  0.14908363952E+03  0.00000000000E+00 0.  1.
          2   -1    0    0  504    0 -0.00000000000E+00 -0.00000000000E+00 -0.21565732026E+04  0.21565732026E+04  0.00000000000E+00 0. -1.
         21    1    1    2  503  505  0.62406392979E+02 -0.33345119449E+02 -0.13711710748E+03  0.15429697352E+03  0.00000000000E+00 0. -1.
         21    1    1    2  504  503  0.20028786080E+02 -0.48889521375E+02 -0.10999784272E+04  0.11012465109E+04  0.00000000000E+00 0. -1.
         21    1    1    2  505  502  0.19336428064E+01  0.56086817234E+02  0.13198551102E+03  0.14342121587E+03  0.00000000000E+00 0.  1.
          2    1    1    2  501    0 -0.84368821865E+02  0.26147823590E+02 -0.90237953950E+03  0.90669214185E+03  0.00000000000E+00 0. -1.
<scales pt_clust_3="14000.00000" pt_clust_4="52.83311" pt_clust_5="55.85943" pt_clust_6="67.01932"></scales>
<clustering>
<clus scale="   52.833">  2  4  1 -1</clus>
<clus scale="   55.859">  1  5  2 -1</clus>
<clus scale="   67.019">  2  6  1 -1</clus>
<clus scale="   55.859">  1  3  2 -1</clus>
</clustering>
</event>
<event>
 6    0  0.1622933E+002  0.1242853E+03  0.7546771E-02  0.1236190E+00
          1   -1    0    0  505    0 -0.00000000000E+00  0.00000000000E+00  0.69542601617E+03  0.69542601617E+03  0.00000000000E+00 0. -1.
         21   -1    0    0  504  502  0.00000000000E+00 -0.00000000000E+00 -0.12043583650E+03  0.12043583650E+03  0.00000000000E+00 0. -1.
         21    1    1    2  503  501  0.71866380419E+02 -0.41575734252E+02  0.18116817687E+03  0.19928679491E+03  0.00000000000E+00 0.  1.
         21    1    1    2  504  503 -0.10356523834E+03  0.82689965163E+02  0.98400504473E+01  0.13289174362E+03  0.00000000000E+00 0. -1.
         21    1    1    2  505  502  0.54822528304E+01  0.32949830350E+02 -0.40211473393E+02  0.52275319307E+02  0.00000000000E+00 0. -1.
          1    1    1    2  501    0  0.26216605087E+02 -0.74064061261E+02  0.42419342575E+03  0.43140799483E+03  0.00000000000E+00 0. -1.
<scales pt_clust_3="124.28529" pt_clust_4="14000.00000" pt_clust_5="33.40279" pt_clust_6="77.14987"></scales>
<clustering>
<clus scale="   33.403">  2  5  1 -1</clus>
<clus scale="   77.150">  1  6  2 -1</clus>
<clus scale="  124.285">  1  3  2 -1</clus>
<clus scale="   33.403">  2  3  1 -1</clus>
</clustering>
</event>
<event>
 6    0  0.1622933E+002  0.7523461E+02  0.7546771E-02  0.1343146E+00
         21   -1    0    0  503  502  0.00000000000E+00  0.00000000000E+00  0.71909360884E+02  0.71909360884E+02  0.00000000000E+00 0.  1.
          1   -1    0    0  505    0 -0.00000000000E+00 -0.00000000000E+00 -0.17775831695E+04  0.17775831695E+04  0.00000000000E+00 0. -1.
         21    1    1    2  503  501 -0.80518241617E+01 -0.74578312583E+02  0.41141471648E+02  0.85553359194E+02  0.00000000000E+00 0.  1.
         21    1    1    2  504  502  0.29639708713E+01 -0.50213002003E+02 -0.14979833269E+03  0.15801794573E+03  0.00000000000E+00 0.  1.
         21    1    1    2  505  504 -0.11346510051E+02  0.35892055671E+02 -0.11203298141E+03  0.11818786687E+03  0.00000000000E+00 0.  1.
          1    1    1    2  501    0  0.16434363341E+02  0.88899258914E+02 -0.14849839661E+04  0.14877333586E+04  0.00000000000E+00 0. -1.
<scales pt_clust_3="14000.00000" pt_clust_4="46.92922" pt_clust_5="37.64283" pt_clust_6="75.23461"></scales>
<clustering>
<clus scale="   37.643">  2  5  1 -1</clus>
<clus scale="   46.929">  2  4  1 -1</clus>
<clus scale="   75.235">  2  6  1 -1</clus>
<clus scale="   75.235">  1  3  2 -1</clus>
</clustering>
</event>
<event>
 6    0  0.1622933E+002  0.7202716E+02  0.7546771E-02  0.1353332E+00
         21   -1    0    0  504  502  0.00000000000E+00  0.00000000000E+00  0.39359729621E+02  0.39359729621E+02  0.00000000000E+00 0.  1.
          1   -1    0    0  505    0 -0.00000000000E+00 -0.00000000000E+00 -0.21483252312E+04  0.21483252312E+04  0.00000000000E+00 0.  1.
         21    1    1    2  503  502  0.51406852875E+02  0.10105102738E+02 -0.26495184037E+03  0.27008194190E+03  0.00000000000E+00 0. -1.
         21    1    1    2  504  501  0.63268107834E+02 -0.32345295292E+02 -0.59398751323E+01  0.71304654217E+02  0.00000000000E+00 0.  1.
         21    1    1    2  505  503 -0.13337938166E+02 -0.31878618044E+02 -0.13494452755E+03  0.13929886000E+03  0.00000000000E+00 0.  1.
          1    1    1    2  501    0 -0.10133702254E+03  0.54118810598E+02 -0.17031292585E+04  0.17069995047E+04  0.00000000000E+00 0.  1.
<scales pt_clust_3="49.97803" pt_clust_4="14000.00000" pt_clust_5="34.55643" pt_clust_6="72.02716"></scales>
<clustering>
<clus scale="   34.556">  2  5  1 -1</clus>
<clus scale="   49.978">  2  3  1 -1</clus>
<clus scale="   72.027">  2  6  1 -1</clus>
<clus scale="   72.027">  1  3  2 -1</clus>
</clustering>
</event>
<event>
 6    0  0.1622933E+002  0.1161192E+03  0.7546771E-02  0.1249640E+00
         21   -1    0    0  505  502  0.00000000000E+00  0.00000000000E+00  0.18486894822E+03  0.18486894822E+03  0.00000000000E+00 0.  1.
          2   -1    0    0  503    0 -0.00000000000E+00 -0.00000000000E+00 -0.32191629436E+04  0.32191629436E+04  0.00000000000E+00 0.  1.
         21    1    1    2  503  502  0.20186660636E+03  0.48194390352E+02 -0.19317608198E+04  0.19428774256E+04  0.00000000000E+00 0.  1.
         21    1    1    2  504  501 -0.93313776823E+02  0.49281538540E+02 -0.10013179214E+03  0.14547338857E+03  0.00000000000E+00 0.  1.
         21    1    1    2  505  504 -0.20573299447E+02 -0.43087614891E+02  0.15063166634E+03  0.15801804363E+03  0.00000000000E+00 0.  1.
          2    1    1    2  501    0 -0.87979530089E+02 -0.54388314001E+02 -0.11530330497E+04  0.11576630340E+04  0.00000000000E+00 0.  1.
<scales pt_clust_3="116.11916" pt_clust_4="14000.00000" pt_clust_5="47.74728" pt_clust_6="106.49499"></scales>
<clustering>
<clus scale="   47.747">  1  5  2 -1</clus>
<clus scale="  106.495">  2  6  1 -1</clus>
<clus scale="  116.119">  2  3  1 -1</clus>
<clus scale="   47.747">  1  3  2 -1</clus>
</clustering>
</event>
<event>
 6    0  0.1622933E+002  0.1565264E+03  0.7546771E-02  0.1192675E+00
         21   -1    0    0  503  502  0.00000000000E+00  0.00000000000E+00  0.83410477138E+03  0.83410477138E+03  0.00000000000E+00 0.  1.
          1   -1    0    0  505    0 -0.00000000000E+00 -0.00000000000E+00 -0.13762044150E+03  0.13762044150E+03  0.00000000000E+00 0.  1.
         21    1    1    2  503  501 -0.63427109655E+02  0.54034523941E+02  0.13801004718E+03  0.16121259609E+03  0.00000000000E+00 0.  1.
         21    1    1    2  504  502 -0.95046235453E+02  0.12703516404E+02  0.59425373894E+03  0.60194075493E+03  0.00000000000E+00 0.  1.
         21    1    1    2  505  504  0.41108634728E+02  0.66641333810E+01  0.33804815618E+02  0.53638568977E+02  0.00000000000E+00 0. -1.
          1    1    1    2  501    0  0.11736471038E+03 -0.73402173726E+02 -0.69584271856E+02  0.15493329287E+03  0.00000000000E+00 0.  1.
<scales pt_clust_3="80.92420" pt_clust_4="14000.00000" pt_clust_5="41.64529" pt_clust_6="156.52643"></scales>
<clustering>
<clus scale="   41.645">  2  5  1 -1</clus>
<clus scale="   80.924">  1  3  2 -1</clus>
<clus scale="  156.526">  2  6  1 -1</clus>
<clus scale="   80.924">  1  3  2 -1</clus>
</clustering>
</event>
<event>
 6    0  0.1622933E+002  0.8422213E+02  0.7546771E-02  0.1317479E+00
         -2   -1    0    0    0  501 -0.00000000000E+00  0.00000000000E+00  0.35996735595E+03  0.35996735595E+03  0.00000000000E+00 0. -1.
         21   -1    0    0  504  502  0.00000000000E+00 -0.00000000000E+00 -0.13899462451E+03  0.13899462451E+03  0.00000000000E+00 0. -1.
         21    1    1    2  503  502 -0.41770996337E+02 -0.96899633358E+01 -0.10286015678E+03  0.11144022334E+03  0.00000000000E+00 0. -1.
         21    1    1    2  504  501 -0.42658446808E+01  0.81581221237E+02  0.10606321993E+03  0.13387718145E+03  0.00000000000E+00 0. -1.
         21    1    1    2  505  503  0.41167139503E+02  0.14284639120E+02  0.67250936584E+02  0.80134092377E+02  0.00000000000E+00 0. -1.
         -2    1    1    2    0  505  0.48697015148E+01 -0.86175897021E+02  0.15051873171E+03  0.17351048330E+03  0.00000000000E+00 0. -1.
<scales pt_clust_3="42.88020" pt_clust_4="14000.00000" pt_clust_5="34.96190" pt_clust_6="84.22213"></scales>
<clustering>
<clus scale="   42.880">  2  3  1 -1</clus>
<clus scale="   34.962">  2  5  1 -1</clus>
<clus scale="   84.222">  1  6  2 -1</clus>
<clus scale="   42.880">  2  3  1 -1</clus>
</clustering>
</event>
<event>
 6    0  0.1622933E+002  0.1237356E+03  0.7546771E-02  0.1237059E+00
          4   -1    0    0  504    0 -0.00000000000E+00  0.00000000000E+00  0.76867406247E+03  0.76867406247E+03  0.00000000000E+00 0.  1.
         21   -1    0    0  505  502  0.00000000000E+00 -0.00000000000E+00 -0.25961408637E+03  0.25961408637E+03  0.00000000000E+00 0. -1.
         21    1    1    2  503  502  0.39199028574E+02  0.21562403695E+02  0.25728420629E+01  0.44812058763E+02  0.00000000000E+00 0.  1.
         21    1    1    2  504  503  0.14081509794E+02 -0.51935945735E+02  0.22626791105E+03  0.23257858660E+03  0.00000000000E+00 0.  1.
         21    1    1    2  505  501  0.53015380699E+02  0.66231659401E+02 -0.22128993778E+03  0.23699472538E+03  0.00000000000E+00 0. -1.
          4    1    1    2  501    0 -0.10629591907E+03 -0.35858117362E+02  0.50150916077E+03  0.51390277809E+03  0.00000000000E+00 0.  1.
<scales pt_clust_3="44.73814" pt_clust_4="53.67453" pt_clust_5="14000.00000" pt_clust_6="123.73556"></scales>
<clustering>
<clus scale="   44.738">  2  3  1 -1</clus>
<clus scale="   53.675">  1  4  2 -1</clus>
<clus scale="  123.736">  1  6  2 -1</clus>
<clus scale="   44.738">  2  3  1 -1</clus>
</clustering>
</event>
<event>
 6    0  0.1622933E+002  0.9416807E+02  0.7546771E-02  0.1293061E+00
         -1   -1    0    0    0  501 -0.00000000000E+00  0.00000000000E+00  0.42306183666E+03  0.42306183666E+03  0.00000000000E+00 0.  1.
         21   -1    0    0  503  502  0.00000000000E+00 -0.00000000000E+00 -0.15739079297E+04  0.15739079297E+04  0.00000000000E+00 0.  1.
         21    1    1    2  503  504 -0.27971093214E+02  0.26718686859E+02 -0.15141612848E+04  0.15146552963E+04  0.00000000000E+00 0.  1.
         21    1    1    2  504  501  0.12640505936E+03 -0.58833068301E+02  0.12318564327E+03  0.18604911090E+03  0.00000000000E+00 0.  1.
         21    1    1    2  505  502 -0.55123471585E+02  0.31889644464E+02  0.12940336857E+02  0.64984604805E+02  0.00000000000E+00 0.  1.
         -1    1    1    2    0  505 -0.43310494563E+02  0.22473697807E+00  0.22718921164E+03  0.23128075435E+03  0.00000000000E+00 0.  1.
<scales pt_clust_3="38.68165" pt_clust_4="94.16807" pt_clust_5="14000.00000" pt_clust_6="44.28699"></scales>
<clustering>
<clus scale="   38.682">  2  3  1 -1</clus>
<clus scale="   44.287">  1  6  2 -1</clus>
<clus scale="   94.168">  1  4  2 -1</clus>
<clus scale="   38.682">  2  3  1 -1</clus>
</clustering>
</event>
<event>
 6    0  0.1622933E+002  0.9023748E+02  0.7546771E-02  0.1302278E+00
         21   -1    0    0  504  502  0.00000000000E+00  0.00000000000E+00  0.69463850093E+03  0.69463850093E+03  0.00000000000E+00 0.  1.
         -1   -1    0    0    0  501 -0.00000000000E+00 -0.00000000000E+00 -0.27362244445E+03  0.27362244445E+03  0.00000000000E+00 0.  1.
         21    1    1    2  503  501  0.13901770887E+02  0.60232092531E+02 -0.18158768962E+03  0.19182088840E+03  0.00000000000E+00 0.  1.
         21    1    1    2  504  503  0.27666529086E+02 -0.69513568620E+02  0.96122242824E+02  0.12180746537E+03  0.00000000000E+00 0.  1.
         21    1    1    2  505  502  0.37203982361E+02 -0.17596408679E+02  0.55617445479E+03  0.55769507265E+03  0.00000000000E+00 0.  1.
         -1    1    1    2    0  505 -0.78772282334E+02  0.26877884768E+02 -0.49692951502E+02  0.96937518963E+02  0.00000000000E+00 0.  1.
<scales pt_clust_3="61.50752" pt_clust_4="90.23748" pt_clust_5="41.15544" pt_clust_6="14000.00000"></scales>
<clustering>
<clus scale="   41.155">  1  5  2 -1</clus>
<clus scale="   61.508">  2  3  1 -1</clus>
<clus scale="   90.237">  1  4  2 -1</clus>
<clus scale="   41.155">  1  3  2 -1</clus>
</clustering>
</event>
<event>
 6    0  0.1622933E+002  0.1039480E+03  0.7546771E-02  0.1272206E+00
         -2   -1    0    0    0  501 -0.00000000000E+00  0.00000000000E+00  0.35307317228E+02  0.35307317228E+02  0.00000000000E+00 0.  1.
         21   -1    0    0  503  502  0.00000000000E+00 -0.00000000000E+00 -0.20277262150E+04  0.20277262150E+04  0.00000000000E+00 0. -1.
         21    1    1    2  503  504 -0.74880795118E+01  0.92859289873E+02 -0.36298001940E+03  0.37474446431E+03  0.00000000000E+00 0.  1.
         21    1    1    2  504  501 -0.20105330842E+02  0.34791437644E+02 -0.30354557766E+02  0.50359384813E+02  0.00000000000E+00 0.  1.
         21    1    1    2  505  502 -0.68903550378E+02 -0.92167365322E+02 -0.14622630522E+04  0.14667841546E+04  0.00000000000E+00 0. -1.
         -2    1    1    2    0  505  0.96496960732E+02 -0.35483362195E+02 -0.13682126841E+03  0.17114552846E+03  0.00000000000E+00 0.  1.
<scales pt_clust_3="14000.00000" pt_clust_4="40.18294" pt_clust_5="103.94802" pt_clust_6="83.70959"></scales>
<clustering>
<clus scale="   40.183">  1  4  2 -1</clus>
<clus scale="   83.710">  1  6  2 -1</clus>
<clus scale="  103.948">  2  5  1 -1</clus>
<clus scale="  103.948">  2  3  1 -1</clus>
</clustering>
</event>
<event>
 6    0  0.1622933E+002  0.9795583E+02  0.7546771E-02  0.1284654E+00
          2   -1    0    0  504    0 -0.00000000000E+00  0.00000000000E+00  0.13130890503E+04  0.13130890503E+04  0.00000000000E+00 0.  1.
         21   -1    0    0  503  502  0.00000000000E+00 -0.00000000000E+00 -0.82041958742E+02  0.82041958742E+02  0.00000000000E+00 0. -1.
         21    1    1    2  503  505 -0.72520708463E+01 -0.10129953976E+03 -0.32786387041E+02  0.10671989722E+03  0.00000000000E+00 0. -1.
         21    1    1    2  504  502  0.45198810762E+02 -0.29888797940E+01  0.84728817404E+03  0.84849815307E+03  0.00000000000E+00 0.  1.
         21    1    1    2  505  501 -0.54524491004E+02  0.78350822326E+02  0.20493605065E+03  0.22607643914E+03  0.00000000000E+00 0. -1.
          2    1    1    2  501    0  0.16577751089E+02  0.25937597225E+02  0.21160925390E+03  0.21383651960E+03  0.00000000000E+00 0.  1.
<scales pt_clust_3="14000.00000" pt_clust_4="60.41333" pt_clust_5="97.95583" pt_clust_6="30.78280"></scales>
<clustering>
<clus scale="   30.783">  1  6  2 -1</clus>
<clus scale="   60.413">  1  4  2 -1</clus>
<clus scale="   97.956">  1  5  2 -1</clus>
<clus scale="   97.956">  2  3  1 -1</clus>
</clustering>
</event>
<event>
 6    0  0.1666674E+002  0.1442258E+03  0.7546771E-02  0.1207753E+00
         21   -1    0    0  501  502  0.00000000000E+00  0.00000000000E+00  0.19464991559E+04  0.19464991559E+04  0.00000000000E+00 0. -1.
          1   -1    0    0  505    0 -0.00000000000E+00 -0.00000000000E+00 -0.43912842851E+03  0.43912842851E+03  0.00000000000E+00 0.  1.
         21    1    1    2  503  502 -0.11422168244E+03 -0.88578741186E+02  0.19032279437E+04  0.19087088284E+04  0.00000000000E+00 0. -1.
         21    1    1    2  504  503  0.43125649425E+02 -0.29621768798E+02 -0.58166323729E+02  0.78234212728E+02  0.00000000000E+00 0. -1.
         21    1    1    2  505  504  0.10978822708E+02  0.28122458476E+02  0.12091425192E+02  0.32520912994E+02  0.00000000000E+00 0. -1.
          1    1    1    2  501    0  0.60117210304E+02  0.90078051508E+02 -0.34978231774E+03  0.36616363028E+03  0.00000000000E+00 0.  1.
<scales pt_clust_3="14000.00000" pt_clust_4="51.43896" pt_clust_5="30.18952" pt_clust_6="144.22577"></scales>
<clustering>
<clus scale="   30.190">  2  5  1 -1</clus>
<clus scale="   51.439">  2  4  1 -1</clus>
<clus scale="  144.226">  2  6  1 -1</clus>
<clus scale="  144.226">  1  3  2 -1</clus>
</clustering>
</event>
<event>
 6    0  0.1622933E+002  0.1305832E+03  0.7546771E-02  0.1226593E+00
          2   -1    0    0  505    0 -0.00000000000E+00  0.00000000000E+00  0.20658071999E+04  0.20658071999E+04  0.00000000000E+00 0.  1.
         21   -1    0    0  503  502  0.00000000000E+00 -0.00000000000E+00 -0.52506518211E+02  0.52506518211E+02  0.00000000000E+00 0. -1.
         21    1    1    2  503  501  0.11134678167E+03 -0.36138719513E+02  0.40592736215E+02  0.12390271615E+03  0.00000000000E+00 0. -1.
         21    1    1    2  504  502 -0.37502149263E+01 -0.42228623933E+02  0.91978262021E+02  0.10127843539E+03  0.00000000000E+00 0.  1.
         21    1    1    2  505  504 -0.34363104456E+02 -0.49232966149E+02  0.32810336380E+03  0.33355138321E+03  0.00000000000E+00 0.  1.
          2    1    1    2  501    0 -0.73233462287E+02  0.12760030960E+03  0.15526263196E+04  0.15595811833E+04  0.00000000000E+00 0.  1.
<scales pt_clust_3="14000.00000" pt_clust_4="42.39482" pt_clust_5="62.14404" pt_clust_6="130.58319"></scales>
<clustering>
<clus scale="   42.395">  2  4  1 -1</clus>
<clus scale="   62.144">  1  5  2 -1</clus>
<clus scale="  130.583">  1  6  2 -1</clus>
<clus scale="   42.395">  2  3  1 -1</clus>
</clustering>
</event>
<event>
 6    0  0.1622933E+002  0.1387159E+03  0.7546771E-02  0.1215067E+00
         21   -1    0    0  503  502  0.00000000000E+00  0.00000000000E+00  0.31400441819E+03  0.31400441819E+03  0.00000000000E+00 0.  1.
          2   -1    0    0  504    0 -0.00000000000E+00 -0.00000000000E+00 -0.19542203455E+04  0.19542203455E+04  0.00000000000E+00 0.  1.
         21    1    1    2  503  501 -0.68697268239E+02 -0.27834068402E+02 -0.58570803995E+03  0.59037950345E+03  0.00000000000E+00 0.  1.
         21    1    1    2  504  505  0.29191421283E+02  0.36307188620E+02 -0.30904944654E+03  0.31254105559E+03  0.00000000000E+00 0. -1.
         21    1    1    2  505  502  0.94281399914E+02  0.82248317181E+02  0.29449220557E+03  0.31996785337E+03  0.00000000000E+00 0.  1.
          2    1    1    2  501    0 -0.54775552958E+02 -0.90721437399E+02 -0.10399506464E+04  0.10453363513E+04  0.00000000000E+00 0.  1.
<scales pt_clust_3="52.34000" pt_clust_4="46.58703" pt_clust_5="125.47053" pt_clust_6="52.34000"></scales>
<clustering>
<clus scale="   46.587">  2  4  1 -1</clus>
<clus scale="   52.340">  3  6 -1 -1</clus>
<clus scale="  125.471">  1  5  2 -1</clus>
<clus scale="  125.471">  1  3  2 -1</clus>
</clustering>
</event>
<event>
 6    0  0.1622933E+002  0.1011895E+03  0.7546771E-02  0.1277814E+00
         21   -1    0    0  501  502  0.00000000000E+00  0.00000000000E+00  0.24062464171E+02  0.24062464171E+02  0.00000000000E+00 0. -1.
          2   -1    0    0  504    0 -0.00000000000E+00 -0.00000000000E+00 -0.16603503523E+04  0.16603503523E+04  0.00000000000E+00 0.  1.
         21    1    1    2  503  502  0.26121691046E+02  0.10798939882E+03 -0.13920605870E+03  0.17810777574E+03  0.00000000000E+00 0. -1.
         21    1    1    2  504  505 -0.23241512029E+02 -0.32539811870E+02 -0.60533228424E+03  0.60665161467E+03  0.00000000000E+00 0.  1.
         21    1    1    2  505  503 -0.39278553883E+02 -0.78155587767E+01 -0.22989750099E+03  0.23335969814E+03  0.00000000000E+00 0. -1.
          2    1    1    2  501    0  0.36398374867E+02 -0.67634028170E+02 -0.66185204416E+03  0.66629372789E+03  0.00000000000E+00 0.  1.
<scales pt_clust_3="14000.00000" pt_clust_4="39.98759" pt_clust_5="46.83909" pt_clust_6="101.18947"></scales>
<clustering>
<clus scale="   39.988">  2  4  1 -1</clus>
<clus scale="   46.839">  2  5  1 -1</clus>
<clus scale="  101.189">  2  6  1 -1</clus>
<clus scale="  101.189">  1  3  2 -1</clus>
</clustering>
</event>
<event>
 6    0  0.1622933E+002  0.1875259E+03  0.7546771E-02  0.1160712E+00
         21   -1    0    0  504  502  0.00000000000E+00  0.00000000000E+00  0.14796788418E+03  0.14796788418E+03  0.00000000000E+00 0.  1.
          1   -1    0    0  503    0 -0.00000000000E+00 -0.00000000000E+00 -0.13129693947E+04  0.13129693947E+04  0.00000000000E+00 0. -1.
         21    1    1    2  503  505  0.29747567141E+02  0.33373755156E+02 -0.23635903793E+03  0.24055003657E+03  0.00000000000E+00 0.  1.
         21    1    1    2  504  501  0.98875024162E+02 -0.87399697569E+02  0.79221203843E+02  0.15391873400E+03  0.00000000000E+00 0.  1.
         21    1    1    2  505  502  0.83485544326E+02  0.27518151163E+02 -0.97197554359E+02  0.13105132326E+03  0.00000000000E+00 0.  1.
          1    1    1    2  501    0 -0.21210813563E+03  0.26507791251E+02 -0.91066612209E+03  0.93541718507E+03  0.00000000000E+00 0. -1.
<scales pt_clust_3="44.70711" pt_clust_4="14000.00000" pt_clust_5="92.04488" pt_clust_6="187.52591"></scales>
<clustering>
<clus scale="   44.707">  2  3  1 -1</clus>
<clus scale="   92.045">  1  5  2 -1</clus>
<clus scale="  187.526">  2  6  1 -1</clus>
<clus scale="   92.045">  1  3  2 -1</clus>
</clustering>
</event>
<event>
 6    0  0.1622933E+002  0.1074805E+03  0.7546771E-02  0.1265308E+00
         21   -1    0    0  503  502  0.00000000000E+00  0.00000000000E+00  0.32797428629E+03  0.32797428629E+03  0.00000000000E+00 0.  1.
         -3   -1    0    0    0  501 -0.00000000000E+00 -0.00000000000E+00 -0.42027834984E+03  0.42027834984E+03  0.00000000000E+00 0.  1.
         21    1    1    2  503  505 -0.11749705213E+03  0.32717407833E+02  0.23830552627E+03  0.26770414619E+03  0.00000000000E+00 0.  1.
         21    1    1    2  504  502  0.46538360578E+02  0.31607996240E+02  0.61206140104E+01  0.56589277672E+02  0.00000000000E+00 0. -1.
         21    1    1    2  505  501 -0.65643817829E+02 -0.83096143308E+02 -0.21652424504E+03  0.24103283706E+03  0.00000000000E+00 0.  1.
         -3    1    1    2    0  504  0.13660250938E+03  0.18770739236E+02 -0.12020595879E+03  0.18292637522E+03  0.00000000000E+00 0.  1.
<scales pt_clust_3="98.05373" pt_clust_4="56.25731" pt_clust_5="107.48050" pt_clust_6="14000.00000"></scales>
<clustering>
<clus scale="   56.257">  1  4  2 -1</clus>
<clus scale="   98.054">  1  3  2 -1</clus>
<clus scale="  107.481">  2  5  1 -1</clus>
<clus scale="   56.257">  1  3  2 -1</clus>
</clustering>
</event>
<event>
 6    0  0.1622933E+002  0.6719033E+02  0.7546771E-02  0.1369917E+00
         21   -1    0    0  504  502  0.00000000000E+00  0.00000000000E+00  0.80522968875E+03  0.80522968875E+03  0.00000000000E+00 0.  1.
         -1   -1    0    0    0  501 -0.00000000000E+00 -0.00000000000E+00 -0.59760262110E+03  0.59760262110E+03  0.00000000000E+00 0.  1.
         21    1    1    2  503  502  0.24354362618E+01  0.66961729058E+02  0.77318489069E+03  0.77608290775E+03  0.00000000000E+00 0.  1.
         21    1    1    2  504  505 -0.24305707503E+02  0.20702497133E+02  0.70852634280E+01  0.32704155128E+02  0.00000000000E+00 0. -1.
         21    1    1    2  505  501 -0.69246200677E+01  0.30406568391E+02 -0.19070228456E+03  0.19323527396E+03  0.00000000000E+00 0.  1.
         -1    1    1    2    0  503  0.28794891309E+02 -0.11807079458E+03 -0.38194080191E+03  0.40080997301E+03  0.00000000000E+00 0.  1.
<scales pt_clust_3="14000.00000" pt_clust_4="32.72182" pt_clust_5="31.18509" pt_clust_6="67.19033"></scales>
<clustering>
<clus scale="   31.185">  2  5  1 -1</clus>
<clus scale="   32.722">  2  4  1 -1</clus>
<clus scale="   67.190">  2  6  1 -1</clus>
<clus scale="   67.190">  1  3  2 -1</clus>
</clustering>
</event>
<event>
 6    0  0.1622933E+002  0.1100675E+03  0.7546771E-02  0.1260445E+00
          4   -1    0    0  505    0 -0.00000000000E+00  0.00000000000E+00  0.19837491262E+03  0.19837491262E+03  0.00000000000E+00 0.  1.
         21   -1    0    0  503  502  0.00000000000E+00 -0.00000000000E+00 -0.75036671022E+03  0.75036671022E+03  0.00000000000E+00 0. -1.
         21    1    1    2  503  501  0.80417540902E+02 -0.71909669936E+02 -0.62367070601E+03  0.63293216939E+03  0.00000000000E+00 0. -1.
         21    1    1    2  504  502  0.92851121658E+02  0.10301143711E+02  0.36020515661E+02  0.10012453198E+03  0.00000000000E+00 0.  1.
         21    1    1    2  505  504 -0.43482415865E+02 -0.29527934517E+02 -0.23217639993E+01  0.52611880734E+02  0.00000000000E+00 0.  1.
          4    1    1    2  501    0 -0.12978624670E+03  0.91136460742E+02  0.37980156755E+02  0.16307304074E+03  0.00000000000E+00 0.  1.
<scales pt_clust_3="14000.00000" pt_clust_4="75.77543" pt_clust_5="52.56063" pt_clust_6="110.06748"></scales>
<clustering>
<clus scale="   52.561">  1  5  2 -1</clus>
<clus scale="   75.775">  1  4  2 -1</clus>
<clus scale="  110.067">  1  6  2 -1</clus>
<clus scale="  110.067">  2  3  1 -1</clus>
</clustering>
</event>
<event>
 6    0  0.1622933E+002  0.9657192E+02  0.7546771E-02  0.1287674E+00
         21   -1    0    0  505  502  0.00000000000E+00  0.00000000000E+00  0.13026602717E+03  0.13026602717E+03  0.00000000000E+00 0. -1.
         -1   -1    0    0    0  501 -0.00000000000E+00 -0.00000000000E+00 -0.48385702471E+03  0.48385702471E+03  0.00000000000E+00 0.  1.
         21    1    1    2  503  504 -0.83464379839E+00 -0.89869295518E+02 -0.62797368028E+02  0.10963893623E+03  0.00000000000E+00 0. -1.
         21    1    1    2  504  502 -0.23929892333E+02  0.84910787770E+02  0.68913315394E+02  0.11194430162E+03  0.00000000000E+00 0. -1.
         21    1    1    2  505  501 -0.45790436632E+02  0.13087369560E+02 -0.32362198399E+02  0.57579121339E+02  0.00000000000E+00 0. -1.
         -1    1    1    2    0  503  0.70554972764E+02 -0.81288618122E+01 -0.32734474651E+03  0.33496069269E+03  0.00000000000E+00 0.  1.
<scales pt_clust_3="96.57192" pt_clust_4="14000.00000" pt_clust_5="47.62398" pt_clust_6="69.50142"></scales>
<clustering>
<clus scale="   47.624">  1  5  2 -1</clus>
<clus scale="   69.501">  2  6  1 -1</clus>
<clus scale="   96.572">  2  3  1 -1</clus>
<clus scale="   47.624">  1  3  2 -1</clus>
</clustering>
</event>
<event>
 6    0  0.1622933E+002  0.1530221E+03  0.7546771E-02  0.1196808E+00
         21   -1    0    0  501  502  0.00000000000E+00  0.00000000000E+00  0.20715197663E+03  0.20715197663E+03  0.00000000000E+00 0.  1.
          2   -1    0    0  503    0 -0.00000000000E+00 -0.00000000000E+00 -0.13497071292E+04  0.13497071292E+04  0.00000000000E+00 0.  1.
         21    1    1    2  503  504 -0.36301753085E+02 -0.92065841698E+01 -0.61081665616E+03  0.61196369656E+03  0.00000000000E+00 0.  1.
         21    1    1    2  504  505 -0.15939009522E+03  0.54368398022E+02 -0.13944102571E+03  0.21864337358E+03  0.00000000000E+00 0.  1.
         21    1    1    2  505  502  0.51668341569E+02  0.41315437554E+02  0.14710451932E+03  0.16129576097E+03  0.00000000000E+00 0.  1.
          2    1    1    2  501    0  0.14402350673E+03 -0.86477251407E+02 -0.53940199001E+03  0.56495627471E+03  0.00000000000E+00 0.  1.
<scales pt_clust_3="37.45101" pt_clust_4="153.02209" pt_clust_5="65.82818" pt_clust_6="14000.00000"></scales>
<clustering>
<clus scale="   37.451">  2  3  1 -1</clus>
<clus scale="   65.828">  1  5  2 -1</clus>
<clus scale="  153.022">  1  4  2 -1</clus>
<clus scale="   65.828">  1  3  2 -1</clus>
</clustering>
</event>
<event>
 6    0  0.1622933E+002  0.9677649E+02  0.7546771E-02  0.1287224E+00
          1   -1    0    0  505    0 -0.00000000000E+00  0.00000000000E+00  0.86783813565E+03  0.86783813565E+03  0.00000000000E+00 0. -1.
         21   -1    0    0  504  502  0.00000000000E+00 -0.00000000000E+00 -0.46868928241E+02  0.46868928241E+02  0.00000000000E+00 0. -1.
         21    1    1    2  503  501 -0.58697783383E+02  0.24313066523E+02  0.72061635938E+02  0.96069945102E+02  0.00000000000E+00 0. -1.
         21    1    1    2  504  503  0.77192732863E+02 -0.14838034528E+02  0.52086335827E+02  0.94296721340E+02  0.00000000000E+00 0. -1.
         21    1    1    2  505  502  0.14856241393E+01 -0.57482615309E+02  0.65524468344E+03  0.65776291574E+03  0.00000000000E+00 0. -1.
          1    1    1    2  501    0 -0.19980573619E+02  0.48007583314E+02  0.41576552200E+02  0.66577481708E+02  0.00000000000E+00 0. -1.
<scales pt_clust_3="41.65466" pt_clust_4="85.12169" pt_clust_5="57.50181" pt_clust_6="41.65466"></scales>
<clustering>
<clus scale="   41.655">  3  6 -1 -1</clus>
<clus scale="   57.502">  1  5  2 -1</clus>
<clus scale="   85.122">  2  4  1 -1</clus>
<clus scale="   85.122">  2  3  1 -1</clus>
</clustering>
</event>
<event>
 6    0  0.1622933E+002  0.1184721E+03  0.7546771E-02  0.1245639E+00
         21   -1    0    0  501  502  0.00000000000E+00  0.00000000000E+00  0.91832868069E+03  0.91832868069E+03  0.00000000000E+00 0. -1.
          2   -1    0    0  504    0 -0.00000000000E+00 -0.00000000000E+00 -0.86165530170E+03  0.86165530170E+03  0.00000000000E+00 0.  1.
         21    1    1    2  503  502  0.68636192986E+02 -0.97082550088E+02  0.89405057152E+03  0.90192148935E+03  0.00000000000E+00 0. -1.
         21    1    1    2  504  505 -0.25885034176E+02  0.25697290415E+02 -0.71764771599E+02  0.80501976197E+02  0.00000000000E+00 0.  1.
         21    1    1    2  505  503  0.31357958312E+02  0.68268833226E+02 -0.87174150674E+02  0.11507948421E+03  0.00000000000E+00 0. -1.
          2    1    1    2  501    0 -0.74109117122E+02  0.31164264473E+01 -0.67843827026E+03  0.68248103264E+03  0.00000000000E+00 0.  1.
<scales pt_clust_3="14000.00000" pt_clust_4="36.47445" pt_clust_5="76.86812" pt_clust_6="118.47214"></scales>
<clustering>
<clus scale="   36.474">  2  4  1 -1</clus>
<clus scale="   76.868">  2  5  1 -1</clus>
<clus scale="  118.472">  2  6  1 -1</clus>
<clus scale="  118.472">  1  3  2 -1</clus>
</clustering>
</event>
<event>
 6    0  0.1622933E+002  0.1049442E+03  0.7546771E-02  0.1270230E+00
         21   -1    0    0  504  502  0.00000000000E+00  0.00000000000E+00  0.61403806841E+03  0.61403806841E+03  0.00000000000E+00 0. -1.
          1   -1    0    0  505    0 -0.00000000000E+00 -0.00000000000E+00 -0.19391389354E+03  0.19391389354E+03  0.00000000000E+00 0. -1.
         21    1    1    2  503  502 -0.29682165002E+02 -0.17169633814E+03  0.22303325012E+03  0.28302737343E+03  0.00000000000E+00 0. -1.
         21    1    1    2  504  501 -0.10800479375E+02  0.75651376629E+02  0.27696684481E+03  0.28731587890E+03  0.00000000000E+00 0. -1.
         21    1    1    2  505  503  0.27823235288E+02  0.28316433602E+02 -0.14039694204E+03  0.14590152216E+03  0.00000000000E+00 0. -1.
          1    1    1    2  501    0  0.12659409089E+02  0.67728527908E+02  0.60521021983E+02  0.91707187467E+02  0.00000000000E+00 0. -1.
<scales pt_clust_3="104.94418" pt_clust_4="78.94051" pt_clust_5="39.69827" pt_clust_6="14000.00000"></scales>
<clustering>
<clus scale="   39.698">  2  5  1 -1</clus>
<clus scale="   78.941">  1  4  2 -1</clus>
<clus scale="  104.944">  1  3  2 -1</clus>
<clus scale="   78.941">  1  3  2 -1</clus>
</clustering>
</event>
<event>
 6    0  0.1622933E+002  0.1413911E+03  0.7546771E-02  0.1211469E+00
          2   -1    0    0  503    0 -0.00000000000E+00  0.00000000000E+00  0.10672973279E+04  0.10672973279E+04  0.00000000000E+00 0. -1.
         21   -1    0    0  504  502  0.00000000000E+00 -0.00000000000E+00 -0.52833113722E+02  0.52833113722E+02  0.00000000000E+00 0. -1.
         21    1    1    2  503  505 -0.35196768395E+02  0.13909910030E+02  0.15498776987E+03  0.15954155231E+03  0.00000000000E+00 0. -1.
         21    1    1    2  504  501 -0.10739783048E+03 -0.92688214871E+02  0.12517206536E+03  0.18919155667E+03  0.00000000000E+00 0. -1.
         21    1    1    2  505  502 -0.21482478092E+02  0.67591780466E+02  0.25409104035E+03  0.26380371953E+03  0.00000000000E+00 0. -1.
          2    1    1    2  501    0  0.16407707697E+03  0.11186524375E+02  0.48021333861E+03  0.50759361314E+03  0.00000000000E+00 0. -1.
<scales pt_clust_3="32.83692" pt_clust_4="14000.00000" pt_clust_5="108.97590" pt_clust_6="141.39110"></scales>
<clustering>
<clus scale="   32.837">  3  5 -1 -1</clus>
<clus scale="  108.976">  1  3  2 -1</clus>
<clus scale="  141.391">  1  6  2 -1</clus>
<clus scale="  141.391">  2  3  1 -1</clus>
</clustering>
</event>
<event>
 6    0  0.1622933E+002  0.1344989E+03  0.7546771E-02  0.1220929E+00
         21   -1    0    0  503  502  0.00000000000E+00  0.00000000000E+00  0.26952355833E+03  0.26952355833E+03  0.00000000000E+00 0. -1.
          2   -1    0    0  505    0 -0.00000000000E+00 -0.00000000000E+00 -0.36119087701E+03  0.36119087701E+03  0.00000000000E+00 0. -1.
         21    1    1    2  503  501  0.26987062649E+02 -0.54085423665E+02 -0.32134527569E+02  0.68455551021E+02  0.00000000000E+00 0.  1.
         21    1    1    2  504  502 -0.10424649013E+03  0.73547112536E+02  0.21168286844E+03  0.24715611515E+03  0.00000000000E+00 0. -1.
         21    1    1    2  505  504  0.89689962194E+01  0.39474887772E+02 -0.18822244348E+03  0.19252635635E+03  0.00000000000E+00 0. -1.
          2    1    1    2  501    0  0.68290431262E+02 -0.58936576643E+02 -0.82993216060E+02  0.12257641282E+03  0.00000000000E+00 0. -1.
<scales pt_clust_3="30.48635" pt_clust_4="129.23980" pt_clust_5="40.48098" pt_clust_6="30.48635"></scales>
<clustering>
<clus scale="   30.486">  3  6 -1 -1</clus>
<clus scale="   40.481">  2  5  1 -1</clus>
<clus scale="  129.240">  1  4  2 -1</clus>
<clus scale="  129.240">  1  3  2 -1</clus>
</clustering>
</event>
<event>
 6    0  0.1622933E+002  0.1244623E+03  0.7546771E-02  0.1235912E+00
         21   -1    0    0  503  502  0.00000000000E+00  0.00000000000E+00  0.81932646144E+02  0.81932646144E+02  0.00000000000E+00 0.  1.
         -4   -1    0    0    0  501 -0.00000000000E+00 -0.00000000000E+00 -0.23978673075E+03  0.23978673075E+03  0.00000000000E+00 0.  1.
         21    1    1    2  503  501  0.84672513428E+01 -0.33414320671E+02 -0.55874485582E+01  0.34920348689E+02  0.00000000000E+00 0.  1.
         21    1    1    2  504  505 -0.26205280790E+02 -0.18885907518E+02 -0.37204267082E+02  0.49270191122E+02  0.00000000000E+00 0.  1.
         21    1    1    2  505  502  0.10743159867E+03  0.20017849288E+02 -0.40643769280E+02  0.11659407646E+03  0.00000000000E+00 0.  1.
         -4    1    1    2    0  504 -0.89693569228E+02  0.32282378901E+02 -0.74418599689E+02  0.12093476063E+03  0.00000000000E+00 0.  1.
<scales pt_clust_3="34.47044" pt_clust_4="31.33712" pt_clust_5="112.21772" pt_clust_6="31.33712"></scales>
<clustering>
<clus scale="   31.337">  4  6 -1 -1</clus>
<clus scale="   34.470">  1  3  2 -1</clus>
<clus scale="  112.218">  1  5  2 -1</clus>
<clus scale="   34.470">  1  3  2 -1</clus>
</clustering>
</event>
<event>
 6    0  0.1622933E+002  0.9330885E+02  0.7546771E-02  0.1295031E+00
         21   -1    0    0  501  502  0.00000000000E+00  0.00000000000E+00  0.10959749180E+04  0.10959749180E+04  0.00000000000E+00 0. -1.
          1   -1    0    0  505    0 -0.00000000000E+00 -0.00000000000E+00 -0.22654098587E+02  0.22654098587E+02  0.00000000000E+00 0.  1.
         21    1    1    2  503  504  0.27199000772E+02  0.52142983729E+02  0.10127480102E+03  0.11711217578E+03  0.00000000000E+00 0.  1.
         21    1    1    2  504  502 -0.26792412883E+02 -0.10109399758E+03  0.57090534114E+03  0.58040566699E+03  0.00000000000E+00 0. -1.
         21    1    1    2  505  503  0.21761568450E+02 -0.34179551512E+02  0.99313387557E+02  0.10726116050E+03  0.00000000000E+00 0. -1.
          1    1    1    2  501    0 -0.22168156338E+02  0.83130565363E+02  0.30182728973E+03  0.31385001335E+03  0.00000000000E+00 0.  1.
<scales pt_clust_3="52.38821" pt_clust_4="14000.00000" pt_clust_5="40.51923" pt_clust_6="93.30885"></scales>
<clustering>
<clus scale="   40.519">  2  5  1 -1</clus>
<clus scale="   52.388">  2  3  1 -1</clus>
<clus scale="   93.309">  2  6  1 -1</clus>
<clus scale="   93.309">  1  3  2 -1</clus>
</clustering>
</event>
<event>
 6    0  0.1622933E+002  0.1715839E+03  0.7546771E-02  0.1176206E+00
          2   -1    0    0  503    0 -0.00000000000E+00  0.00000000000E+00  0.28714061433E+04  0.28714061433E+04  0.00000000000E+00 0.  1.
         21   -1    0    0  505  502  0.00000000000E+00 -0.00000000000E+00 -0.17896938437E+03  0.17896938437E+03  0.00000000000E+00 0.  1.
         21    1    1    2  503  502 -0.15236487069E+02  0.92857540585E+02 -0.15428709676E+03  0.18071851485E+03  0.00000000000E+00 0.  1.
         21    1    1    2  504  501  0.30619627117E+02 -0.30663751821E+02  0.67547620002E+03  0.67686477529E+03  0.00000000000E+00 0.  1.
         21    1    1    2  505  504  0.15696213256E+02  0.63164995723E+02  0.11230053309E+03  0.12979829555E+03  0.00000000000E+00 0.  1.
          2    1    1    2  501    0 -0.31079353303E+02 -0.12535878449E+03  0.20589471226E+04  0.20629939420E+04  0.00000000000E+00 0.  1.
<scales pt_clust_3="155.01420" pt_clust_4="42.61127" pt_clust_5="65.08600" pt_clust_6="42.61127"></scales>
<clustering>
<clus scale="   42.611">  4  6 -1 -1</clus>
<clus scale="   65.086">  2  5  1 -1</clus>
<clus scale="  155.014">  2  3  1 -1</clus>
<clus scale="   65.086">  2  3  1 -1</clus>
</clustering>
</event>
<event>
 6    0  0.1622933E+002  0.9771716E+02  0.7546771E-02  0.1285171E+00
          2   -1    0    0  504    0 -0.00000000000E+00  0.00000000000E+00  0.18035426336E+03  0.18035426336E+03  0.00000000000E+00 0. -1.
         21   -1    0    0  505  502  0.00000000000E+00 -0.00000000000E+00 -0.98077755914E+03  0.98077755914E+03  0.00000000000E+00 0. -1.
         21    1    1    2  503  502 -0.96288305243E+02  0.37815138567E+01 -0.85899398131E+03  0.86438208999E+03  0.00000000000E+00 0. -1.
         21    1    1    2  504  503  0.12529953643E+03 -0.41247599577E+02 -0.15925617300E+02  0.13287198195E+03  0.00000000000E+00 0. -1.
         21    1    1    2  505  501 -0.68228756518E+02  0.77783638376E+01 -0.66456707911E+01  0.68991529192E+02  0.00000000000E+00 0. -1.
          2    1    1    2  501    0  0.39217525333E+02  0.29687721882E+02  0.81141973621E+02  0.94886221376E+02  0.00000000000E+00 0. -1.
<scales pt_clust_3="97.71716" pt_clust_4="14000.00000" pt_clust_5="57.79874" pt_clust_6="49.18714"></scales>
<clustering>
<clus scale="   49.187">  1  6  2 -1</clus>
<clus scale="   57.799">  1  5  2 -1</clus>
<clus scale="   97.717">  2  3  1 -1</clus>
<clus scale="   97.717">  2  3  1 -1</clus>
</clustering>
</event>
<event>
 6    0  0.1622933E+002  0.9474508E+02  0.7546771E-02  0.1291751E+00
         21   -1    0    0  501  502  0.00000000000E+00  0.00000000000E+00  0.53504894398E+02  0.53504894398E+02  0.00000000000E+00 0. -1.
          2   -1    0    0  505    0 -0.00000000000E+00 -0.00000000000E+00 -0.41719929857E+04  0.41719929857E+04  0.00000000000E+00 0. -1.
         21    1    1    2  503  502 -0.20557506053E+00  0.34480223483E+02  0.42862897608E+02  0.55010508667E+02  0.00000000000E+00 0. -1.
         21    1    1    2  504  503 -0.99353807316E+02 -0.42878863146E+02 -0.80249404768E+03  0.80975704535E+03  0.00000000000E+00 0. -1.
         21    1    1    2  505  504  0.22378090271E+02  0.24244562339E+02 -0.86490848630E+03  0.86553755978E+03  0.00000000000E+00 0.  1.
          2    1    1    2  501    0  0.77181292106E+02 -0.15845922675E+02 -0.24939484550E+04  0.24951927663E+04  0.00000000000E+00 0. -1.
<scales pt_clust_3="34.52515" pt_clust_4="14000.00000" pt_clust_5="32.99360" pt_clust_6="94.74508"></scales>
<clustering>
<clus scale="   32.994">  2  5  1 -1</clus>
<clus scale="   34.525">  1  3  2 -1</clus>
<clus scale="   94.745">  2  6  1 -1</clus>
<clus scale="   34.525">  1  3  2 -1</clus>
</clustering>
</event>
<event>
 6    0  0.1622933E+002  0.1086731E+03  0.7546771E-02  0.1263047E+00
         21   -1    0    0  504  502  0.00000000000E+00  0.00000000000E+00  0.18726646597E+03  0.18726646597E+03  0.00000000000E+00 0. -1.
         -2   -1    0    0    0  501 -0.00000000000E+00 -0.00000000000E+00 -0.53403839299E+03  0.53403839299E+03  0.00000000000E+00 0.  1.
         21    1    1    2  503  505 -0.45061201365E+02 -0.53020050207E+02 -0.20512795429E+03  0.21660820673E+03  0.00000000000E+00 0.  1.
         21    1    1    2  504  501 -0.75482271112E+01  0.49949539013E+02 -0.67148106470E+02  0.84028568848E+02  0.00000000000E+00 0. -1.
         21    1    1    2  505  502  0.98111980601E+02  0.15651082511E+02  0.15623916174E+03  0.18515289029E+03  0.00000000000E+00 0. -1.
         -2    1    1    2    0  503 -0.45502552125E+02 -0.12580571317E+02 -0.23073502801E+03  0.23551519309E+03  0.00000000000E+00 0.  1.
<scales pt_clust_3="36.22201" pt_clust_4="50.51665" pt_clust_5="99.37833" pt_clust_6="36.22201"></scales>
<clustering>
<clus scale="   36.222">  3  6 -1 -1</clus>
<clus scale="   50.517">  2  4  1 -1</clus>
<clus scale="   99.378">  1  5  2 -1</clus>
<clus scale="   99.378">  1  3  2 -1</clus>
</clustering>
</event>
<event>
 6    0  0.1622933E+002  0.1286881E+03  0.7546771E-02  0.1229415E+00
          1   -1    0    0  502    0 -0.00000000000E+00  0.00000000000E+00  0.49242315803E+03  0.49242315803E+03  0.00000000000E+00 0. -1.
         21   -1    0    0  504  502  0.00000000000E+00 -0.00000000000E+00 -0.89460848164E+03  0.89460848164E+03  0.00000000000E+00 0.  1.
         21    1    1    2  503  501 -0.32570515974E+02 -0.65899538877E+01  0.14877819914E+02  0.36409003398E+02  0.00000000000E+00 0. -1.
         21    1    1    2  504  505  0.93813641125E+02  0.58535512371E+02 -0.83671954116E+03  0.84399466588E+03  0.00000000000E+00 0.  1.
         21    1    1    2  505  503 -0.53879138132E+02 -0.12846744193E+03  0.84861865757E+02  0.16312075718E+03  0.00000000000E+00 0. -1.
          1    1    1    2  501    0 -0.73639870189E+01  0.76521883447E+02  0.33479453188E+03  0.34350721321E+03  0.00000000000E+00 0. -1.
<scales pt_clust_3="31.46356" pt_clust_4="111.40266" pt_clust_5="31.46356" pt_clust_6="76.87540"></scales>
<clustering>
<clus scale="   31.464">  3  5 -1 -1</clus>
<clus scale="   76.875">  1  6  2 -1</clus>
<clus scale="  111.403">  2  4  1 -1</clus>
<clus scale="  111.403">  2  3  1 -1</clus>
</clustering>
</event>
<event>
 6    0  0.1622933E+002  0.1888041E+03  0.7546771E-02  0.1159544E+00
         21   -1    0    0  505  502  0.00000000000E+00  0.00000000000E+00  0.82672175216E+02  0.82672175216E+02  0.00000000000E+00 0.  1.
          1   -1    0    0  503    0 -0.00000000000E+00 -0.00000000000E+00 -0.57432835979E+03  0.57432835979E+03  0.00000000000E+00 0. -1.
         21    1    1    2  503  504 -0.86611096252E+02  0.16681802193E+03 -0.28236221271E+03  0.33920223113E+03  0.00000000000E+00 0.  1.
         21    1    1    2  504  502  0.43859786492E+02 -0.19163680519E+01 -0.37503201103E+01  0.44061527874E+02  0.00000000000E+00 0. -1.
         21    1    1    2  505  501 -0.82883342046E+00 -0.41572754090E+02 -0.18539648986E+02  0.45526908878E+02  0.00000000000E+00 0.  1.
          1    1    1    2  501    0  0.43580143180E+02 -0.12332889979E+03 -0.18700400277E+03  0.22820986713E+03  0.00000000000E+00 0. -1.
<scales pt_clust_3="178.83951" pt_clust_4="43.90163" pt_clust_5="34.12573" pt_clust_6="34.12573"></scales>
<clustering>
<clus scale="   34.126">  5  6 -1 -1</clus>
<clus scale="   43.902">  1  4  2 -1</clus>
<clus scale="  178.840">  2  3  1 -1</clus>
<clus scale="   43.902">  1  3  2 -1</clus>
</clustering>
</event>
<event>
 6    0  0.1622933E+002  0.6867398E+02  0.7546771E-02  0.1364661E+00
         21   -1    0    0  505  502  0.00000000000E+00  0.00000000000E+00  0.12083091395E+02  0.12083091395E+02  0.00000000000E+00 0. -1.
          2   -1    0    0  503    0 -0.00000000000E+00 -0.00000000000E+00 -0.26931115559E+04  0.26931115559E+04  0.00000000000E+00 0. -1.
         21    1    1    2  503  504 -0.54895792762E+02  0.89824283195E+01 -0.89315233998E+03  0.89488286077E+03  0.00000000000E+00 0. -1.
         21    1    1    2  504  502  0.30459073502E+02 -0.74241781666E+02 -0.99620947203E+03  0.99943629585E+03  0.00000000000E+00 0. -1.
         21    1    1    2  505  501 -0.62111578759E+02  0.25525123244E+02 -0.18564946912E+03  0.19742113746E+03  0.00000000000E+00 0. -1.
          2    1    1    2  501    0  0.86548298019E+02  0.39734230103E+02 -0.60601718340E+03  0.61345435324E+03  0.00000000000E+00 0. -1.
<scales pt_clust_3="55.62582" pt_clust_4="69.25990" pt_clust_5="14000.00000" pt_clust_6="68.67398"></scales>
<clustering>
<clus scale="   55.626">  2  3  1 -1</clus>
<clus scale="   69.260">  2  4  1 -1</clus>
<clus scale="   68.674">  2  6  1 -1</clus>
<clus scale="   68.674">  1  3  2 -1</clus>
</clustering>
</event>
<event>
 6    0  0.1622933E+002  0.1588108E+03  0.7546771E-02  0.1190046E+00
          2   -1    0    0  503    0 -0.00000000000E+00  0.00000000000E+00  0.25860033952E+04  0.25860033952E+04  0.00000000000E+00 0.  1.
         21   -1    0    0  505  502  0.00000000000E+00 -0.00000000000E+00 -0.46367129860E+02  0.46367129860E+02  0.00000000000E+00 0. -1.
         21    1    1    2  503  502  0.41270635230E+02 -0.16088676429E+03  0.57229719067E+03  0.59591265358E+03  0.00000000000E+00 0. -1.
         21    1    1    2  504  501 -0.40496936917E+02  0.34512176900E+02  0.43134434692E+03  0.43461366508E+03  0.00000000000E+00 0. -1.
         21    1    1    2  505  504  0.50190734183E+02  0.44554161475E+02  0.44410153634E+01  0.67259986025E+02  0.00000000000E+00 0. -1.
          2    1    1    2  501    0 -0.50964432497E+02  0.81820425917E+02  0.15315537124E+04  0.15345842204E+04  0.00000000000E+00 0.  1.
<scales pt_clust_3="149.49178" pt_clust_4="39.82304" pt_clust_5="67.11321" pt_clust_6="39.82304"></scales>
<clustering>
<clus scale="   39.823">  4  6 -1 -1</clus>
<clus scale="   67.113">  2  5  1 -1</clus>
<clus scale="  149.492">  2  3  1 -1</clus>
<clus scale="   67.113">  2  3  1 -1</clus>
</clustering>
</event>
<event>
 6    0  0.1622933E+002  0.2896996E+03  0.7546771E-02  0.1090506E+00
         21   -1    0    0  505  502  0.00000000000E+00  0.00000000000E+00  0.16908492435E+04  0.16908492435E+04  0.00000000000E+00 0. -1.
          1   -1    0    0  504    0 -0.00000000000E+00 -0.00000000000E+00 -0.44976671093E+03  0.44976671093E+03  0.00000000000E+00 0.  1.
         21    1    1    2  503  502  0.88190550487E+02  0.63349941184E+02  0.15100504038E+04  0.15139494741E+04  0.00000000000E+00 0. -1.
         21    1    1    2  504  503 -0.93227445633E+02  0.22289819361E+03 -0.54833291119E+02  0.24775320613E+03  0.00000000000E+00 0.  1.
         21    1    1    2  505  501 -0.58974635667E+02 -0.16362653504E+03 -0.12816062385E+03  0.21604813382E+03  0.00000000000E+00 0.  1.
          1    1    1    2  501    0  0.64011530813E+02 -0.12262159975E+03 -0.85973956214E+02  0.16286514038E+03  0.00000000000E+00 0.  1.
<scales pt_clust_3="108.58540" pt_clust_4="261.08925" pt_clust_5="118.90279" pt_clust_6="118.90279"></scales>
<clustering>
<clus scale="  108.585">  1  3  2 -1</clus>
<clus scale="  118.903">  5  6 -1 -1</clus>
<clus scale="  261.089">  1  4  2 -1</clus>
<clus scale="  108.585">  1  3  2 -1</clus>
</clustering>
</event>
<event>
 6    0  0.1622933E+002  0.1543315E+03  0.7546771E-02  0.1195249E+00
         21   -1    0    0  501  502  0.00000000000E+00  0.00000000000E+00  0.19725573911E+03  0.19725573911E+03  0.00000000000E+00 0. -1.
          2   -1    0    0  503    0 -0.00000000000E+00 -0.00000000000E+00 -0.14936025454E+04  0.14936025454E+04  0.00000000000E+00 0. -1.
         21    1    1    2  503  504 -0.22146197314E+02  0.29293912710E+02 -0.99364725825E+03  0.99432563137E+03  0.00000000000E+00 0. -1.
         21    1    1    2  504  505 -0.15889912879E+03 -0.40070399774E+01 -0.24266559312E+03  0.29008891668E+03  0.00000000000E+00 0. -1.
         21    1    1    2  505  502  0.29501051918E+02 -0.15374931140E+02  0.14641834150E+03  0.15015002930E+03  0.00000000000E+00 0. -1.
          2    1    1    2  501    0  0.15154427418E+03 -0.99119415924E+01 -0.20645229642E+03  0.25629370714E+03  0.00000000000E+00 0. -1.
<scales pt_clust_3="36.51508" pt_clust_4="154.33152" pt_clust_5="33.26711" pt_clust_6="14000.00000"></scales>
<clustering>
<clus scale="   33.267">  1  5  2 -1</clus>
<clus scale="   36.515">  2  3  1 -1</clus>
<clus scale="  154.332">  1  4  2 -1</clus>
<clus scale="   33.267">  1  3  2 -1</clus>
</clustering>
</event>
<event>
 6    0  0.1622933E+002  0.1477665E+03  0.7546771E-02  0.1203245E+00
          1   -1    0    0  503    0 -0.00000000000E+00  0.00000000000E+00  0.64934290432E+03  0.64934290432E+03  0.00000000000E+00 0. -1.
         21   -1    0    0  501  502  0.00000000000E+00 -0.00000000000E+00 -0.50350289357E+02  0.50350289357E+02  0.00000000000E+00 0. -1.
         21    1    1    2  503  505  0.18027659979E+02 -0.54440408928E+02  0.20580351138E+03  0.21364419006E+03  0.00000000000E+00 0.  1.
         21    1    1    2  504  502  0.70495358028E+02  0.65239404833E+02  0.76319595112E+02  0.12268030015E+03  0.00000000000E+00 0. -1.
         21    1    1    2  505  504  0.11196015007E+02  0.56401320653E+02  0.10824419453E+03  0.12256943083E+03  0.00000000000E+00 0. -1.
          1    1    1    2  501    0 -0.99719033014E+02 -0.67200316557E+02  0.20862531394E+03  0.24079927264E+03  0.00000000000E+00 0. -1.
<scales pt_clust_3="57.34766" pt_clust_4="52.55504" pt_clust_5="52.55504" pt_clust_6="131.22979"></scales>
<clustering>
<clus scale="   52.555">  4  5 -1 -1</clus>
<clus scale="   57.348">  1  3  2 -1</clus>
<clus scale="  131.230">  1  6  2 -1</clus>
<clus scale="  147.767">  2  3  1 -1</clus>
</clustering>
</event>
<event>
 6    0  0.1622933E+002  0.1278716E+03  0.7546771E-02  0.1230649E+00
          1   -1    0    0  503    0 -0.00000000000E+00  0.00000000000E+00  0.38397733274E+03  0.38397733274E+03  0.00000000000E+00 0.  1.
         21   -1    0    0  505  502  0.00000000000E+00 -0.00000000000E+00 -0.14353286334E+04  0.14353286334E+04  0.00000000000E+00 0.  1.
         21    1    1    2  503  504 -0.76665763857E+02 -0.52081633616E+02  0.16659084074E+03  0.19063746780E+03  0.00000000000E+00 0.  1.
         21    1    1    2  504  502  0.18017705432E+02  0.39132146273E+02 -0.12288308392E+04  0.12295857814E+04  0.00000000000E+00 0.  1.
         21    1    1    2  505  501  0.44289421975E+01  0.99599613582E+02 -0.16666527453E+03  0.19420868232E+03  0.00000000000E+00 0.  1.
          1    1    1    2  501    0  0.54219116228E+02 -0.86650126239E+02  0.17755397234E+03  0.20487403455E+03  0.00000000000E+00 0.  1.
<scales pt_clust_3="90.54023" pt_clust_4="43.08088" pt_clust_5="14000.00000" pt_clust_6="127.87155"></scales>
<clustering>
<clus scale="   43.081">  2  4  1 -1</clus>
<clus scale="   90.540">  1  3  2 -1</clus>
<clus scale="  127.872">  1  6  2 -1</clus>
<clus scale="   43.081">  2  3  1 -1</clus>
</clustering>
</event>
<event>
 6    0  0.1622933E+002  0.1033283E+03  0.7546771E-02  0.1273449E+00
          1   -1    0    0  503    0 -0.00000000000E+00  0.00000000000E+00  0.17488226763E+03  0.17488226763E+03  0.00000000000E+00 0.  1.
         21   -1    0    0  504  502  0.00000000000E+00 -0.00000000000E+00 -0.55264323587E+03  0.55264323587E+03  0.00000000000E+00 0.  1.
         21    1    1    2  503  505  0.12106024816E+02  0.28639945764E+02  0.17955442278E+02  0.35905434652E+02  0.00000000000E+00 0. -1.
         21    1    1    2  504  501  0.10333140727E+03  0.37483911818E+01 -0.47334852691E+03  0.48451032816E+03  0.00000000000E+00 0.  1.
         21    1    1    2  505  502 -0.12883262258E+02 -0.56695765866E+02 -0.21915258153E+02  0.62134264729E+02  0.00000000000E+00 0. -1.
          1    1    1    2  501    0 -0.10255416983E+03  0.24307428920E+02  0.99547374546E+02  0.14497547596E+03  0.00000000000E+00 0.  1.
<scales pt_clust_3="31.09345" pt_clust_4="14000.00000" pt_clust_5="53.98565" pt_clust_6="103.32830"></scales>
<clustering>
<clus scale="   31.093">  1  3  2 -1</clus>
<clus scale="   53.986">  1  5  2 -1</clus>
<clus scale="  103.328">  1  6  2 -1</clus>
<clus scale="  103.328">  2  3  1 -1</clus>
</clustering>
</event>
<event>
 6    0  0.1622933E+002  0.8512709E+02  0.7546771E-02  0.1315101E+00
         21   -1    0    0  505  502  0.00000000000E+00  0.00000000000E+00  0.52987844389E+03  0.52987844389E+03  0.00000000000E+00 0. -1.
         -3   -1    0    0    0  501 -0.00000000000E+00 -0.00000000000E+00 -0.66921830001E+02  0.66921830001E+02  0.00000000000E+00 0. -1.
         21    1    1    2  503  504  0.61970688087E+02 -0.83076054956E+02  0.24757283564E+03  0.26839207521E+03  0.00000000000E+00 0. -1.
         21    1    1    2  504  502 -0.95482606056E+01 -0.31542321108E+02  0.16566711304E+03  0.16891323111E+03  0.00000000000E+00 0. -1.
         21    1    1    2  505  501  0.52744502637E+01  0.55787203142E+02  0.52859342990E+02  0.77033382383E+02  0.00000000000E+00 0. -1.
         -3    1    1    2    0  503 -0.57696877745E+02  0.58831172922E+02 -0.31426777744E+01  0.82461585193E+02  0.00000000000E+00 0. -1.
<scales pt_clust_3="85.12709" pt_clust_4="32.95584" pt_clust_5="50.26391" pt_clust_6="14000.00000"></scales>
<clustering>
<clus scale="   32.956">  1  4  2 -1</clus>
<clus scale="   50.264">  1  5  2 -1</clus>
<clus scale="   85.127">  1  3  2 -1</clus>
<clus scale="   32.956">  1  3  2 -1</clus>
</clustering>
</event>
<event>
 6    0  0.1622933E+002  0.3554301E+03  0.7546771E-02  0.1060408E+00
         21   -1    0    0  504  502  0.00000000000E+00  0.00000000000E+00  0.14832687949E+03  0.14832687949E+03  0.00000000000E+00 0. -1.
          2   -1    0    0  503    0 -0.00000000000E+00 -0.00000000000E+00 -0.35778424140E+04  0.35778424140E+04  0.00000000000E+00 0.  1.
         21    1    1    2  503  502  0.15713418742E+01 -0.17878041487E+03 -0.56554042805E+03  0.59312804825E+03  0.00000000000E+00 0. -1.
         21    1    1    2  504  505  0.11713183835E+03 -0.30457889736E+03 -0.12853270757E+03  0.35072614557E+03  0.00000000000E+00 0. -1.
         21    1    1    2  505  501 -0.10010127670E+02  0.21439150615E+03 -0.99765392558E+03  0.10204789443E+04  0.00000000000E+00 0. -1.
          2    1    1    2  501    0 -0.10869305255E+03  0.26896780608E+03 -0.17377884733E+04  0.17618361553E+04  0.00000000000E+00 0.  1.
<scales pt_clust_3="178.78732" pt_clust_4="339.74263" pt_clust_5="89.82348" pt_clust_6="89.82348"></scales>
<clustering>
<clus scale="   89.823">  5  6 -1 -1</clus>
<clus scale="  178.787">  2  3  1 -1</clus>
<clus scale="  339.743">  1  4  2 -1</clus>
<clus scale="  339.743">  1  3  2 -1</clus>
</clustering>
</event>
<event>
 6    0  0.1622933E+002  0.7902942E+02  0.7546771E-02  0.1331829E+00
         -1   -1    0    0    0  501 -0.00000000000E+00  0.00000000000E+00  0.23973266017E+03  0.23973266017E+03  0.00000000000E+00 0. -1.
         21   -1    0    0  504  502  0.00000000000E+00 -0.00000000000E+00 -0.16650382320E+03  0.16650382320E+03  0.00000000000E+00 0. -1.
         21    1    1    2  503  501  0.11950009384E+03  0.32354878662E+02  0.93431277426E+02  0.15510162540E+03  0.00000000000E+00 0. -1.
         21    1    1    2  504  503 -0.31959766980E+02 -0.14233899187E+01 -0.56711663318E+01  0.32490227328E+02  0.00000000000E+00 0. -1.
         21    1    1    2  505  502 -0.24093857411E+02 -0.21247074881E+02 -0.10382336613E+03  0.10867954504E+03  0.00000000000E+00 0. -1.
         -1    1    1    2    0  505 -0.63446469446E+02 -0.96844138628E+01  0.89292092001E+02  0.10996508560E+03  0.00000000000E+00 0. -1.
<scales pt_clust_3="79.02942" pt_clust_4="31.99145" pt_clust_5="52.12616" pt_clust_6="14000.00000"></scales>
<clustering>
<clus scale="   31.991">  2  4  1 -1</clus>
<clus scale="   52.126">  2  5  1 -1</clus>
<clus scale="   79.029">  2  3  1 -1</clus>
<clus scale="   31.991">  2  3  1 -1</clus>
</clustering>
</event>
<event>
 6    0  0.1622933E+002  0.1159507E+03  0.7546771E-02  0.1249931E+00
         21   -1    0    0  501  502  0.00000000000E+00  0.00000000000E+00  0.76424904154E+01  0.76424904154E+01  0.00000000000E+00 0.  1.
          2   -1    0    0  503    0 -0.00000000000E+00 -0.00000000000E+00 -0.44977069936E+04  0.44977069936E+04  0.00000000000E+00 0.  1.
         21    1    1    2  503  505 -0.21983681200E+02 -0.27185092836E+02 -0.11581415776E+04  0.11586691612E+04  0.00000000000E+00 0.  1.
         21    1    1    2  504  502  0.10104572482E+03  0.77688702566E+01 -0.84800992350E+03  0.85404415823E+03  0.00000000000E+00 0. -1.
         21    1    1    2  505  504 -0.11662117224E+03  0.74126238219E+02 -0.18848738432E+04  0.18899324331E+04  0.00000000000E+00 0.  1.
          2    1    1    2  501    0  0.37559128626E+02 -0.54710015640E+02 -0.59903915891E+03  0.60270373141E+03  0.00000000000E+00 0.  1.
<scales pt_clust_3="34.96157" pt_clust_4="14000.00000" pt_clust_5="115.95067" pt_clust_6="68.42185"></scales>
<clustering>
<clus scale="   34.962">  2  3  1 -1</clus>
<clus scale="   68.422">  1  6  2 -1</clus>
<clus scale="  115.951">  2  5  1 -1</clus>
<clus scale="   68.422">  1  3  2 -1</clus>
</clustering>
</event>
<event>
 6    0  0.1622933E+002  0.1415804E+03  0.7546771E-02  0.1211218E+00
         -1   -1    0    0    0  501 -0.00000000000E+00  0.00000000000E+00  0.24928105047E+03  0.24928105047E+03  0.00000000000E+00 0.  1.
         21   -1    0    0  505  502  0.00000000000E+00 -0.00000000000E+00 -0.14533923735E+04  0.14533923735E+04  0.00000000000E+00 0.  1.
         21    1    1    2  503  504  0.12533655421E+03  0.13516285402E+03 -0.28117342588E+03  0.33620937576E+03  0.00000000000E+00 0.  1.
         21    1    1    2  504  501  0.40607622116E+02  0.36307926692E+02  0.70288043157E+00  0.54476954352E+02  0.00000000000E+00 0. -1.
         21    1    1    2  505  503 -0.45125985348E+02 -0.36450460192E+02 -0.10745949028E+04  0.10761594657E+04  0.00000000000E+00 0.  1.
         -1    1    1    2    0  502 -0.12081819097E+03 -0.13502032052E+03  0.15095412526E+03  0.23582762806E+03  0.00000000000E+00 0.  1.
<scales pt_clust_3="141.58037" pt_clust_4="54.47242" pt_clust_5="57.81656" pt_clust_6="14000.00000"></scales>
<clustering>
<clus scale="   54.472">  1  4  2 -1</clus>
<clus scale="   57.817">  2  5  1 -1</clus>
<clus scale="  141.580">  2  3  1 -1</clus>
<clus scale="   57.817">  2  3  1 -1</clus>
</clustering>
</event>
<event>
 6    0  0.1622933E+002  0.7392288E+02  0.7546771E-02  0.1347239E+00
         21   -1    0    0  503  502  0.00000000000E+00  0.00000000000E+00  0.74987345088E+02  0.74987345088E+02  0.00000000000E+00 0.  1.
          2   -1    0    0  504    0 -0.00000000000E+00 -0.00000000000E+00 -0.18151445057E+04  0.18151445057E+04  0.00000000000E+00 0. -1.
         21    1    1    2  503  501 -0.23446901986E+02 -0.70213349943E+02  0.46072385131E+02  0.87191377983E+02  0.00000000000E+00 0.  1.
         21    1    1    2  504  505 -0.53488318154E+02 -0.51633074284E+01 -0.12602153146E+04  0.12613604953E+04  0.00000000000E+00 0. -1.
         21    1    1    2  505  502  0.20803221059E+02  0.69403293267E+02 -0.29854582007E+03  0.30721197536E+03  0.00000000000E+00 0. -1.
          2    1    1    2  501    0  0.56131999081E+02  0.59733641042E+01 -0.22746841112E+03  0.23436800220E+03  0.00000000000E+00 0. -1.
<scales pt_clust_3="73.92288" pt_clust_4="53.73695" pt_clust_5="14000.00000" pt_clust_6="34.06649"></scales>
<clustering>
<clus scale="   53.737">  2  4  1 -1</clus>
<clus scale="   34.066">  2  6  1 -1</clus>
<clus scale="   73.923">  1  3  2 -1</clus>
<clus scale="   73.923">  1  3  2 -1</clus>
</clustering>
</event>
<event>
 6    0  0.1622933E+002  0.1990554E+03  0.7546771E-02  0.1150538E+00
         21   -1    0    0  504  502  0.00000000000E+00  0.00000000000E+00  0.29775500438E+03  0.29775500438E+03  0.00000000000E+00 0. -1.
          2   -1    0    0  505    0 -0.00000000000E+00 -0.00000000000E+00 -0.15937413331E+04  0.15937413331E+04  0.00000000000E+00 0. -1.
         21    1    1    2  503  501 -0.29304954501E+02  0.41294339277E+02 -0.24324893063E+03  0.24846336766E+03  0.00000000000E+00 0. -1.
         21    1    1    2  504  503 -0.11793216379E+03 -0.14539070183E+03  0.23659120656E+03  0.30169827718E+03  0.00000000000E+00 0. -1.
         21    1    1    2  505  502  0.12988914369E+03 -0.54026407365E+02 -0.22623742620E+03  0.26640836202E+03  0.00000000000E+00 0.  1.
          2    1    1    2  501    0  0.17347974601E+02  0.15812276992E+03 -0.10630911785E+04  0.10749263306E+04  0.00000000000E+00 0. -1.
<scales pt_clust_3="39.59730" pt_clust_4="186.27234" pt_clust_5="140.67709" pt_clust_6="39.59730"></scales>
<clustering>
<clus scale="   39.597">  3  6 -1 -1</clus>
<clus scale="  140.677">  2  5  1 -1</clus>
<clus scale="  186.272">  1  4  2 -1</clus>
<clus scale="  186.272">  1  3  2 -1</clus>
</clustering>
</event>
<event>
 6    0  0.1622933E+002  0.2016342E+03  0.7546771E-02  0.1148368E+00
         21   -1    0    0  504  502  0.00000000000E+00  0.00000000000E+00  0.70642748004E+02  0.70642748004E+02  0.00000000000E+00 0. -1.
          2   -1    0    0  503    0 -0.00000000000E+00 -0.00000000000E+00 -0.16181201660E+04  0.16181201660E+04  0.00000000000E+00 0. -1.
         21    1    1    2  503  505  0.79883396193E+02 -0.17454772729E+02 -0.79370151935E+03  0.79790232980E+03  0.00000000000E+00 0. -1.
         21    1    1    2  504  501 -0.28660231256E+02  0.41853275195E+02 -0.80266567254E+02  0.94951710458E+02  0.00000000000E+00 0. -1.
         21    1    1    2  505  502  0.65454240461E+01 -0.18583974055E+03 -0.13237740401E+03  0.22826087890E+03  0.00000000000E+00 0. -1.
          2    1    1    2  501    0 -0.57768588983E+02  0.16144123808E+03 -0.54113192737E+03  0.56764799484E+03  0.00000000000E+00 0. -1.
<scales pt_clust_3="81.76812" pt_clust_4="34.84276" pt_clust_5="191.18751" pt_clust_6="34.84276"></scales>
<clustering>
<clus scale="   34.843">  4  6 -1 -1</clus>
<clus scale="   81.768">  2  3  1 -1</clus>
<clus scale="  191.188">  1  5  2 -1</clus>
<clus scale="  191.188">  1  3  2 -1</clus>
</clustering>
</event>
<event>
 6    0  0.1622933E+002  0.1441079E+03  0.7546771E-02  0.1207906E+00
         21   -1    0    0  503  502  0.00000000000E+00  0.00000000000E+00  0.27381500652E+03  0.27381500652E+03  0.00000000000E+00 0. -1.
          3   -1    0    0  504    0 -0.00000000000E+00 -0.00000000000E+00 -0.14494715830E+03  0.14494715830E+03  0.00000000000E+00 0. -1.
         21    1    1    2  503  501 -0.30665785872E+01  0.78744684023E+02 -0.38319268444E+02  0.87627024942E+02  0.00000000000E+00 0. -1.
         21    1    1    2  504  505 -0.43144079507E+01 -0.10723847504E+03  0.48974176451E+02  0.11797107528E+03  0.00000000000E+00 0. -1.
         21    1    1    2  505  502 -0.40858451786E+02 -0.33866480173E+02  0.12322233973E+03  0.13416443855E+03  0.00000000000E+00 0. -1.
          3    1    1    2  501    0  0.48239438324E+02  0.62360271189E+02 -0.50093995149E+01  0.78999626050E+02  0.00000000000E+00 0. -1.
<scales pt_clust_3="59.24659" pt_clust_4="129.73516" pt_clust_5="53.06931" pt_clust_6="59.24659"></scales>
<clustering>
<clus scale="   53.069">  1  5  2 -1</clus>
<clus scale="   59.247">  3  6 -1 -1</clus>
<clus scale="  129.735">  1  4  2 -1</clus>
<clus scale="   53.069">  1  3  2 -1</clus>
</clustering>
</event>
<event>
 6    0  0.1622933E+002  0.8979096E+02  0.7546771E-02  0.1303359E+00
          2   -1    0    0  505    0 -0.00000000000E+00  0.00000000000E+00  0.97858939369E+03  0.97858939369E+03  0.00000000000E+00 0. -1.
         21   -1    0    0  504  502  0.00000000000E+00 -0.00000000000E+00 -0.17982045196E+03  0.17982045196E+03  0.00000000000E+00 0. -1.
         21    1    1    2  503  502  0.83550115686E+02  0.32240732954E+02 -0.11572317242E+03  0.14632819047E+03  0.00000000000E+00 0. -1.
         21    1    1    2  504  501  0.61914321336E+02 -0.63776351445E+02  0.20715928194E+02  0.91268591920E+02  0.00000000000E+00 0. -1.
         21    1    1    2  505  503 -0.10253548236E+03  0.95673209305E+01  0.19630744369E+03  0.22167920791E+03  0.00000000000E+00 0. -1.
          2    1    1    2  501    0 -0.42928954660E+02  0.21968297560E+02  0.69746874227E+03  0.69913385535E+03  0.00000000000E+00 0. -1.
<scales pt_clust_3="89.79096" pt_clust_4="79.82426" pt_clust_5="14000.00000" pt_clust_6="48.22345"></scales>
<clustering>
<clus scale="   48.223">  1  6  2 -1</clus>
<clus scale="   79.824">  1  4  2 -1</clus>
<clus scale="   89.791">  2  3  1 -1</clus>
<clus scale="   89.791">  2  3  1 -1</clus>
</clustering>
</event>
<event>
 6    0  0.1622933E+002  0.8914581E+02  0.7546771E-02  0.1304934E+00
          1   -1    0    0  505    0 -0.00000000000E+00  0.00000000000E+00  0.31799894365E+04  0.31799894365E+04  0.00000000000E+00 0. -1.
         21   -1    0    0  504  502  0.00000000000E+00 -0.00000000000E+00 -0.45629623937E+02  0.45629623937E+02  0.00000000000E+00 0. -1.
         21    1    1    2  503  502  0.42907202850E+02  0.80695143822E+02  0.91975776613E+01  0.91854938504E+02  0.00000000000E+00 0. -1.
         21    1    1    2  504  501 -0.33581211241E+02 -0.54270873678E+02  0.57046024047E+03  0.57401908630E+03  0.00000000000E+00 0. -1.
         21    1    1    2  505  503 -0.15924874558E+02  0.45296868509E+02  0.29391586984E+03  0.29781193137E+03  0.00000000000E+00 0. -1.
          1    1    1    2  501    0  0.65988829489E+01 -0.71721138653E+02  0.22607861246E+04  0.22619331043E+04  0.00000000000E+00 0. -1.
<scales pt_clust_3="89.14581" pt_clust_4="14000.00000" pt_clust_5="48.01466" pt_clust_6="36.68072"></scales>
<clustering>
<clus scale="   48.015">  1  5  2 -1</clus>
<clus scale="   36.681">  1  6  2 -1</clus>
<clus scale="   89.146">  2  3  1 -1</clus>
<clus scale="   89.146">  2  3  1 -1</clus>
</clustering>
</event>
<event>
 6    0  0.1622933E+002  0.1633250E+03  0.7546771E-02  0.1184993E+00
         21   -1    0    0  504  502  0.00000000000E+00  0.00000000000E+00  0.11348039655E+04  0.11348039655E+04  0.00000000000E+00 0. -1.
          2   -1    0    0  503    0 -0.00000000000E+00 -0.00000000000E+00 -0.52044315483E+03  0.52044315483E+03  0.00000000000E+00 0. -1.
         21    1    1    2  503  505  0.31606207471E+02  0.18006183058E+02 -0.26123311669E+02  0.44783952389E+02  0.00000000000E+00 0. -1.
         21    1    1    2  504  501 -0.64718700194E+02 -0.86454644967E+01  0.99089742412E+03  0.99304630272E+03  0.00000000000E+00 0. -1.
         21    1    1    2  505  502 -0.72714042803E+02  0.13927940916E+03 -0.39880975208E+03  0.42864356310E+03  0.00000000000E+00 0. -1.
          2    1    1    2  501    0  0.10582653553E+03 -0.14864012772E+03  0.48396450291E+02  0.18877330212E+03  0.00000000000E+00 0. -1.
<scales pt_clust_3="36.37547" pt_clust_4="65.21892" pt_clust_5="163.32502" pt_clust_6="14000.00000"></scales>
<clustering>
<clus scale="   36.375">  2  3  1 -1</clus>
<clus scale="   65.219">  1  4  2 -1</clus>
<clus scale="  163.325">  2  5  1 -1</clus>
<clus scale="   65.219">  1  3  2 -1</clus>
</clustering>
</event>
<event>
 6    0  0.1622933E+002  0.9546323E+02  0.7546771E-02  0.1290136E+00
         21   -1    0    0  503  502  0.00000000000E+00  0.00000000000E+00  0.61840263993E+02  0.61840263993E+02  0.00000000000E+00 0. -1.
          2   -1    0    0  505    0 -0.00000000000E+00 -0.00000000000E+00 -0.69369415946E+03  0.69369415946E+03  0.00000000000E+00 0. -1.
         21    1    1    2  503  501 -0.30089573068E+02  0.35273562380E+02 -0.33995810204E+02  0.57491927449E+02  0.00000000000E+00 0. -1.
         21    1    1    2  504  502 -0.39127539366E+02 -0.12203822074E+02  0.21129693438E+02  0.46112488057E+02  0.00000000000E+00 0. -1.
         21    1    1    2  505  504 -0.40798523786E+01 -0.98976562822E+02 -0.30568126253E+03  0.32133166580E+03  0.00000000000E+00 0.  1.
          2    1    1    2  501    0  0.73296964812E+02  0.75906822517E+02 -0.31330651618E+03  0.33059834215E+03  0.00000000000E+00 0. -1.
<scales pt_clust_3="55.34094" pt_clust_4="40.98655" pt_clust_5="95.46323" pt_clust_6="14000.00000"></scales>
<clustering>
<clus scale="   40.987">  1  4  2 -1</clus>
<clus scale="   55.341">  1  3  2 -1</clus>
<clus scale="   95.463">  2  5  1 -1</clus>
<clus scale="   40.987">  1  3  2 -1</clus>
</clustering>
</event>
<event>
 6    0  0.1622933E+002  0.2334472E+03  0.7546771E-02  0.1124237E+00
         21   -1    0    0  503  502  0.00000000000E+00  0.00000000000E+00  0.41514572621E+03  0.41514572621E+03  0.00000000000E+00 0.  1.
          2   -1    0    0  504    0 -0.00000000000E+00 -0.00000000000E+00 -0.10707349425E+04  0.10707349425E+04  0.00000000000E+00 0. -1.
         21    1    1    2  503  505  0.29402071548E+02 -0.15805469941E+02  0.33375143733E+03  0.33541663139E+03  0.00000000000E+00 0.  1.
         21    1    1    2  504  502  0.20108554353E+03  0.94225907877E+01 -0.22519828589E+03  0.30205702938E+03  0.00000000000E+00 0. -1.
         21    1    1    2  505  501  0.13417242963E+02 -0.89371535882E+02 -0.10184996830E+03  0.13616427533E+03  0.00000000000E+00 0. -1.
          2    1    1    2  501    0 -0.24390485804E+03  0.95754415035E+02 -0.66229239944E+03  0.71224273260E+03  0.00000000000E+00 0. -1.
<scales pt_clust_3="33.38105" pt_clust_4="14000.00000" pt_clust_5="94.80257" pt_clust_6="233.44715"></scales>
<clustering>
<clus scale="   33.381">  1  3  2 -1</clus>
<clus scale="   94.803">  1  5  2 -1</clus>
<clus scale="  233.447">  2  6  1 -1</clus>
<clus scale="   33.381">  1  3  2 -1</clus>
</clustering>
</event>
<event>
 6    0  0.1622933E+002  0.9504139E+02  0.7546771E-02  0.1291083E+00
         -2   -1    0    0    0  501 -0.00000000000E+00  0.00000000000E+00  0.10431252999E+04  0.10431252999E+04  0.00000000000E+00 0.  1.
         21   -1    0    0  505  502  0.00000000000E+00 -0.00000000000E+00 -0.18518733941E+03  0.18518733941E+03  0.00000000000E+00 0. -1.
         21    1    1    2  503  502  0.32945309003E+02 -0.13892491728E+02 -0.14435548829E+03  0.14871752321E+03  0.00000000000E+00 0. -1.
         21    1    1    2  504  503 -0.32783509309E+02 -0.34970545958E+02  0.33369393648E+02  0.58405599044E+02  0.00000000000E+00 0.  1.
         21    1    1    2  505  501  0.78770243527E+02 -0.89185075508E+01  0.43139666102E+02  0.90251436740E+02  0.00000000000E+00 0. -1.
         -2    1    1    2    0  504 -0.78932043221E+02  0.57781545237E+02  0.92578438898E+03  0.93093808027E+03  0.00000000000E+00 0.  1.
<scales pt_clust_3="35.75465" pt_clust_4="45.24244" pt_clust_5="95.04139" pt_clust_6="14000.00000"></scales>
<clustering>
<clus scale="   35.755">  2  3  1 -1</clus>
<clus scale="   45.242">  2  4  1 -1</clus>
<clus scale="   95.041">  2  5  1 -1</clus>
<clus scale="   35.755">  2  3  1 -1</clus>
</clustering>
</event>
<event>
 6    0  0.1622933E+002  0.8906051E+02  0.7546771E-02  0.1305143E+00
         21   -1    0    0  505  502  0.00000000000E+00  0.00000000000E+00  0.16043784703E+03  0.16043784703E+03  0.00000000000E+00 0.  1.
          2   -1    0    0  503    0 -0.00000000000E+00 -0.00000000000E+00 -0.18207139019E+04  0.18207139019E+04  0.00000000000E+00 0.  1.
         21    1    1    2  503  502  0.20332667394E+02  0.38497759997E+02 -0.27278848713E+03  0.27624093396E+03  0.00000000000E+00 0. -1.
         21    1    1    2  504  501  0.64012661639E+02 -0.19948389483E+02 -0.15243156416E+03  0.16652609659E+03  0.00000000000E+00 0. -1.
         21    1    1    2  505  504  0.31281547265E+02  0.94385333875E+00  0.14754130838E+03  0.15082394948E+03  0.00000000000E+00 0.  1.
          2    1    1    2  501    0 -0.11562687630E+03 -0.19493223852E+02 -0.13825973120E+04  0.13875607689E+04  0.00000000000E+00 0.  1.
<scales pt_clust_3="46.09532" pt_clust_4="14000.00000" pt_clust_5="31.29578" pt_clust_6="89.06051"></scales>
<clustering>
<clus scale="   31.296">  1  5  2 -1</clus>
<clus scale="   46.095">  2  3  1 -1</clus>
<clus scale="   89.061">  2  6  1 -1</clus>
<clus scale="   31.296">  1  3  2 -1</clus>
</clustering>
</event>
<event>
 6    0  0.1622933E+002  0.9556660E+02  0.7546771E-02  0.1289905E+00
          2   -1    0    0  503    0 -0.00000000000E+00  0.00000000000E+00  0.66547644007E+03  0.66547644007E+03  0.00000000000E+00 0. -1.
         21   -1    0    0  501  502  0.00000000000E+00 -0.00000000000E+00 -0.93598610298E+02  0.93598610298E+02  0.00000000000E+00 0. -1.
         21    1    1    2  503  505 -0.39615060068E+02 -0.14708710111E+01  0.32500062324E+03  0.32740940969E+03  0.00000000000E+00 0. -1.
         21    1    1    2  504  502 -0.50671688045E+02 -0.79567956132E+02 -0.26384578658E+02  0.97953180670E+02  0.00000000000E+00 0. -1.
         21    1    1    2  505  504 -0.29972312111E+02  0.45870042527E+02  0.14221218747E+03  0.15240310548E+03  0.00000000000E+00 0.  1.
          2    1    1    2  501    0  0.12025906022E+03  0.35168784616E+02  0.13104959771E+03  0.18130935453E+03  0.00000000000E+00 0. -1.
<scales pt_clust_3="39.64236" pt_clust_4="95.56660" pt_clust_5="65.35399" pt_clust_6="14000.00000"></scales>
<clustering>
<clus scale="   39.642">  1  3  2 -1</clus>
<clus scale="   65.354">  1  5  2 -1</clus>
<clus scale="   95.567">  2  4  1 -1</clus>
<clus scale="   95.567">  2  3  1 -1</clus>
</clustering>
</event>
<event>
 6    0  0.1622933E+002  0.1285180E+03  0.7546771E-02  0.1229672E+00
         21   -1    0    0  504  502  0.00000000000E+00  0.00000000000E+00  0.32889514796E+03  0.32889514796E+03  0.00000000000E+00 0.  1.
         -1   -1    0    0    0  501 -0.00000000000E+00 -0.00000000000E+00 -0.14002977259E+03  0.14002977259E+03  0.00000000000E+00 0.  1.
         21    1    1    2  503  502 -0.39180762152E+02  0.17574987375E+02 -0.38559753380E+02  0.57713662895E+02  0.00000000000E+00 0.  1.
         21    1    1    2  504  505  0.40483606686E+02 -0.26128145434E+02  0.20941902345E+03  0.21489050648E+03  0.00000000000E+00 0.  1.
         21    1    1    2  505  501  0.94908600641E+02  0.66275115013E+01  0.29006644803E+02  0.99463319003E+02  0.00000000000E+00 0.  1.
         -1    1    1    2    0  503 -0.96211445175E+02  0.19256465577E+01 -0.11000539503E+02  0.96857432171E+02  0.00000000000E+00 0.  1.
<scales pt_clust_3="34.86917" pt_clust_4="48.18301" pt_clust_5="117.44016" pt_clust_6="34.86917"></scales>
<clustering>
<clus scale="   34.869">  3  6 -1 -1</clus>
<clus scale="   48.183">  1  4  2 -1</clus>
<clus scale="  117.440">  1  5  2 -1</clus>
<clus scale="   48.183">  1  3  2 -1</clus>
</clustering>
</event>
<event>
 6    0  0.1622933E+002  0.1368094E+03  0.7546771E-02  0.1217688E+00
         -2   -1    0    0    0  501 -0.00000000000E+00  0.00000000000E+00  0.12653622386E+03  0.12653622386E+03  0.00000000000E+00 0.  1.
         21   -1    0    0  503  502  0.00000000000E+00 -0.00000000000E+00 -0.63289256686E+03  0.63289256686E+03  0.00000000000E+00 0.  1.
         21    1    1    2  503  501 -0.78974499125E+02  0.92527698364E+02  0.25886393352E+02  0.12437223097E+03  0.00000000000E+00 0.  1.
         21    1    1    2  504  502  0.35192672884E+02  0.62312039108E+02 -0.43660698707E+03  0.44243301821E+03  0.00000000000E+00 0.  1.
         21    1    1    2  505  504 -0.62718383276E+00 -0.53969630823E+02 -0.49182210002E+02  0.73020573754E+02  0.00000000000E+00 0. -1.
         -2    1    1    2    0  505  0.44409010074E+02 -0.10087010665E+03 -0.46453539281E+02  0.11960296778E+03  0.00000000000E+00 0.  1.
<scales pt_clust_3="129.04022" pt_clust_4="71.56336" pt_clust_5="31.80379" pt_clust_6="31.80379"></scales>
<clustering>
<clus scale="   31.804">  5  6 -1 -1</clus>
<clus scale="   71.563">  2  4  1 -1</clus>
<clus scale="  129.040">  1  3  2 -1</clus>
<clus scale="   71.563">  2  3  1 -1</clus>
</clustering>
</event>
<event>
 6    0  0.1622933E+002  0.1104131E+03  0.7546771E-02  0.1259807E+00
         21   -1    0    0  501  502  0.00000000000E+00  0.00000000000E+00  0.18193884176E+03  0.18193884176E+03  0.00000000000E+00 0.  1.
          1   -1    0    0  505    0 -0.00000000000E+00 -0.00000000000E+00 -0.90194071195E+03  0.90194071195E+03  0.00000000000E+00 0. -1.
         21    1    1    2  503  504 -0.71587826641E+02  0.23364263490E+02 -0.14558956984E+03  0.16391164870E+03  0.00000000000E+00 0.  1.
         21    1    1    2  504  502  0.11513191490E+03 -0.47155335612E+01  0.14824398698E+03  0.18776014956E+03  0.00000000000E+00 0.  1.
         21    1    1    2  505  503  0.10654160705E+02  0.36666780037E+02 -0.17607802924E+03  0.18017057551E+03  0.00000000000E+00 0.  1.
          1    1    1    2  501    0 -0.54198248969E+02 -0.55315509965E+02 -0.54657825808E+03  0.55203717995E+03  0.00000000000E+00 0. -1.
<scales pt_clust_3="14000.00000" pt_clust_4="110.41306" pt_clust_5="38.18329" pt_clust_6="53.68451"></scales>
<clustering>
<clus scale="   38.183">  2  5  1 -1</clus>
<clus scale="   53.685">  2  6  1 -1</clus>
<clus scale="  110.413">  1  4  2 -1</clus>
<clus scale="  110.413">  1  3  2 -1</clus>
</clustering>
</event>
<event>
 6    0  0.1622933E+002  0.9905229E+02  0.7546771E-02  0.1282302E+00
         21   -1    0    0  505  502  0.00000000000E+00  0.00000000000E+00  0.31295662771E+02  0.31295662771E+02  0.00000000000E+00 0.  1.
          2   -1    0    0  504    0 -0.00000000000E+00 -0.00000000000E+00 -0.13861789220E+04  0.13861789220E+04  0.00000000000E+00 0.  1.
         21    1    1    2  503  502  0.97245029642E+02  0.18232482748E+02 -0.79612461773E+02  0.12699276864E+03  0.00000000000E+00 0.  1.
         21    1    1    2  504  503  0.33519696337E+02 -0.13239214735E+01 -0.11445504098E+03  0.11926977495E+03  0.00000000000E+00 0.  1.
         21    1    1    2  505  501 -0.92788729245E+02 -0.43731811011E+02 -0.62278803346E+03  0.63117917756E+03  0.00000000000E+00 0.  1.
          2    1    1    2  501    0 -0.37975996733E+02  0.26823249737E+02 -0.53802772299E+03  0.54003286360E+03  0.00000000000E+00 0.  1.
<scales pt_clust_3="14000.00000" pt_clust_4="33.54583" pt_clust_5="99.05229" pt_clust_6="35.40196"></scales>
<clustering>
<clus scale="   33.546">  2  4  1 -1</clus>
<clus scale="   35.402">  2  6  1 -1</clus>
<clus scale="   99.052">  2  5  1 -1</clus>
<clus scale="   99.052">  1  3  2 -1</clus>
</clustering>
</event>
<event>
 6    0  0.1622933E+002  0.1275085E+03  0.7546771E-02  0.1231200E+00
          2   -1    0    0  503    0 -0.00000000000E+00  0.00000000000E+00  0.68145290009E+03  0.68145290009E+03  0.00000000000E+00 0.  1.
         21   -1    0    0  501  502  0.00000000000E+00 -0.00000000000E+00 -0.97340116415E+02  0.97340116415E+02  0.00000000000E+00 0.  1.
         21    1    1    2  503  504 -0.40151729987E+02  0.79883048271E+01  0.47583766482E+03  0.47759549590E+03  0.00000000000E+00 0.  1.
         21    1    1    2  504  505 -0.44759354160E+02 -0.18535186467E+02  0.12059666033E+02  0.49923826647E+02  0.00000000000E+00 0.  1.
         21    1    1    2  505  502 -0.60669805853E+02  0.24926217165E+02 -0.15270951817E+02  0.67344959825E+02  0.00000000000E+00 0.  1.
          2    1    1    2  501    0  0.14558089000E+03 -0.14379335525E+02  0.11148640464E+03  0.18392873414E+03  0.00000000000E+00 0.  1.
<scales pt_clust_3="40.93867" pt_clust_4="44.31629" pt_clust_5="44.31629" pt_clust_6="116.93119"></scales>
<clustering>
<clus scale="   40.939">  1  3  2 -1</clus>
<clus scale="   44.316">  4  5 -1 -1</clus>
<clus scale="  116.931">  1  6  2 -1</clus>
<clus scale="  127.508">  2  3  1 -1</clus>
</clustering>
</event>
<event>
 6    0  0.1622933E+002  0.1529393E+03  0.7546771E-02  0.1196907E+00
          2   -1    0    0  504    0 -0.00000000000E+00  0.00000000000E+00  0.19233858506E+04  0.19233858506E+04  0.00000000000E+00 0.  1.
         21   -1    0    0  505  502  0.00000000000E+00 -0.00000000000E+00 -0.20233214672E+02  0.20233214672E+02  0.00000000000E+00 0.  1.
         21    1    1    2  503  501  0.12945323696E+02  0.61056292480E+02  0.33914038835E+03  0.34483569315E+03  0.00000000000E+00 0.  1.
         21    1    1    2  504  502  0.73788176418E+02 -0.14754251820E+03  0.11563126709E+04  0.11680207544E+04  0.00000000000E+00 0.  1.
         21    1    1    2  505  503 -0.37851271438E+02  0.42166890924E+02  0.90519009134E+02  0.10679164974E+03  0.00000000000E+00 0.  1.
          2    1    1    2  501    0 -0.48882228675E+02  0.44319334793E+02  0.31718056745E+03  0.32397096796E+03  0.00000000000E+00 0.  1.
<scales pt_clust_3="60.04923" pt_clust_4="138.71107" pt_clust_5="56.66362" pt_clust_6="60.04923"></scales>
<clustering>
<clus scale="   56.664">  2  5  1 -1</clus>
<clus scale="   60.049">  3  6 -1 -1</clus>
<clus scale="  138.711">  2  4  1 -1</clus>
<clus scale="   56.664">  2  3  1 -1</clus>
</clustering>
</event>
<event>
 6    0  0.1622933E+002  0.1040239E+03  0.7546771E-02  0.1272055E+00
         21   -1    0    0  505  502  0.00000000000E+00  0.00000000000E+00  0.28271531593E+04  0.28271531593E+04  0.00000000000E+00 0. -1.
          1   -1    0    0  503    0 -0.00000000000E+00 -0.00000000000E+00 -0.48541517416E+03  0.48541517416E+03  0.00000000000E+00 0. -1.
         21    1    1    2  503  504 -0.33014124558E+02 -0.28644306480E+02 -0.22569574770E+03  0.22988910206E+03  0.00000000000E+00 0. -1.
         21    1    1    2  504  502 -0.22561631592E+01 -0.44960195644E+02  0.19695758111E+01  0.45059834592E+02  0.00000000000E+00 0.  1.
         21    1    1    2  505  501  0.90521896254E+02  0.51810567755E+02  0.27968185066E+04  0.27987626386E+04  0.00000000000E+00 0. -1.
          1    1    1    2  501    0 -0.55251608537E+02  0.21793934370E+02 -0.23135434961E+03  0.23885675813E+03  0.00000000000E+00 0. -1.
<scales pt_clust_3="43.70845" pt_clust_4="47.62077" pt_clust_5="14000.00000" pt_clust_6="104.02386"></scales>
<clustering>
<clus scale="   43.708">  2  3  1 -1</clus>
<clus scale="   47.621">  2  4  1 -1</clus>
<clus scale="  104.024">  2  6  1 -1</clus>
<clus scale="  104.024">  1  3  2 -1</clus>
</clustering>
</event>
<event>
 6    0  0.1622933E+002  0.1416255E+03  0.7546771E-02  0.1211158E+00
         21   -1    0    0  503  502  0.00000000000E+00  0.00000000000E+00  0.62877900479E+03  0.62877900479E+03  0.00000000000E+00 0. -1.
          2   -1    0    0  504    0 -0.00000000000E+00 -0.00000000000E+00 -0.69015101879E+03  0.69015101879E+03  0.00000000000E+00 0.  1.
         21    1    1    2  503  501  0.85378815301E+02 -0.55587316224E+02  0.27373881788E+03  0.29208292015E+03  0.00000000000E+00 0. -1.
         21    1    1    2  504  505 -0.41034017059E+02 -0.36666333399E+02 -0.14447733614E+03  0.15460242954E+03  0.00000000000E+00 0.  1.
         21    1    1    2  505  502  0.60601125173E+02  0.59295426448E+02  0.32969189353E+03  0.34041913669E+03  0.00000000000E+00 0. -1.
          2    1    1    2  501    0 -0.10494592341E+03  0.32958223175E+02 -0.52032538926E+03  0.53182553721E+03  0.00000000000E+00 0.  1.
<scales pt_clust_3="141.62551" pt_clust_4="55.02918" pt_clust_5="84.23929" pt_clust_6="14000.00000"></scales>
<clustering>
<clus scale="   55.029">  2  4  1 -1</clus>
<clus scale="   84.239">  1  5  2 -1</clus>
<clus scale="  141.626">  1  3  2 -1</clus>
<clus scale="   84.239">  1  3  2 -1</clus>
</clustering>
</event>
<event>
 6    0  0.1622933E+002  0.1028988E+03  0.7546771E-02  0.1274316E+00
          2   -1    0    0  505    0 -0.00000000000E+00  0.00000000000E+00  0.33855559639E+04  0.33855559639E+04  0.00000000000E+00 0. -1.
         21   -1    0    0  503  502  0.00000000000E+00 -0.00000000000E+00 -0.60561868487E+02  0.60561868487E+02  0.00000000000E+00 0.  1.
         21    1    1    2  503  504 -0.20104382970E+02 -0.23029170669E+02 -0.50265256768E+02  0.58831326300E+02  0.00000000000E+00 0.  1.
         21    1    1    2  504  501  0.47905232674E+02  0.27822570502E+02  0.43056459684E+03  0.43411390072E+03  0.00000000000E+00 0. -1.
         21    1    1    2  505  502 -0.48772834193E+02 -0.10181505134E+03  0.10918724717E+04  0.10976933035E+04  0.00000000000E+00 0. -1.
          2    1    1    2  501    0  0.20971984489E+02  0.97021651510E+02  0.18528222836E+04  0.18554793019E+04  0.00000000000E+00 0. -1.
<scales pt_clust_3="30.57007" pt_clust_4="46.94449" pt_clust_5="102.89880" pt_clust_6="14000.00000"></scales>
<clustering>
<clus scale="   30.570">  2  3  1 -1</clus>
<clus scale="   46.944">  2  4  1 -1</clus>
<clus scale="  102.899">  2  5  1 -1</clus>
<clus scale="   30.570">  2  3  1 -1</clus>
</clustering>
</event>
<event>
 6    0  0.1622933E+002  0.1755762E+03  0.7546771E-02  0.1172154E+00
         21   -1    0    0  503  502  0.00000000000E+00  0.00000000000E+00  0.10774013953E+03  0.10774013953E+03  0.00000000000E+00 0.  1.
          3   -1    0    0  505    0 -0.00000000000E+00 -0.00000000000E+00 -0.10619771619E+04  0.10619771619E+04  0.00000000000E+00 0. -1.
         21    1    1    2  503  504 -0.24378852539E+02  0.23214221293E+02 -0.27040228644E+02  0.43178727245E+02  0.00000000000E+00 0. -1.
         21    1    1    2  504  501  0.19663497068E+03 -0.68230383399E+02 -0.38815537574E+02  0.21172468650E+03  0.00000000000E+00 0.  1.
         21    1    1    2  505  502 -0.48580280346E+02 -0.41037099677E+02 -0.35081588947E+03  0.35653313380E+03  0.00000000000E+00 0. -1.
          3    1    1    2  501    0 -0.12367583780E+03  0.86053261783E+02 -0.53756536670E+03  0.55828075392E+03  0.00000000000E+00 0. -1.
<scales pt_clust_3="33.66346" pt_clust_4="175.57621" pt_clust_5="63.70486" pt_clust_6="14000.00000"></scales>
<clustering>
<clus scale="   33.663">  1  3  2 -1</clus>
<clus scale="   63.705">  2  5  1 -1</clus>
<clus scale="  175.576">  1  4  2 -1</clus>
<clus scale="   33.663">  1  3  2 -1</clus>
</clustering>
</event>
<event>
 6    0  0.1622933E+002  0.1719022E+03  0.7546771E-02  0.1175879E+00
         21   -1    0    0  501  502  0.00000000000E+00  0.00000000000E+00  0.40783053290E+03  0.40783053290E+03  0.00000000000E+00 0.  1.
          2   -1    0    0  505    0 -0.00000000000E+00 -0.00000000000E+00 -0.25746695895E+04  0.25746695895E+04  0.00000000000E+00 0.  1.
         21    1    1    2  503  504 -0.57341378651E+02 -0.60102009616E+02 -0.39677736320E+03  0.40537952737E+03  0.00000000000E+00 0.  1.
         21    1    1    2  504  502  0.87329179815E+02  0.14878158997E+03  0.38076707980E+03  0.41802621475E+03  0.00000000000E+00 0.  1.
         21    1    1    2  505  503 -0.23693024877E+02  0.30335433284E+02 -0.15491157146E+03  0.15962203141E+03  0.00000000000E+00 0. -1.
          2    1    1    2  501    0 -0.62947762864E+01 -0.11901501364E+03 -0.19959172017E+04  0.19994723489E+04  0.00000000000E+00 0.  1.
<scales pt_clust_3="82.38260" pt_clust_4="14000.00000" pt_clust_5="38.49153" pt_clust_6="171.90223"></scales>
<clustering>
<clus scale="   38.492">  2  5  1 -1</clus>
<clus scale="   82.383">  2  3  1 -1</clus>
<clus scale="  171.902">  2  6  1 -1</clus>
<clus scale="  171.902">  1  3  2 -1</clus>
</clustering>
</event>
<event>
 6    0  0.1622933E+002  0.1016592E+03  0.7546771E-02  0.1276845E+00
         21   -1    0    0  505  502  0.00000000000E+00  0.00000000000E+00  0.26610071799E+04  0.26610071799E+04  0.00000000000E+00 0. -1.
          2   -1    0    0  504    0 -0.00000000000E+00 -0.00000000000E+00 -0.49355166201E+02  0.49355166201E+02  0.00000000000E+00 0.  1.
         21    1    1    2  503  501 -0.56839267440E+02 -0.59019808336E+02  0.13622303100E+03  0.15896777747E+03  0.00000000000E+00 0.  1.
         21    1    1    2  504  502 -0.18974424852E+02  0.27845194948E+02  0.89618975814E+02  0.95744161734E+02  0.00000000000E+00 0. -1.
         21    1    1    2  505  503 -0.54515295029E+01 -0.51658671532E+02  0.23232305271E+04  0.23238111842E+04  0.00000000000E+00 0. -1.
          2    1    1    2  501    0  0.81265221795E+02  0.82833284920E+02  0.62579479776E+02  0.13183922274E+03  0.00000000000E+00 0.  1.
<scales pt_clust_3="14000.00000" pt_clust_4="33.69545" pt_clust_5="51.78452" pt_clust_6="101.65918"></scales>
<clustering>
<clus scale="   33.695">  2  4  1 -1</clus>
<clus scale="   51.785">  1  5  2 -1</clus>
<clus scale="  101.659">  2  6  1 -1</clus>
<clus scale="   51.785">  1  3  2 -1</clus>
</clustering>
</event>
<event>
 6    0  0.1622933E+002  0.1865832E+03  0.7546771E-02  0.1161580E+00
          2   -1    0    0  505    0 -0.00000000000E+00  0.00000000000E+00  0.44653773812E+03  0.44653773812E+03  0.00000000000E+00 0.  1.
         21   -1    0    0  501  502  0.00000000000E+00 -0.00000000000E+00 -0.61164516864E+03  0.61164516864E+03  0.00000000000E+00 0.  1.
         21    1    1    2  503  502 -0.33105224906E+02 -0.47224241326E+02 -0.45360761117E+03  0.45725917136E+03  0.00000000000E+00 0.  1.
         21    1    1    2  504  503  0.11493875229E+01 -0.16108361855E+03 -0.53544111773E+02  0.16975342460E+03  0.00000000000E+00 0.  1.
         21    1    1    2  505  504  0.14989128266E+02  0.52438595938E+02 -0.39855545572E+00  0.54540252626E+02  0.00000000000E+00 0.  1.
          2    1    1    2  501    0  0.16966709117E+02  0.15586926394E+03  0.34244284788E+03  0.37663005817E+03  0.00000000000E+00 0.  1.
<scales pt_clust_3="57.44793" pt_clust_4="186.58316" pt_clust_5="54.53880" pt_clust_6="14000.00000"></scales>
<clustering>
<clus scale="   54.539">  1  5  2 -1</clus>
<clus scale="   57.448">  2  3  1 -1</clus>
<clus scale="  186.583">  2  4  1 -1</clus>
<clus scale="   57.448">  2  3  1 -1</clus>
</clustering>
</event>
<event>
 6    0  0.1622933E+002  0.1465800E+03  0.7546771E-02  0.1204740E+00
         21   -1    0    0  501  502  0.00000000000E+00  0.00000000000E+00  0.31032505147E+03  0.31032505147E+03  0.00000000000E+00 0.  1.
          2   -1    0    0  503    0 -0.00000000000E+00 -0.00000000000E+00 -0.10651170756E+04  0.10651170756E+04  0.00000000000E+00 0. -1.
         21    1    1    2  503  505 -0.11007640134E+02  0.28897548148E+02 -0.46392355774E+02  0.55753807982E+02  0.00000000000E+00 0. -1.
         21    1    1    2  504  502 -0.31383457694E+02  0.14206225923E+03  0.24183097482E+03  0.28222123821E+03  0.00000000000E+00 0.  1.
         21    1    1    2  505  504  0.12577518786E+03  0.42547538493E+02 -0.13003718315E+03  0.18584767934E+03  0.00000000000E+00 0. -1.
          2    1    1    2  501    0 -0.83384090034E+02 -0.21350734587E+03 -0.82019346001E+03  0.85161940153E+03  0.00000000000E+00 0. -1.
<scales pt_clust_3="30.92307" pt_clust_4="14000.00000" pt_clust_5="132.68238" pt_clust_6="146.58001"></scales>
<clustering>
<clus scale="   30.923">  2  3  1 -1</clus>
<clus scale="  132.682">  2  5  1 -1</clus>
<clus scale="  146.580">  2  6  1 -1</clus>
<clus scale="  146.580">  1  3  2 -1</clus>
</clustering>
</event>
<event>
 6    0  0.1622933E+002  0.1335042E+03  0.7546771E-02  0.1222347E+00
          1   -1    0    0  503    0 -0.00000000000E+00  0.00000000000E+00  0.13864432068E+04  0.13864432068E+04  0.00000000000E+00 0.  1.
         21   -1    0    0  501  502  0.00000000000E+00 -0.00000000000E+00 -0.33322386803E+02  0.33322386803E+02  0.00000000000E+00 0.  1.
         21    1    1    2  503  504 -0.84520828447E+02 -0.59907425429E+02  0.39454073958E+03  0.40791551239E+03  0.00000000000E+00 0.  1.
         21    1    1    2  504  505  0.11595067291E+03 -0.83287448797E+02  0.45140897099E+03  0.47344631878E+03  0.00000000000E+00 0.  1.
         21    1    1    2  505  502  0.27200291462E+02  0.24538464109E+02  0.47071967514E+02  0.59646979824E+02  0.00000000000E+00 0. -1.
          1    1    1    2  501    0 -0.58630135926E+02  0.11865641012E+03  0.46009914189E+03  0.47875678258E+03  0.00000000000E+00 0.  1.
<scales pt_clust_3="94.60528" pt_clust_4="133.50421" pt_clust_5="36.63321" pt_clust_6="14000.00000"></scales>
<clustering>
<clus scale="   36.633">  2  5  1 -1</clus>
<clus scale="   94.605">  1  3  2 -1</clus>
<clus scale="  133.504">  2  4  1 -1</clus>
<clus scale="   36.633">  2  3  1 -1</clus>
</clustering>
</event>
<event>
 6    0  0.1622933E+002  0.7353174E+02  0.7546771E-02  0.1348479E+00
          1   -1    0    0  505    0 -0.00000000000E+00  0.00000000000E+00  0.22754696423E+03  0.22754696423E+03  0.00000000000E+00 0.  1.
         21   -1    0    0  504  502  0.00000000000E+00 -0.00000000000E+00 -0.72778828137E+03  0.72778828137E+03  0.00000000000E+00 0. -1.
         21    1    1    2  503  502 -0.22422125202E+02  0.42790945839E+02 -0.65280985720E+03  0.65459493307E+03  0.00000000000E+00 0. -1.
         21    1    1    2  504  501  0.25075528227E+02 -0.67876441675E+02 -0.21445823541E+01  0.72391937975E+02  0.00000000000E+00 0.  1.
         21    1    1    2  505  503 -0.74658756729E+02  0.74442612187E+01  0.25253976456E+02  0.79165082632E+02  0.00000000000E+00 0.  1.
          1    1    1    2  501    0  0.72005353704E+02  0.17641234618E+02  0.12945914596E+03  0.14918329193E+03  0.00000000000E+00 0.  1.
<scales pt_clust_3="48.30959" pt_clust_4="48.36048" pt_clust_5="73.53174" pt_clust_6="14000.00000"></scales>
<clustering>
<clus scale="   48.310">  2  3  1 -1</clus>
<clus scale="   48.360">  2  4  1 -1</clus>
<clus scale="   73.532">  2  5  1 -1</clus>
<clus scale="   48.310">  2  3  1 -1</clus>
</clustering>
</event>
<event>
 6    0  0.1622933E+002  0.1104808E+03  0.7546771E-02  0.1259682E+00
          2   -1    0    0  505    0 -0.00000000000E+00  0.00000000000E+00  0.66602780313E+03  0.66602780313E+03  0.00000000000E+00 0.  1.
         21   -1    0    0  504  502  0.00000000000E+00 -0.00000000000E+00 -0.52143763530E+03  0.52143763530E+03  0.00000000000E+00 0.  1.
         21    1    1    2  503  501  0.32631070341E+02  0.98459967019E+01  0.31140929221E+02  0.46168039544E+02  0.00000000000E+00 0. -1.
         21    1    1    2  504  503  0.22198004023E+02 -0.25402781227E+02 -0.47249070634E+03  0.47369348767E+03  0.00000000000E+00 0.  1.
         21    1    1    2  505  502 -0.94225225247E+02 -0.86532680990E+02  0.82079587098E+02  0.15199788344E+03  0.00000000000E+00 0.  1.
          2    1    1    2  501    0  0.39396150883E+02  0.10208946552E+03  0.50386035785E+03  0.51560602778E+03  0.00000000000E+00 0.  1.
<scales pt_clust_3="36.55983" pt_clust_4="33.73504" pt_clust_5="14000.00000" pt_clust_6="110.48084"></scales>
<clustering>
<clus scale="   33.735">  2  4  1 -1</clus>
<clus scale="   36.560">  2  3  1 -1</clus>
<clus scale="  110.481">  1  6  2 -1</clus>
<clus scale="   33.735">  2  3  1 -1</clus>
</clustering>
</event>
<event>
 6    0  0.1622933E+002  0.1242475E+03  0.7546771E-02  0.1236250E+00
          1   -1    0    0  504    0 -0.00000000000E+00  0.00000000000E+00  0.15181861942E+04  0.15181861942E+04  0.00000000000E+00 0.  1.
         21   -1    0    0  505  502  0.00000000000E+00 -0.00000000000E+00 -0.14603965567E+03  0.14603965567E+03  0.00000000000E+00 0.  1.
         21    1    1    2  503  502 -0.61482234540E+02  0.43381794739E+02 -0.10107688918E+03  0.12601024881E+03  0.00000000000E+00 0.  1.
         21    1    1    2  504  503  0.11615871593E+03  0.11266971847E+03  0.26702335877E+03  0.31223194403E+03  0.00000000000E+00 0.  1.
         21    1    1    2  505  501 -0.60328683572E+02 -0.67289684720E+02  0.25325371437E+03  0.26889569646E+03  0.00000000000E+00 0.  1.
          1    1    1    2  501    0  0.56522021812E+01 -0.88761828488E+02  0.95294635454E+03  0.95708796054E+03  0.00000000000E+00 0.  1.
<scales pt_clust_3="75.24656" pt_clust_4="14000.00000" pt_clust_5="124.24747" pt_clust_6="86.01482"></scales>
<clustering>
<clus scale="   75.247">  2  3  1 -1</clus>
<clus scale="   86.015">  1  6  2 -1</clus>
<clus scale="  124.247">  1  5  2 -1</clus>
<clus scale="   75.247">  2  3  1 -1</clus>
</clustering>
</event>
<event>
 6    0  0.1622933E+002  0.2384571E+03  0.7546771E-02  0.1120825E+00
         21   -1    0    0  504  502  0.00000000000E+00  0.00000000000E+00  0.18490522603E+03  0.18490522603E+03  0.00000000000E+00 0. -1.
          2   -1    0    0  505    0 -0.00000000000E+00 -0.00000000000E+00 -0.18526916771E+04  0.18526916771E+04  0.00000000000E+00 0. -1.
         21    1    1    2  503  502  0.48934626770E+02  0.20997851872E+03  0.93970828296E+02  0.23519373417E+03  0.00000000000E+00 0. -1.
         21    1    1    2  504  501 -0.18221672683E+02 -0.54069761566E+02 -0.16261881387E+03  0.17233817655E+03  0.00000000000E+00 0. -1.
         21    1    1    2  505  503 -0.96904041478E+01  0.65799159274E+02 -0.15232108362E+03  0.16620814002E+03  0.00000000000E+00 0. -1.
          2    1    1    2  501    0 -0.21022549940E+02 -0.22170791643E+03 -0.14468173819E+04  0.14638568524E+04  0.00000000000E+00 0. -1.
<scales pt_clust_3="218.18785" pt_clust_4="48.69707" pt_clust_5="66.50890" pt_clust_6="48.69707"></scales>
<clustering>
<clus scale="   48.697">  4  6 -1 -1</clus>
<clus scale="   66.509">  2  5  1 -1</clus>
<clus scale="  218.188">  1  3  2 -1</clus>
<clus scale="  218.188">  1  3  2 -1</clus>
</clustering>
</event>
<event>
 6    0  0.1622933E+002  0.1247506E+03  0.7546771E-02  0.1235460E+00
          2   -1    0    0  503    0 -0.00000000000E+00  0.00000000000E+00  0.45798285435E+03  0.45798285435E+03  0.00000000000E+00 0.  1.
         21   -1    0    0  504  502  0.00000000000E+00 -0.00000000000E+00 -0.52886647288E+02  0.52886647288E+02  0.00000000000E+00 0.  1.
         21    1    1    2  503  505 -0.22380609294E+02 -0.93467385202E+02  0.11626176242E+03  0.15084376411E+03  0.00000000000E+00 0.  1.
         21    1    1    2  504  501 -0.22034939200E+02  0.94546655502E+02  0.24229168801E+03  0.26101699311E+03  0.00000000000E+00 0. -1.
         21    1    1    2  505  502  0.38203031715E+02 -0.34541935433E+02  0.17899685648E+02  0.54525367325E+02  0.00000000000E+00 0.  1.
          2    1    1    2  501    0  0.62125167784E+01  0.33462665132E+02  0.28643070977E+02  0.44483377091E+02  0.00000000000E+00 0.  1.
<scales pt_clust_3="110.79085" pt_clust_4="33.95205" pt_clust_5="51.50356" pt_clust_6="33.95205"></scales>
<clustering>
<clus scale="   33.952">  4  6 -1 -1</clus>
<clus scale="   51.504">  2  5  1 -1</clus>
<clus scale="  110.791">  2  3  1 -1</clus>
<clus scale="   51.504">  2  3  1 -1</clus>
</clustering>
</event>
<event>
 6    0  0.1622933E+002  0.3111307E+03  0.7546771E-02  0.1079805E+00
         21   -1    0    0  503  502  0.00000000000E+00  0.00000000000E+00  0.21937818124E+03  0.21937818124E+03  0.00000000000E+00 0.  1.
          2   -1    0    0  504    0 -0.00000000000E+00 -0.00000000000E+00 -0.31743165675E+04  0.31743165675E+04  0.00000000000E+00 0.  1.
         21    1    1    2  503  501  0.23394008365E+03  0.21697194084E+03  0.76425102049E+02  0.32809386168E+03  0.00000000000E+00 0.  1.
         21    1    1    2  504  505 -0.47406502375E+02 -0.21349788263E+02 -0.17765809827E+04  0.17773416042E+04  0.00000000000E+00 0.  1.
         21    1    1    2  505  502 -0.19413688853E+03 -0.14955671847E+03 -0.10480267676E+04  0.10762975653E+04  0.00000000000E+00 0.  1.
          2    1    1    2  501    0  0.76033072507E+01 -0.46065434103E+02 -0.20675573806E+03  0.21196171759E+03  0.00000000000E+00 0.  1.
<scales pt_clust_3="311.13066" pt_clust_4="65.06119" pt_clust_5="14000.00000" pt_clust_6="46.68870"></scales>
<clustering>
<clus scale="   46.689">  2  6  1 -1</clus>
<clus scale="   65.061">  2  4  1 -1</clus>
<clus scale="  311.131">  1  3  2 -1</clus>
<clus scale="  311.131">  1  3  2 -1</clus>
</clustering>
</event>
<event>
 6    0  0.1622933E+002  0.1074871E+03  0.7546771E-02  0.1265295E+00
         21   -1    0    0  501  502  0.00000000000E+00  0.00000000000E+00  0.34761726176E+02  0.34761726176E+02  0.00000000000E+00 0.  1.
          1   -1    0    0  504    0 -0.00000000000E+00 -0.00000000000E+00 -0.22618754020E+04  0.22618754020E+04  0.00000000000E+00 0. -1.
         21    1    1    2  503  505 -0.82692333645E+02  0.45770890231E+02 -0.27075880594E+03  0.28678097467E+03  0.00000000000E+00 0.  1.
         21    1    1    2  504  503 -0.35051425262E+02  0.46530895331E+02 -0.54254692461E+03  0.54566554961E+03  0.00000000000E+00 0.  1.
         21    1    1    2  505  502  0.13876537146E+02  0.27462579171E+02  0.94057641433E+01  0.32174833908E+02  0.00000000000E+00 0.  1.
          1    1    1    2  501    0  0.10386722176E+03 -0.11976436473E+03 -0.14232137094E+04  0.14320157700E+04  0.00000000000E+00 0. -1.
<scales pt_clust_3="107.48711" pt_clust_4="59.85137" pt_clust_5="30.76933" pt_clust_6="14000.00000"></scales>
<clustering>
<clus scale="   30.769">  1  5  2 -1</clus>
<clus scale="   59.851">  2  4  1 -1</clus>
<clus scale="  107.487">  1  3  2 -1</clus>
<clus scale="   30.769">  1  3  2 -1</clus>
</clustering>
</event>
<event>
 6    0  0.1622933E+002  0.1396325E+03  0.7546771E-02  0.1213824E+00
          2   -1    0    0  504    0 -0.00000000000E+00  0.00000000000E+00  0.71749898044E+03  0.71749898044E+03  0.00000000000E+00 0.  1.
         21   -1    0    0  505  502  0.00000000000E+00 -0.00000000000E+00 -0.20037928419E+03  0.20037928419E+03  0.00000000000E+00 0. -1.
         21    1    1    2  503  502 -0.47033512089E+02 -0.28449110616E+02 -0.16686095896E+03  0.17568176564E+03  0.00000000000E+00 0. -1.
         21    1    1    2  504  503 -0.15717793038E+02  0.13129819048E+03  0.47999115906E+03  0.49787325357E+03  0.00000000000E+00 0.  1.
         21    1    1    2  505  501 -0.38762521462E+01 -0.45833539072E+02  0.58061158304E+02  0.74073185014E+02  0.00000000000E+00 0.  1.
          2    1    1    2  501    0  0.66627557273E+02 -0.57015540795E+02  0.14592833785E+03  0.17025006040E+03  0.00000000000E+00 0.  1.
<scales pt_clust_3="54.96820" pt_clust_4="126.21712" pt_clust_5="43.25172" pt_clust_6="43.25172"></scales>
<clustering>
<clus scale="   43.252">  5  6 -1 -1</clus>
<clus scale="   54.968">  2  3  1 -1</clus>
<clus scale="  126.217">  1  4  2 -1</clus>
<clus scale="   54.968">  2  3  1 -1</clus>
</clustering>
</event>
<event>
 6    0  0.1622933E+002  0.1022432E+03  0.7546771E-02  0.1275648E+00
         21   -1    0    0  503  502  0.00000000000E+00  0.00000000000E+00  0.12550883646E+04  0.12550883646E+04  0.00000000000E+00 0.  1.
         -2   -1    0    0    0  501 -0.00000000000E+00 -0.00000000000E+00 -0.86883803696E+03  0.86883803696E+03  0.00000000000E+00 0.  1.
         21    1    1    2  503  501 -0.20855984747E+02  0.37861579325E+02  0.12314110305E+04  0.12321694678E+04  0.00000000000E+00 0.  1.
         21    1    1    2  504  502  0.51545170053E+02 -0.12108416542E+03 -0.19964827081E+03  0.23911861431E+03  0.00000000000E+00 0.  1.
         21    1    1    2  505  504 -0.32398676750E+02  0.41380787322E+02 -0.41947919243E+03  0.42275860334E+03  0.00000000000E+00 0.  1.
         -2    1    1    2    0  505  0.17094914447E+01  0.41841798773E+02 -0.22603323961E+03  0.22987971614E+03  0.00000000000E+00 0.  1.
<scales pt_clust_3="43.22582" pt_clust_4="95.24192" pt_clust_5="33.19212" pt_clust_6="33.19212"></scales>
<clustering>
<clus scale="   33.192">  5  6 -1 -1</clus>
<clus scale="   43.226">  1  3  2 -1</clus>
<clus scale="   95.242">  1  4  2 -1</clus>
<clus scale="   43.226">  1  3  2 -1</clus>
</clustering>
</event>
<event>
 6    0  0.1622933E+002  0.1958446E+03  0.7546771E-02  0.1153293E+00
         21   -1    0    0  503  502  0.00000000000E+00  0.00000000000E+00  0.14724465788E+03  0.14724465788E+03  0.00000000000E+00 0. -1.
         -2   -1    0    0    0  501 -0.00000000000E+00 -0.00000000000E+00 -0.92865697051E+03  0.92865697051E+03  0.00000000000E+00 0. -1.
         21    1    1    2  503  501 -0.18430708060E+03  0.81465188659E+02 -0.18782642919E+03  0.27547131325E+03  0.00000000000E+00 0. -1.
         21    1    1    2  504  505  0.48813974313E+02  0.23743742488E+02 -0.82529007609E+02  0.98780597753E+02  0.00000000000E+00 0.  1.
         21    1    1    2  505  502 -0.35181663285E+02 -0.13004086857E+02  0.75252282654E+02  0.84081875284E+02  0.00000000000E+00 0. -1.
         -2    1    1    2    0  504  0.17067476957E+03 -0.92204844291E+02 -0.58630915848E+03  0.61756784210E+03  0.00000000000E+00 0. -1.
<scales pt_clust_3="14000.00000" pt_clust_4="49.79611" pt_clust_5="37.50808" pt_clust_6="195.84459"></scales>
<clustering>
<clus scale="   37.508">  1  5  2 -1</clus>
<clus scale="   49.796">  1  4  2 -1</clus>
<clus scale="  195.845">  2  6  1 -1</clus>
<clus scale="   37.508">  1  3  2 -1</clus>
</clustering>
</event>
<event>
 6    0  0.1622933E+002  0.1178079E+03  0.7546771E-02  0.1246758E+00
          1   -1    0    0  503    0 -0.00000000000E+00  0.00000000000E+00  0.16252545760E+04  0.16252545760E+04  0.00000000000E+00 0.  1.
         21   -1    0    0  504  502  0.00000000000E+00 -0.00000000000E+00 -0.20812707810E+03  0.20812707810E+03  0.00000000000E+00 0. -1.
         21    1    1    2  503  505 -0.91137691444E+01  0.75611680501E+02  0.29306544774E+03  0.30279951069E+03  0.00000000000E+00 0. -1.
         21    1    1    2  504  501 -0.91056070165E+02 -0.73666446630E+02 -0.16766268781E+03  0.20452073283E+03  0.00000000000E+00 0. -1.
         21    1    1    2  505  502 -0.52640247940E+02 -0.67661635890E+02  0.15410372016E+03  0.17634355458E+03  0.00000000000E+00 0. -1.
          1    1    1    2  501    0  0.15281008725E+03  0.65716402019E+02  0.11376210178E+04  0.11497178560E+04  0.00000000000E+00 0.  1.
<scales pt_clust_3="76.15896" pt_clust_4="14000.00000" pt_clust_5="79.27631" pt_clust_6="117.80789"></scales>
<clustering>
<clus scale="   76.159">  1  3  2 -1</clus>
<clus scale="   79.276">  1  5  2 -1</clus>
<clus scale="  117.808">  1  6  2 -1</clus>
<clus scale="  117.808">  2  3  1 -1</clus>
</clustering>
</event>
<event>
 6    0  0.1622933E+002  0.1134196E+03  0.7546771E-02  0.1254365E+00
          2   -1    0    0  503    0 -0.00000000000E+00  0.00000000000E+00  0.22895871097E+03  0.22895871097E+03  0.00000000000E+00 0. -1.
         21   -1    0    0  504  502  0.00000000000E+00 -0.00000000000E+00 -0.18943564607E+03  0.18943564607E+03  0.00000000000E+00 0. -1.
         21    1    1    2  503  505  0.53339807446E+02  0.72909575419E+02  0.31121886712E+02  0.95548485486E+02  0.00000000000E+00 0. -1.
         21    1    1    2  504  501  0.88371306624E+01 -0.16362173077E+03  0.24067078541E+02  0.16561820530E+03  0.00000000000E+00 0. -1.
         21    1    1    2  505  502 -0.40798295467E+01  0.57229379051E+02 -0.55007389740E+02  0.79483707524E+02  0.00000000000E+00 0. -1.
          2    1    1    2  501    0 -0.58097108561E+02  0.33482776295E+02  0.39341489388E+02  0.77743958729E+02  0.00000000000E+00 0. -1.
<scales pt_clust_3="113.41955" pt_clust_4="14000.00000" pt_clust_5="57.37462" pt_clust_6="72.48713"></scales>
<clustering>
<clus scale="   57.375">  2  5  1 -1</clus>
<clus scale="   72.487">  1  6  2 -1</clus>
<clus scale="  113.420">  1  3  2 -1</clus>
<clus scale="   57.375">  2  3  1 -1</clus>
</clustering>
</event>
<event>
 6    0  0.1622933E+002  0.1930023E+03  0.7546771E-02  0.1155781E+00
         21   -1    0    0  501  502  0.00000000000E+00  0.00000000000E+00  0.11965577163E+04  0.11965577163E+04  0.00000000000E+00 0.  1.
          1   -1    0    0  503    0 -0.00000000000E+00 -0.00000000000E+00 -0.18678081426E+03  0.18678081426E+03  0.00000000000E+00 0.  1.
         21    1    1    2  503  504  0.29149045840E+01 -0.48907375521E+02  0.27342888302E+01  0.49070402327E+02  0.00000000000E+00 0. -1.
         21    1    1    2  504  505 -0.46180561374E+02 -0.18068012031E+02 -0.97908385045E+02  0.10975039485E+03  0.00000000000E+00 0.  1.
         21    1    1    2  505  502 -0.15570530181E+03  0.11464611876E+03  0.94564300751E+03  0.96520908161E+03  0.00000000000E+00 0.  1.
          1    1    1    2  501    0  0.19897095860E+03 -0.47670731209E+02  0.15930799077E+03  0.25930865181E+03  0.00000000000E+00 0.  1.
<scales pt_clust_3="48.99416" pt_clust_4="66.15513" pt_clust_5="193.00232" pt_clust_6="14000.00000"></scales>
<clustering>
<clus scale="   48.994">  2  3  1 -1</clus>
<clus scale="   66.155">  2  4  1 -1</clus>
<clus scale="  193.002">  1  5  2 -1</clus>
<clus scale="  193.002">  1  3  2 -1</clus>
</clustering>
</event>
<event>
 6    0  0.1622933E+002  0.2107231E+03  0.7546771E-02  0.1140995E+00
         21   -1    0    0  504  502  0.00000000000E+00  0.00000000000E+00  0.84002200633E+02  0.84002200633E+02  0.00000000000E+00 0.  1.
          1   -1    0    0  505    0 -0.00000000000E+00 -0.00000000000E+00 -0.10754564830E+04  0.10754564830E+04  0.00000000000E+00 0.  1.
         21    1    1    2  503  502  0.10396196081E+02 -0.40995110172E+02  0.13878732113E+02  0.44511786709E+02  0.00000000000E+00 0.  1.
         21    1    1    2  504  501 -0.21718646042E+03  0.10426984526E+03 -0.52511296196E+03  0.57774196839E+03  0.00000000000E+00 0.  1.
         21    1    1    2  505  503  0.16138337206E+03 -0.89887779058E+02 -0.33220845552E+03  0.38011427692E+03  0.00000000000E+00 0.  1.
          1    1    1    2  501    0  0.45406892286E+02  0.26613043966E+02 -0.14801159696E+03  0.15709065157E+03  0.00000000000E+00 0.  1.
<scales pt_clust_3="42.29279" pt_clust_4="14000.00000" pt_clust_5="210.72312" pt_clust_6="51.76659"></scales>
<clustering>
<clus scale="   42.293">  1  3  2 -1</clus>
<clus scale="   51.767">  2  6  1 -1</clus>
<clus scale="  210.723">  1  5  2 -1</clus>
<clus scale="   42.293">  1  3  2 -1</clus>
</clustering>
</event>
<event>
 6    0  0.1622933E+002  0.1001803E+03  0.7546771E-02  0.1279917E+00
          2   -1    0    0  504    0 -0.00000000000E+00  0.00000000000E+00  0.20583551304E+03  0.20583551304E+03  0.00000000000E+00 0. -1.
         21   -1    0    0  501  502  0.00000000000E+00 -0.00000000000E+00 -0.42019270167E+03  0.42019270167E+03  0.00000000000E+00 0. -1.
         21    1    1    2  503  502 -0.39585393195E+02  0.14242562491E+01 -0.20720017150E+03  0.21095246605E+03  0.00000000000E+00 0. -1.
         21    1    1    2  504  505  0.20263149231E+02 -0.98109581496E+02  0.98922937539E+02  0.14079003079E+03  0.00000000000E+00 0. -1.
         21    1    1    2  505  503 -0.52906221485E+02  0.21626902425E+02 -0.15054184211E+03  0.16102682201E+03  0.00000000000E+00 0. -1.
          2    1    1    2  501    0  0.72228465449E+02  0.75058422822E+02  0.44461887449E+02  0.11325889587E+03  0.00000000000E+00 0. -1.
<scales pt_clust_3="30.05253" pt_clust_4="100.18026" pt_clust_5="30.05253" pt_clust_6="92.03271"></scales>
<clustering>
<clus scale="   30.053">  3  5 -1 -1</clus>
<clus scale="  100.180">  1  4  2 -1</clus>
<clus scale="   92.033">  1  6  2 -1</clus>
<clus scale="  100.180">  2  3  1 -1</clus>
</clustering>
</event>
<event>
 6    0  0.1622933E+002  0.6858177E+02  0.7546771E-02  0.1364983E+00
         -2   -1    0    0    0  501 -0.00000000000E+00  0.00000000000E+00  0.98492463263E+03  0.98492463263E+03  0.00000000000E+00 0.  1.
         21   -1    0    0  504  502  0.00000000000E+00 -0.00000000000E+00 -0.38850164989E+03  0.38850164989E+03  0.00000000000E+00 0. -1.
         21    1    1    2  503  505 -0.93385281392E+02  0.36538009974E+02  0.75020593722E+02  0.12523548393E+03  0.00000000000E+00 0.  1.
         21    1    1    2  504  503  0.32860572975E+02 -0.13808094597E+02 -0.35811318228E+03  0.35988266429E+03  0.00000000000E+00 0. -1.
         21    1    1    2  505  501  0.25894376611E+02  0.37016480673E+02  0.53721940172E+03  0.53911540895E+03  0.00000000000E+00 0.  1.
         -2    1    1    2    0  502  0.34630331806E+02 -0.59746396050E+02  0.34229616958E+03  0.34919272534E+03  0.00000000000E+00 0.  1.
<scales pt_clust_3="68.58177" pt_clust_4="35.64380" pt_clust_5="45.43001" pt_clust_6="14000.00000"></scales>
<clustering>
<clus scale="   35.644">  2  4  1 -1</clus>
<clus scale="   45.430">  1  5  2 -1</clus>
<clus scale="   68.582">  2  3  1 -1</clus>
<clus scale="   35.644">  2  3  1 -1</clus>
</clustering>
</event>
<event>
 6    0  0.1622933E+002  0.1169803E+03  0.7546771E-02  0.1248163E+00
         21   -1    0    0  503  502  0.00000000000E+00  0.00000000000E+00  0.46699833431E+02  0.46699833431E+02  0.00000000000E+00 0.  1.
          2   -1    0    0  504    0 -0.00000000000E+00 -0.00000000000E+00 -0.32965663344E+04  0.32965663344E+04  0.00000000000E+00 0.  1.
         21    1    1    2  503  505  0.57154275098E+02  0.50287036905E+02 -0.62894176657E+02  0.98747530096E+02  0.00000000000E+00 0.  1.
         21    1    1    2  504  502  0.79427600126E+02 -0.92292486667E+02 -0.12018075121E+03  0.17108494883E+03  0.00000000000E+00 0.  1.
         21    1    1    2  505  501 -0.66302697440E+02  0.43180996438E+02 -0.55015905920E+03  0.55581978785E+03  0.00000000000E+00 0.  1.
          2    1    1    2  501    0 -0.70279177783E+02 -0.11755466768E+01 -0.25166325139E+04  0.25176139010E+04  0.00000000000E+00 0.  1.
<scales pt_clust_3="70.73372" pt_clust_4="14000.00000" pt_clust_5="116.98033" pt_clust_6="70.28901"></scales>
<clustering>
<clus scale="   70.289">  2  6  1 -1</clus>
<clus scale="   70.734">  1  3  2 -1</clus>
<clus scale="  116.980">  2  5  1 -1</clus>
<clus scale="   70.734">  1  3  2 -1</clus>
</clustering>
</event>
<event>
 6    0  0.1622933E+002  0.3387538E+03  0.7546771E-02  0.1067328E+00
          1   -1    0    0  503    0 -0.00000000000E+00  0.00000000000E+00  0.16619802511E+04  0.16619802511E+04  0.00000000000E+00 0. -1.
         21   -1    0    0  505  502  0.00000000000E+00 -0.00000000000E+00 -0.10146986775E+04  0.10146986775E+04  0.00000000000E+00 0. -1.
         21    1    1    2  503  502 -0.23501097754E+02 -0.20771768960E+03  0.45808391134E+03  0.50352736767E+03  0.00000000000E+00 0. -1.
         21    1    1    2  504  501  0.35427173340E+02  0.89324832634E+02  0.17235722972E+03  0.19733480426E+03  0.00000000000E+00 0. -1.
         21    1    1    2  505  504 -0.29138880257E+03 -0.13246633433E+03 -0.91595037637E+03  0.97026792999E+03  0.00000000000E+00 0. -1.
          1    1    1    2  501    0  0.27946272699E+03  0.25085919130E+03  0.93279080888E+03  0.10055488266E+04  0.00000000000E+00 0. -1.
<scales pt_clust_3="209.04291" pt_clust_4="52.31558" pt_clust_5="322.58039" pt_clust_6="52.31558"></scales>
<clustering>
<clus scale="   52.316">  4  6 -1 -1</clus>
<clus scale="  209.043">  1  3  2 -1</clus>
<clus scale="  322.580">  2  5  1 -1</clus>
<clus scale="  322.580">  2  3  1 -1</clus>
</clustering>
</event>
<event>
 6    0  0.1622933E+002  0.1102015E+03  0.7546771E-02  0.1260197E+00
         21   -1    0    0  504  502  0.00000000000E+00  0.00000000000E+00  0.51521981863E+03  0.51521981863E+03  0.00000000000E+00 0.  1.
          4   -1    0    0  503    0 -0.00000000000E+00 -0.00000000000E+00 -0.41751418225E+03  0.41751418225E+03  0.00000000000E+00 0. -1.
         21    1    1    2  503  505 -0.18607267770E+02 -0.36678278833E+02 -0.13788832029E+02  0.43378087103E+02  0.00000000000E+00 0. -1.
         21    1    1    2  504  501  0.24709873057E+02  0.53266367934E+02  0.12934971614E+02  0.60126510542E+02  0.00000000000E+00 0.  1.
         21    1    1    2  505  502  0.72112193343E+02  0.85425551373E+01  0.45636885280E+03  0.46211002313E+03  0.00000000000E+00 0.  1.
          4    1    1    2  501    0 -0.78214798630E+02 -0.25130644238E+02 -0.35780935600E+03  0.36711938010E+03  0.00000000000E+00 0. -1.
<scales pt_clust_3="41.12817" pt_clust_4="56.22511" pt_clust_5="110.20146" pt_clust_6="14000.00000"></scales>
<clustering>
<clus scale="   41.128">  2  3  1 -1</clus>
<clus scale="   56.225">  1  4  2 -1</clus>
<clus scale="  110.201">  1  5  2 -1</clus>
<clus scale="   56.225">  1  3  2 -1</clus>
</clustering>
</event>
<event>
 6    0  0.1622933E+002  0.8183900E+02  0.7546771E-02  0.1323912E+00
         21   -1    0    0  503  502  0.00000000000E+00  0.00000000000E+00  0.40909315636E+03  0.40909315636E+03  0.00000000000E+00 0.  1.
         -3   -1    0    0    0  501 -0.00000000000E+00 -0.00000000000E+00 -0.16660640757E+03  0.16660640757E+03  0.00000000000E+00 0.  1.
         21    1    1    2  503  501  0.44332085819E+02 -0.30250045139E+02  0.50146299639E+02  0.73451007015E+02  0.00000000000E+00 0.  1.
         21    1    1    2  504  505 -0.31314503565E+02 -0.89389619766E+02  0.46535844619E+02  0.10553050313E+03  0.00000000000E+00 0.  1.
         21    1    1    2  505  502 -0.16689692595E+02  0.39518171325E+02  0.25647625728E+03  0.26003903986E+03  0.00000000000E+00 0.  1.
         -3    1    1    2    0  504  0.36721103413E+01  0.80121493581E+02 -0.11067165275E+03  0.13667901394E+03  0.00000000000E+00 0.  1.
<scales pt_clust_3="40.04336" pt_clust_4="81.83900" pt_clust_5="42.89792" pt_clust_6="14000.00000"></scales>
<clustering>
<clus scale="   42.898">  1  5  2 -1</clus>
<clus scale="   40.043">  1  3  2 -1</clus>
<clus scale="   81.839">  1  4  2 -1</clus>
<clus scale="   42.898">  1  3  2 -1</clus>
</clustering>
</event>
<event>
 6    0  0.1622933E+002  0.1414296E+03  0.7546771E-02  0.1211418E+00
          2   -1    0    0  504    0 -0.00000000000E+00  0.00000000000E+00  0.16448996274E+04  0.16448996274E+04  0.00000000000E+00 0. -1.
         21   -1    0    0  505  502  0.00000000000E+00 -0.00000000000E+00 -0.26676676075E+03  0.26676676075E+03  0.00000000000E+00 0. -1.
         21    1    1    2  503  502 -0.19457094549E+02  0.22847525114E+02 -0.82207874711E+02  0.87514127983E+02  0.00000000000E+00 0. -1.
         21    1    1    2  504  503 -0.11270640443E+03 -0.86331600528E+02  0.15898444610E+04  0.15961708207E+04  0.00000000000E+00 0. -1.
         21    1    1    2  505  501  0.43675658733E+02 -0.79642693706E+01  0.12428896586E+02  0.46102822286E+02  0.00000000000E+00 0. -1.
          2    1    1    2  501    0  0.88487840241E+02  0.71448344785E+02 -0.14193261619E+03  0.18187861717E+03  0.00000000000E+00 0. -1.
<scales pt_clust_3="30.00980" pt_clust_4="141.42955" pt_clust_5="42.28133" pt_clust_6="14000.00000"></scales>
<clustering>
<clus scale="   30.010">  2  3  1 -1</clus>
<clus scale="   42.281">  2  5  1 -1</clus>
<clus scale="  141.430">  1  4  2 -1</clus>
<clus scale="   30.010">  2  3  1 -1</clus>
</clustering>
</event>
<event>
 6    0  0.1622933E+002  0.1454243E+03  0.7546771E-02  0.1206211E+00
         21   -1    0    0  505  502  0.00000000000E+00  0.00000000000E+00  0.15084914616E+04  0.15084914616E+04  0.00000000000E+00 0. -1.
          1   -1    0    0  504    0 -0.00000000000E+00 -0.00000000000E+00 -0.35489254859E+03  0.35489254859E+03  0.00000000000E+00 0.  1.
         21    1    1    2  503  502  0.31325413374E+02 -0.14127481956E+03  0.14524967877E+04  0.14596872181E+04  0.00000000000E+00 0. -1.
         21    1    1    2  504  503  0.14197714613E+02 -0.26471213010E+02 -0.12914854944E+02  0.32696998282E+02  0.00000000000E+00 0. -1.
         21    1    1    2  505  501 -0.26409399439E+02  0.19803258587E+03 -0.23135418541E+03  0.30567813228E+03  0.00000000000E+00 0.  1.
          1    1    1    2  501    0 -0.19113728549E+02 -0.30286553300E+02 -0.54628834353E+02  0.65321661588E+02  0.00000000000E+00 0.  1.
<scales pt_clust_3="14000.00000" pt_clust_4="30.03831" pt_clust_5="145.42434" pt_clust_6="38.77633"></scales>
<clustering>
<clus scale="   30.038">  2  4  1 -1</clus>
<clus scale="   38.776">  2  6  1 -1</clus>
<clus scale="  145.424">  2  5  1 -1</clus>
<clus scale="  145.424">  1  3  2 -1</clus>
</clustering>
</event>
<event>
 6    0  0.1622933E+002  0.9973816E+02  0.7546771E-02  0.1280848E+00
         21   -1    0    0  504  502  0.00000000000E+00  0.00000000000E+00  0.36352540244E+02  0.36352540244E+02  0.00000000000E+00 0. -1.
          2   -1    0    0  503    0 -0.00000000000E+00 -0.00000000000E+00 -0.10433573435E+04  0.10433573435E+04  0.00000000000E+00 0.  1.
         21    1    1    2  503  505  0.26487906012E+02  0.30743352000E+02 -0.10672871821E+03  0.11418310798E+03  0.00000000000E+00 0. -1.
         21    1    1    2  504  501 -0.17539178692E+01 -0.50466971247E+02 -0.25126257981E+03  0.25628670553E+03  0.00000000000E+00 0.  1.
         21    1    1    2  505  502  0.24510609750E+02  0.80775137280E+02 -0.36905707770E+02  0.92127216711E+02  0.00000000000E+00 0. -1.
          2    1    1    2  501    0 -0.49244597893E+02 -0.61051518032E+02 -0.61210779750E+03  0.61711285356E+03  0.00000000000E+00 0.  1.
<scales pt_clust_3="40.58033" pt_clust_4="39.15338" pt_clust_5="86.98586" pt_clust_6="39.15338"></scales>
<clustering>
<clus scale="   39.153">  4  6 -1 -1</clus>
<clus scale="   40.580">  2  3  1 -1</clus>
<clus scale="   86.986">  1  5  2 -1</clus>
<clus scale="   86.986">  1  3  2 -1</clus>
</clustering>
</event>
<event>
 6    0  0.1622933E+002  0.1070518E+03  0.7546771E-02  0.1266129E+00
          2   -1    0    0  504    0 -0.00000000000E+00  0.00000000000E+00  0.12365151230E+04  0.12365151230E+04  0.00000000000E+00 0.  1.
         21   -1    0    0  505  502  0.00000000000E+00 -0.00000000000E+00 -0.54730067941E+03  0.54730067941E+03  0.00000000000E+00 0. -1.
         21    1    1    2  503  502  0.41809911742E+02  0.16806304247E+01  0.53170413063E+02  0.67660816311E+02  0.00000000000E+00 0.  1.
         21    1    1    2  504  503 -0.29488489543E+02  0.19650839315E+02  0.13611324472E+03  0.14065042442E+03  0.00000000000E+00 0. -1.
         21    1    1    2  505  501  0.10078354008E+03  0.35805527383E+02 -0.52854185833E+03  0.53925490610E+03  0.00000000000E+00 0. -1.
          2    1    1    2  501    0 -0.11310496228E+03 -0.57136997123E+02  0.10284726441E+04  0.10362496555E+04  0.00000000000E+00 0.  1.
<scales pt_clust_3="40.28234" pt_clust_4="35.43623" pt_clust_5="107.05176" pt_clust_6="14000.00000"></scales>
<clustering>
<clus scale="   35.436">  1  4  2 -1</clus>
<clus scale="   40.282">  1  3  2 -1</clus>
<clus scale="  107.052">  2  5  1 -1</clus>
<clus scale="  107.052">  2  3  1 -1</clus>
</clustering>
</event>
<event>
 6    0  0.3428868E+002  0.8973998E+02  0.7546771E-02  0.1303483E+00
         21   -1    0    0  503  502  0.00000000000E+00  0.00000000000E+00  0.48254167064E+03  0.48254167064E+03  0.00000000000E+00 0. -1.
         -4   -1    0    0    0  501 -0.00000000000E+00 -0.00000000000E+00 -0.13449113408E+04  0.13449113408E+04  0.00000000000E+00 0.  1.
         21    1    1    2  503  504 -0.40431789224E+02 -0.30433016093E+02 -0.48861892022E+01  0.50840661811E+02  0.00000000000E+00 0.  1.
         21    1    1    2  504  501 -0.61330471275E+01  0.10521457306E+03 -0.79720334889E+02  0.13214784314E+03  0.00000000000E+00 0. -1.
         21    1    1    2  505  502 -0.27960133374E+02 -0.22269892319E+02  0.43089392292E+03  0.43237401630E+03  0.00000000000E+00 0. -1.
         -4    1    1    2    0  505  0.74524969726E+02 -0.52511664647E+02 -0.12086570690E+04  0.12120904902E+04  0.00000000000E+00 0.  1.
<scales pt_clust_3="66.73435" pt_clust_4="89.73998" pt_clust_5="35.74517" pt_clust_6="14000.00000"></scales>
<clustering>
<clus scale="   35.745">  1  5  2 -1</clus>
<clus scale="   66.734">  1  3  2 -1</clus>
<clus scale="   89.740">  1  4  2 -1</clus>
<clus scale="   35.745">  1  3  2 -1</clus>
</clustering>
</event>
<event>
 6    0  0.1622933E+002  0.1027858E+03  0.7546771E-02  0.1274545E+00
         21   -1    0    0  504  502  0.00000000000E+00  0.00000000000E+00  0.78036062093E+03  0.78036062093E+03  0.00000000000E+00 0.  1.
         -2   -1    0    0    0  501 -0.00000000000E+00 -0.00000000000E+00 -0.57676492835E+02  0.57676492835E+02  0.00000000000E+00 0.  1.
         21    1    1    2  503  502  0.32315368096E+01 -0.10498862177E+03  0.59402563110E+03  0.60324083410E+03  0.00000000000E+00 0.  1.
         21    1    1    2  504  505  0.56945671228E+02  0.28218572906E+02  0.34629536433E+02  0.72376115688E+02  0.00000000000E+00 0.  1.
         21    1    1    2  505  501 -0.32910099829E+02 -0.10749823578E+02  0.49765930816E+02  0.60624097912E+02  0.00000000000E+00 0.  1.
         -2    1    1    2    0  503 -0.27267108209E+02  0.87519872442E+02  0.44263029747E+02  0.10179606606E+03  0.00000000000E+00 0.  1.
<scales pt_clust_3="102.78580" pt_clust_4="51.20936" pt_clust_5="34.62129" pt_clust_6="14000.00000"></scales>
<clustering>
<clus scale="   34.621">  2  5  1 -1</clus>
<clus scale="   51.209">  2  4  1 -1</clus>
<clus scale="  102.786">  1  3  2 -1</clus>
<clus scale="  102.786">  1  3  2 -1</clus>
</clustering>
</event>
<event>
 6    0  0.1622933E+002  0.2872548E+03  0.7546771E-02  0.1091791E+00
         21   -1    0    0  501  502  0.00000000000E+00  0.00000000000E+00  0.19647854311E+03  0.19647854311E+03  0.00000000000E+00 0.  1.
          2   -1    0    0  505    0 -0.00000000000E+00 -0.00000000000E+00 -0.20505526460E+04  0.20505526460E+04  0.00000000000E+00 0. -1.
         21    1    1    2  503  504  0.51987667697E+02  0.52739320227E+02 -0.29538439405E+03  0.30452601488E+03  0.00000000000E+00 0. -1.
         21    1    1    2  504  502 -0.18264080296E+03  0.22429591717E+03  0.54324437075E+02  0.29430845354E+03  0.00000000000E+00 0.  1.
         21    1    1    2  505  503  0.30815992783E+01 -0.44148302914E+02 -0.72314611883E+02  0.84781908425E+02  0.00000000000E+00 0.  1.
          2    1    1    2  501    0  0.12757153598E+03 -0.23288693448E+03 -0.15406995340E+04  0.15634148123E+04  0.00000000000E+00 0. -1.
<scales pt_clust_3="69.78459" pt_clust_4="14000.00000" pt_clust_5="44.25572" pt_clust_6="287.25478"></scales>
<clustering>
<clus scale="   44.256">  2  5  1 -1</clus>
<clus scale="   69.785">  2  3  1 -1</clus>
<clus scale="  287.255">  2  6  1 -1</clus>
<clus scale="  287.255">  1  3  2 -1</clus>
</clustering>
</event>
<event>
 6    0  0.1622933E+002  0.3213948E+03  0.7546771E-02  0.1075009E+00
         21   -1    0    0  504  502  0.00000000000E+00  0.00000000000E+00  0.26116624471E+03  0.26116624471E+03  0.00000000000E+00 0.  1.
          2   -1    0    0  503    0 -0.00000000000E+00 -0.00000000000E+00 -0.24650385880E+04  0.24650385880E+04  0.00000000000E+00 0.  1.
         21    1    1    2  503  505  0.24227751900E+01 -0.72871990921E+02 -0.11746604421E+03  0.13825508469E+03  0.00000000000E+00 0.  1.
         21    1    1    2  504  501  0.14563279826E+03  0.97307817961E+02 -0.21342448344E+03  0.27609370420E+03  0.00000000000E+00 0.  1.
         21    1    1    2  505  502  0.18868941244E+03 -0.10761546488E+03  0.14701515850E+03  0.26229418499E+03  0.00000000000E+00 0.  1.
          2    1    1    2  501    0 -0.33674498589E+03  0.83179637839E+02 -0.20199969741E+04  0.20495618588E+04  0.00000000000E+00 0.  1.
<scales pt_clust_3="72.91225" pt_clust_4="171.24464" pt_clust_5="14000.00000" pt_clust_6="321.39477"></scales>
<clustering>
<clus scale="   72.912">  2  3  1 -1</clus>
<clus scale="  171.245">  1  4  2 -1</clus>
<clus scale="  321.395">  2  6  1 -1</clus>
<clus scale="  171.245">  1  3  2 -1</clus>
</clustering>
</event>
<event>
 6    0  0.1622933E+002  0.1455983E+03  0.7546771E-02  0.1205988E+00
         21   -1    0    0  505  502  0.00000000000E+00  0.00000000000E+00  0.38564678446E+02  0.38564678446E+02  0.00000000000E+00 0.  1.
          2   -1    0    0  504    0 -0.00000000000E+00 -0.00000000000E+00 -0.18596071618E+04  0.18596071618E+04  0.00000000000E+00 0.  1.
         21    1    1    2  503  502  0.66387662770E+02 -0.14166437746E+03 -0.20074507258E+03  0.25450874597E+03  0.00000000000E+00 0.  1.
         21    1    1    2  504  503  0.32369670949E+02 -0.36354504392E+02 -0.39383487412E+03  0.39683164398E+03  0.00000000000E+00 0.  1.
         21    1    1    2  505  501 -0.13367238167E+02  0.12001234851E+03 -0.62091435704E+03  0.63254745722E+03  0.00000000000E+00 0. -1.
          2    1    1    2  501    0 -0.85390095552E+02  0.58006533345E+02 -0.60554817959E+03  0.61428399306E+03  0.00000000000E+00 0.  1.
<scales pt_clust_3="145.59833" pt_clust_4="48.67695" pt_clust_5="14000.00000" pt_clust_6="83.71340"></scales>
<clustering>
<clus scale="   48.677">  2  4  1 -1</clus>
<clus scale="   83.713">  2  6  1 -1</clus>
<clus scale="  145.598">  1  3  2 -1</clus>
<clus scale="  145.598">  1  3  2 -1</clus>
</clustering>
</event>
<event>
 6    0  0.1935489E+002  0.1041469E+03  0.7546771E-02  0.1271810E+00
          2   -1    0    0  504    0 -0.00000000000E+00  0.00000000000E+00  0.17136934180E+04  0.17136934180E+04  0.00000000000E+00 0.  1.
         21   -1    0    0  505  502  0.00000000000E+00 -0.00000000000E+00 -0.30954765070E+03  0.30954765070E+03  0.00000000000E+00 0. -1.
         21    1    1    2  503  502  0.10985837401E+02 -0.47607603610E+02 -0.28673867581E+03  0.29087151932E+03  0.00000000000E+00 0. -1.
         21    1    1    2  504  503 -0.27875718539E+02  0.14618379970E+02  0.47272447349E+02  0.56792930857E+02  0.00000000000E+00 0. -1.
         21    1    1    2  505  501  0.96014784755E+02  0.60476504769E+02  0.20324622578E+03  0.23277730734E+03  0.00000000000E+00 0.  1.
          2    1    1    2  501    0 -0.79124903617E+02 -0.27487281128E+02  0.14403657700E+04  0.14427993112E+04  0.00000000000E+00 0.  1.
<scales pt_clust_3="48.83320" pt_clust_4="31.47622" pt_clust_5="14000.00000" pt_clust_6="104.14685"></scales>
<clustering>
<clus scale="   31.476">  1  4  2 -1</clus>
<clus scale="   48.833">  2  3  1 -1</clus>
<clus scale="  104.147">  1  6  2 -1</clus>
<clus scale="   48.833">  2  3  1 -1</clus>
</clustering>
</event>
<event>
 6    0  0.1622933E+002  0.1448159E+03  0.7546771E-02  0.1206992E+00
         21   -1    0    0  504  502  0.00000000000E+00  0.00000000000E+00  0.89150000845E+03  0.89150000845E+03  0.00000000000E+00 0.  1.
          1   -1    0    0  505    0 -0.00000000000E+00 -0.00000000000E+00 -0.17440996297E+04  0.17440996297E+04  0.00000000000E+00 0. -1.
         21    1    1    2  503  501  0.22028282810E+02 -0.49816642611E+02 -0.51470875021E+03  0.51758288290E+03  0.00000000000E+00 0. -1.
         21    1    1    2  504  503  0.35776042363E+02  0.85444046590E+02 -0.11718066689E+02  0.93369820562E+02  0.00000000000E+00 0.  1.
         21    1    1    2  505  502 -0.12910987933E+03  0.16991080646E+02  0.84255759345E+03  0.85256164355E+03  0.00000000000E+00 0.  1.
          1    1    1    2  501    0  0.71305554155E+02 -0.52618484625E+02 -0.11687303978E+04  0.11720852912E+04  0.00000000000E+00 0. -1.
<scales pt_clust_3="33.32702" pt_clust_4="92.63158" pt_clust_5="138.43640" pt_clust_6="33.32702"></scales>
<clustering>
<clus scale="   33.327">  3  6 -1 -1</clus>
<clus scale="   92.632">  1  4  2 -1</clus>
<clus scale="  138.436">  1  5  2 -1</clus>
<clus scale="   92.632">  1  3  2 -1</clus>
</clustering>
</event>
<event>
 6    0  0.1622933E+002  0.1125852E+03  0.7546771E-02  0.1255856E+00
          2   -1    0    0  503    0 -0.00000000000E+00  0.00000000000E+00  0.15640003976E+03  0.15640003976E+03  0.00000000000E+00 0.  1.
         21   -1    0    0  501  502  0.00000000000E+00 -0.00000000000E+00 -0.46001045350E+03  0.46001045350E+03  0.00000000000E+00 0.  1.
         21    1    1    2  503  504 -0.36365019808E+02  0.21962711187E+02 -0.17202611371E+02  0.45833450517E+02  0.00000000000E+00 0.  1.
         21    1    1    2  504  505 -0.24524438275E+02 -0.42880261082E+02 -0.67824668770E+01  0.49861475311E+02  0.00000000000E+00 0.  1.
         21    1    1    2  505  502  0.91937393679E+02  0.72321928366E+02 -0.38338363678E+03  0.40083158387E+03  0.00000000000E+00 0.  1.
          2    1    1    2  501    0 -0.31047935596E+02 -0.51404378471E+02  0.10375830128E+03  0.11988398356E+03  0.00000000000E+00 0.  1.
<scales pt_clust_3="42.48265" pt_clust_4="49.66388" pt_clust_5="14000.00000" pt_clust_6="112.58518"></scales>
<clustering>
<clus scale="   42.483">  1  3  2 -1</clus>
<clus scale="   49.664">  1  4  2 -1</clus>
<clus scale="  112.585">  1  6  2 -1</clus>
<clus scale="  112.585">  2  3  1 -1</clus>
</clustering>
</event>
<event>
 6    0  0.1622933E+002  0.1345654E+03  0.7546771E-02  0.1220835E+00
         21   -1    0    0  501  502  0.00000000000E+00  0.00000000000E+00  0.71149504429E+02  0.71149504429E+02  0.00000000000E+00 0.  1.
          1   -1    0    0  503    0 -0.00000000000E+00 -0.00000000000E+00 -0.82521501690E+03  0.82521501690E+03  0.00000000000E+00 0.  1.
         21    1    1    2  503  505  0.12249502281E+02  0.32483439144E+02 -0.11249914778E+03  0.11773394742E+03  0.00000000000E+00 0.  1.
         21    1    1    2  504  502  0.50152077593E+02  0.54141341866E+02 -0.22364150564E+01  0.73834391297E+02  0.00000000000E+00 0.  1.
         21    1    1    2  505  504 -0.13687554701E+03  0.36935217091E+02 -0.41042597883E+03  0.43422184391E+03  0.00000000000E+00 0.  1.
          1    1    1    2  501    0  0.74473967136E+02 -0.12355999810E+03 -0.22890397081E+03  0.27057433870E+03  0.00000000000E+00 0.  1.
<scales pt_clust_3="34.71634" pt_clust_4="75.52609" pt_clust_5="134.56540" pt_clust_6="14000.00000"></scales>
<clustering>
<clus scale="   34.716">  2  3  1 -1</clus>
<clus scale="   75.526">  1  4  2 -1</clus>
<clus scale="  134.565">  2  5  1 -1</clus>
<clus scale="   75.526">  1  3  2 -1</clus>
</clustering>
</event>
<event>
 6    0  0.1622933E+002  0.1343131E+03  0.7546771E-02  0.1221193E+00
         21   -1    0    0  505  502  0.00000000000E+00  0.00000000000E+00  0.19249539864E+03  0.19249539864E+03  0.00000000000E+00 0.  1.
          1   -1    0    0  504    0 -0.00000000000E+00 -0.00000000000E+00 -0.16337469653E+04  0.16337469653E+04  0.00000000000E+00 0. -1.
         21    1    1    2  503  501 -0.38297681182E+02 -0.39234710063E+02 -0.18965751646E+03  0.19742352547E+03  0.00000000000E+00 0. -1.
         21    1    1    2  504  502  0.12546017129E+03  0.73860227700E+02 -0.10285144307E+04  0.10387673089E+04  0.00000000000E+00 0. -1.
         21    1    1    2  505  503 -0.41722342884E+02 -0.92245813640E+01  0.17929853030E+03  0.18431985722E+03  0.00000000000E+00 0.  1.
          1    1    1    2  501    0 -0.45440147223E+02 -0.25400936273E+02 -0.40237814981E+03  0.40573167240E+03  0.00000000000E+00 0. -1.
<scales pt_clust_3="42.40158" pt_clust_4="126.25310" pt_clust_5="42.72993" pt_clust_6="42.40158"></scales>
<clustering>
<clus scale="   42.730">  1  5  2 -1</clus>
<clus scale="   42.402">  3  6 -1 -1</clus>
<clus scale="  126.253">  2  4  1 -1</clus>
<clus scale="   42.730">  1  3  2 -1</clus>
</clustering>
</event>
<event>
 6    0  0.1622933E+002  0.1434150E+03  0.7546771E-02  0.1208806E+00
          2   -1    0    0  502    0 -0.00000000000E+00  0.00000000000E+00  0.11799531557E+04  0.11799531557E+04  0.00000000000E+00 0.  1.
         21   -1    0    0  504  502  0.00000000000E+00 -0.00000000000E+00 -0.19764830075E+02  0.19764830075E+02  0.00000000000E+00 0.  1.
         21    1    1    2  503  505  0.31973567189E+02 -0.39975851549E+02  0.83361857222E+02  0.97824214514E+02  0.00000000000E+00 0.  1.
         21    1    1    2  504  503  0.37634173119E+02 -0.73723398587E+02  0.26939692565E+03  0.28182649634E+03  0.00000000000E+00 0.  1.
         21    1    1    2  505  501  0.47495849394E+00  0.39724871515E+02  0.17273791556E+03  0.17724750626E+03  0.00000000000E+00 0.  1.
          2    1    1    2  501    0 -0.70082698802E+02  0.73974378621E+02  0.63469162719E+03  0.64281976867E+03  0.00000000000E+00 0.  1.
<scales pt_clust_3="34.48666" pt_clust_4="140.34209" pt_clust_5="33.01090" pt_clust_6="33.01090"></scales>
<clustering>
<clus scale="   33.011">  5  6 -1 -1</clus>
<clus scale="   34.487">  3  4 -1 -1</clus>
<clus scale="  140.342">  2  3  1 -1</clus>
<clus scale="  140.342">  2  3  1 -1</clus>
</clustering>
</event>
<event>
 6    0  0.1622933E+002  0.1235264E+03  0.7546771E-02  0.1237390E+00
         21   -1    0    0  501  502  0.00000000000E+00  0.00000000000E+00  0.43745573208E+03  0.43745573208E+03  0.00000000000E+00 0. -1.
          2   -1    0    0  504    0 -0.00000000000E+00 -0.00000000000E+00 -0.20226780769E+04  0.20226780769E+04  0.00000000000E+00 0. -1.
         21    1    1    2  503  505  0.23077702264E+02 -0.56825228419E+02 -0.30921329934E+02  0.68686356516E+02  0.00000000000E+00 0.  1.
         21    1    1    2  504  503  0.85562349058E+02  0.65225927060E+02 -0.44319389556E+03  0.45606596694E+03  0.00000000000E+00 0.  1.
         21    1    1    2  505  502  0.33517110783E+02 -0.21846208724E+02  0.40780974691E+03  0.40976754779E+03  0.00000000000E+00 0. -1.
          2    1    1    2  501    0 -0.14215716211E+03  0.13445510082E+02 -0.15189168663E+04  0.15256139378E+04  0.00000000000E+00 0. -1.
<scales pt_clust_3="84.32395" pt_clust_4="14000.00000" pt_clust_5="40.00817" pt_clust_6="123.52643"></scales>
<clustering>
<clus scale="   40.008">  1  5  2 -1</clus>
<clus scale="   84.324">  1  3  2 -1</clus>
<clus scale="  123.526">  2  6  1 -1</clus>
<clus scale="   40.008">  1  3  2 -1</clus>
</clustering>
</event>
<event>
 6    0  0.1622933E+002  0.1469734E+03  0.7546771E-02  0.1204242E+00
         21   -1    0    0  503  502  0.00000000000E+00  0.00000000000E+00  0.27247442002E+03  0.27247442002E+03  0.00000000000E+00 0.  1.
          2   -1    0    0  504    0 -0.00000000000E+00 -0.00000000000E+00 -0.72864036075E+03  0.72864036075E+03  0.00000000000E+00 0.  1.
         21    1    1    2  503  505  0.39159185891E+02  0.12540423841E+03  0.24130220481E+03  0.27474791882E+03  0.00000000000E+00 0.  1.
         21    1    1    2  504  502 -0.24629626068E+02  0.26882027183E+02 -0.13959417199E+03  0.14427679896E+03  0.00000000000E+00 0.  1.
         21    1    1    2  505  501 -0.24258790912E+02 -0.23671923870E+02 -0.75309483868E+02  0.82585514932E+02  0.00000000000E+00 0. -1.
          2    1    1    2  501    0  0.97292310891E+01 -0.12861434172E+03 -0.48256448968E+03  0.49950454806E+03  0.00000000000E+00 0.  1.
<scales pt_clust_3="131.90124" pt_clust_4="36.45904" pt_clust_5="33.23490" pt_clust_6="33.23490"></scales>
<clustering>
<clus scale="   33.235">  5  6 -1 -1</clus>
<clus scale="   36.459">  2  4  1 -1</clus>
<clus scale="  131.901">  1  3  2 -1</clus>
<clus scale="  131.901">  1  3  2 -1</clus>
</clustering>
</event>
<event>
 6    0  0.1622933E+002  0.8519313E+02  0.7546771E-02  0.1314928E+00
         21   -1    0    0  504  502  0.00000000000E+00  0.00000000000E+00  0.51199139900E+03  0.51199139900E+03  0.00000000000E+00 0.  1.
          1   -1    0    0  505    0 -0.00000000000E+00 -0.00000000000E+00 -0.74277145058E+02  0.74277145058E+02  0.00000000000E+00 0. -1.
         21    1    1    2  503  502  0.86066328604E+01 -0.14048228422E+03  0.26923086376E+03  0.30380027043E+03  0.00000000000E+00 0.  1.
         21    1    1    2  504  501 -0.43299953424E+02  0.42244187194E+02  0.12154866093E+03  0.13577015244E+03  0.00000000000E+00 0. -1.
         21    1    1    2  505  503  0.39188232252E+02  0.44891026243E+02  0.66872099578E+02  0.89570081423E+02  0.00000000000E+00 0. -1.
          1    1    1    2  501    0 -0.44949116878E+01  0.53347070784E+02 -0.19937370331E+02  0.57128039770E+02  0.00000000000E+00 0. -1.
<scales pt_clust_3="14000.00000" pt_clust_4="68.89811" pt_clust_5="85.19313" pt_clust_6="53.53610"></scales>
<clustering>
<clus scale="   53.536">  2  6  1 -1</clus>
<clus scale="   68.898">  1  4  2 -1</clus>
<clus scale="   85.193">  2  5  1 -1</clus>
<clus scale="   68.898">  1  3  2 -1</clus>
</clustering>
</event>
<event>
 6    0  0.1622933E+002  0.8586225E+02  0.7546771E-02  0.1313193E+00
          1   -1    0    0  502    0 -0.00000000000E+00  0.00000000000E+00  0.90337505192E+03  0.90337505192E+03  0.00000000000E+00 0. -1.
         21   -1    0    0  503  502  0.00000000000E+00 -0.00000000000E+00 -0.37623208452E+03  0.37623208452E+03  0.00000000000E+00 0.  1.
         21    1    1    2  503  504 -0.65877885509E+02  0.56821856259E+02 -0.35565682665E+03  0.36614259175E+03  0.00000000000E+00 0.  1.
         21    1    1    2  504  505  0.52732623505E+02 -0.14360108527E+02  0.16387307361E+03  0.17274642269E+03  0.00000000000E+00 0. -1.
         21    1    1    2  505  501 -0.29813897500E+02 -0.73807483816E+02  0.15458388579E+03  0.17387521645E+03  0.00000000000E+00 0.  1.
          1    1    1    2  501    0  0.42959159504E+02  0.31345736084E+02  0.56434283464E+03  0.56684290555E+03  0.00000000000E+00 0. -1.
<scales pt_clust_3="85.86225" pt_clust_4="14000.00000" pt_clust_5="59.24366" pt_clust_6="53.17936"></scales>
<clustering>
<clus scale="   53.179">  1  6  2 -1</clus>
<clus scale="   59.244">  1  5  2 -1</clus>
<clus scale="   85.862">  2  3  1 -1</clus>
<clus scale="   85.862">  2  3  1 -1</clus>
</clustering>
</event>
<event>
 6    0  0.1622933E+002  0.1106146E+03  0.7546771E-02  0.1259436E+00
          2   -1    0    0  505    0 -0.00000000000E+00  0.00000000000E+00  0.50771358965E+03  0.50771358965E+03  0.00000000000E+00 0. -1.
         21   -1    0    0  503  502  0.00000000000E+00 -0.00000000000E+00 -0.42879434415E+03  0.42879434415E+03  0.00000000000E+00 0.  1.
         21    1    1    2  503  501 -0.32169280859E+02  0.11916021373E+02 -0.28702128429E+02  0.44728809203E+02  0.00000000000E+00 0. -1.
         21    1    1    2  504  502 -0.72857394525E+02  0.21565704928E+02 -0.36365635456E+03  0.37150938585E+03  0.00000000000E+00 0.  1.
         21    1    1    2  505  504  0.14555347486E+03 -0.67400233468E+02  0.28951022026E+03  0.33097548724E+03  0.00000000000E+00 0. -1.
          2    1    1    2  501    0 -0.40526799478E+02  0.33918507167E+02  0.18176750824E+03  0.18929425151E+03  0.00000000000E+00 0. -1.
<scales pt_clust_3="34.30531" pt_clust_4="110.61456" pt_clust_5="14000.00000" pt_clust_6="53.15808"></scales>
<clustering>
<clus scale="   34.305">  2  3  1 -1</clus>
<clus scale="   53.158">  1  6  2 -1</clus>
<clus scale="  110.615">  2  4  1 -1</clus>
<clus scale="   34.305">  2  3  1 -1</clus>
</clustering>
</event>
<event>
 6    0  0.4927777E+002  0.8182939E+02  0.7546771E-02  0.1323939E+00
          2   -1    0    0  505    0 -0.00000000000E+00  0.00000000000E+00  0.29633398149E+03  0.29633398149E+03  0.00000000000E+00 0. -1.
         21   -1    0    0  504  502  0.00000000000E+00 -0.00000000000E+00 -0.24115995998E+04  0.24115995998E+04  0.00000000000E+00 0.  1.
         21    1    1    2  503  502  0.21089577451E+02  0.63234195231E+02 -0.14441852341E+03  0.15905987435E+03  0.00000000000E+00 0.  1.
         21    1    1    2  504  501  0.58283283559E+02 -0.24056982575E+02 -0.22231970066E+04  0.22240909626E+04  0.00000000000E+00 0.  1.
         21    1    1    2  505  503 -0.71647061603E+01  0.29376137255E+02 -0.19021163844E+02  0.35722473716E+02  0.00000000000E+00 0.  1.
          2    1    1    2  501    0 -0.72208154850E+02 -0.68553349911E+02  0.27137107557E+03  0.28906027065E+03  0.00000000000E+00 0. -1.
<scales pt_clust_3="14000.00000" pt_clust_4="63.02533" pt_clust_5="30.23724" pt_clust_6="81.82939"></scales>
<clustering>
<clus scale="   30.237">  1  5  2 -1</clus>
<clus scale="   63.025">  2  4  1 -1</clus>
<clus scale="   81.829">  1  6  2 -1</clus>
<clus scale="   63.025">  2  3  1 -1</clus>
</clustering>
</event>
<event>
 6    0  0.1622933E+002  0.1194834E+03  0.7546771E-02  0.1243952E+00
         21   -1    0    0  505  502  0.00000000000E+00  0.00000000000E+00  0.98236516801E+03  0.98236516801E+03  0.00000000000E+00 0. -1.
          2   -1    0    0  504    0 -0.00000000000E+00 -0.00000000000E+00 -0.16732586974E+04  0.16732586974E+04  0.00000000000E+00 0. -1.
         21    1    1    2  503  501 -0.18619637523E+02 -0.17208370398E+03 -0.10767575675E+03  0.20384690498E+03  0.00000000000E+00 0. -1.
         21    1    1    2  504  502 -0.43793257585E+01  0.42373085870E+02 -0.24963470869E+03  0.25324325200E+03  0.00000000000E+00 0. -1.
         21    1    1    2  505  503  0.12738416155E+02  0.52998888353E+02  0.93049418982E+03  0.93208936626E+03  0.00000000000E+00 0. -1.
          2    1    1    2  501    0  0.10260547127E+02  0.76711729756E+02 -0.12640772537E+04  0.12664443421E+04  0.00000000000E+00 0. -1.
<scales pt_clust_3="119.48344" pt_clust_4="42.59879" pt_clust_5="54.53079" pt_clust_6="14000.00000"></scales>
<clustering>
<clus scale="   42.599">  2  4  1 -1</clus>
<clus scale="   54.531">  1  5  2 -1</clus>
<clus scale="  119.483">  1  3  2 -1</clus>
<clus scale="   54.531">  1  3  2 -1</clus>
</clustering>
</event>
<event>
 6    0  0.1622933E+002  0.1085534E+03  0.7546771E-02  0.1263272E+00
          1   -1    0    0  505    0 -0.00000000000E+00  0.00000000000E+00  0.31109213638E+04  0.31109213638E+04  0.00000000000E+00 0. -1.
         21   -1    0    0  504  502  0.00000000000E+00 -0.00000000000E+00 -0.13648364999E+02  0.13648364999E+02  0.00000000000E+00 0. -1.
         21    1    1    2  503  502 -0.40209621487E+02  0.71423209635E+02  0.89078678283E+03  0.89454970851E+03  0.00000000000E+00 0. -1.
         21    1    1    2  504  501 -0.77151098033E+01  0.30701800972E+02  0.47316234610E+02  0.56929338305E+02  0.00000000000E+00 0. -1.
         21    1    1    2  505  503 -0.39978054029E+01  0.31843239479E+02  0.14044245299E+04  0.14047911711E+04  0.00000000000E+00 0. -1.
          1    1    1    2  501    0  0.51922536693E+02 -0.13396825009E+03  0.75474545151E+03  0.76829951089E+03  0.00000000000E+00 0. -1.
<scales pt_clust_3="14000.00000" pt_clust_4="31.65633" pt_clust_5="32.74483" pt_clust_6="108.55341"></scales>
<clustering>
<clus scale="   31.656">  2  4  1 -1</clus>
<clus scale="   32.745">  1  5  2 -1</clus>
<clus scale="  108.553">  2  6  1 -1</clus>
<clus scale="   31.656">  2  3  1 -1</clus>
</clustering>
</event>
<event>
 6    0  0.1622933E+002  0.2197030E+03  0.7546771E-02  0.1134105E+00
          2   -1    0    0  504    0 -0.00000000000E+00  0.00000000000E+00  0.22805868491E+03  0.22805868491E+03  0.00000000000E+00 0. -1.
         21   -1    0    0  503  502  0.00000000000E+00 -0.00000000000E+00 -0.23952269695E+03  0.23952269695E+03  0.00000000000E+00 0. -1.
         21    1    1    2  503  501 -0.25212026719E+02  0.11403943533E+03 -0.32609905255E+02  0.12126023678E+03  0.00000000000E+00 0. -1.
         21    1    1    2  504  505 -0.17677706599E+02 -0.36260269666E+02  0.18190885697E+02  0.44251743348E+02  0.00000000000E+00 0. -1.
         21    1    1    2  505  502  0.12168735696E+03 -0.14543651438E+03 -0.32359216313E+02  0.19237128539E+03  0.00000000000E+00 0. -1.
          2    1    1    2  501    0 -0.78797623644E+02  0.67657348717E+02  0.35314223830E+02  0.10969811636E+03  0.00000000000E+00 0. -1.
<scales pt_clust_3="93.54104" pt_clust_4="40.33991" pt_clust_5="196.89259" pt_clust_6="93.54104"></scales>
<clustering>
<clus scale="   40.340">  1  4  2 -1</clus>
<clus scale="   93.541">  3  6 -1 -1</clus>
<clus scale="  196.893">  2  5  1 -1</clus>
<clus scale="  196.893">  2  3  1 -1</clus>
</clustering>
</event>
<event>
 6    0  0.1622933E+002  0.9797939E+02  0.7546771E-02  0.1284603E+00
          2   -1    0    0  503    0 -0.00000000000E+00  0.00000000000E+00  0.85253176318E+03  0.85253176318E+03  0.00000000000E+00 0. -1.
         21   -1    0    0  504  502  0.00000000000E+00 -0.00000000000E+00 -0.28853652719E+03  0.28853652719E+03  0.00000000000E+00 0.  1.
         21    1    1    2  503  502 -0.12428117963E+02  0.80806998660E+02  0.71908635799E+02  0.10888104082E+03  0.00000000000E+00 0.  1.
         21    1    1    2  504  505 -0.84831565474E+02  0.48910918981E+02 -0.24848166081E+03  0.26708015324E+03  0.00000000000E+00 0.  1.
         21    1    1    2  505  501  0.81745111528E+02 -0.57618943454E+02  0.25397878724E+03  0.27296049214E+03  0.00000000000E+00 0. -1.
          2    1    1    2  501    0  0.15514571909E+02 -0.72098974187E+02  0.48658947376E+03  0.49214660417E+03  0.00000000000E+00 0. -1.
<scales pt_clust_3="63.44190" pt_clust_4="14000.00000" pt_clust_5="97.97939" pt_clust_6="73.74933"></scales>
<clustering>
<clus scale="   73.749">  1  6  2 -1</clus>
<clus scale="   63.442">  1  3  2 -1</clus>
<clus scale="   97.979">  1  5  2 -1</clus>
<clus scale="   97.979">  2  3  1 -1</clus>
</clustering>
</event>
<event>
 6    0  0.1622933E+002  0.1291820E+03  0.7546771E-02  0.1228675E+00
          2   -1    0    0  504    0 -0.00000000000E+00  0.00000000000E+00  0.19728734913E+04  0.19728734913E+04  0.00000000000E+00 0. -1.
         21   -1    0    0  505  502  0.00000000000E+00 -0.00000000000E+00 -0.93672486544E+02  0.93672486544E+02  0.00000000000E+00 0. -1.
         21    1    1    2  503  502 -0.42887862964E+02 -0.15141837232E+02  0.58298192076E+03  0.58475342151E+03  0.00000000000E+00 0. -1.
         21    1    1    2  504  503 -0.21049551026E+02 -0.24595991957E+02  0.77002695060E+02  0.83531200549E+02  0.00000000000E+00 0.  1.
         21    1    1    2  505  501  0.12682040230E+03 -0.33241087192E+02 -0.38672366925E+02  0.13668919592E+03  0.00000000000E+00 0. -1.
          2    1    1    2  501    0 -0.62882988309E+02  0.72978916381E+02  0.12578887558E+04  0.12615721599E+04  0.00000000000E+00 0. -1.
<scales pt_clust_3="54.36161" pt_clust_4="32.37355" pt_clust_5="129.18195" pt_clust_6="14000.00000"></scales>
<clustering>
<clus scale="   32.374">  1  4  2 -1</clus>
<clus scale="   54.362">  1  3  2 -1</clus>
<clus scale="  129.182">  2  5  1 -1</clus>
<clus scale="  129.182">  2  3  1 -1</clus>
</clustering>
</event>
<event>
 6    0  0.1622933E+002  0.1078576E+03  0.7546771E-02  0.1264589E+00
          2   -1    0    0  505    0 -0.00000000000E+00  0.00000000000E+00  0.52710243507E+03  0.52710243507E+03  0.00000000000E+00 0. -1.
         21   -1    0    0  504  502  0.00000000000E+00 -0.00000000000E+00 -0.23217561561E+03  0.23217561561E+03  0.00000000000E+00 0.  1.
         21    1    1    2  503  501 -0.12173632576E+02  0.12793845451E+03  0.22059652969E+03  0.25530231959E+03  0.00000000000E+00 0.  1.
         21    1    1    2  504  503  0.35513648743E+02  0.30916961772E+02 -0.18423969850E+03  0.19016136379E+03  0.00000000000E+00 0.  1.
         21    1    1    2  505  502 -0.27998966866E+02 -0.63624871273E+02  0.53681862909E+02  0.87828291543E+02  0.00000000000E+00 0.  1.
          2    1    1    2  501    0  0.46589506989E+01 -0.95230545011E+02  0.20488812536E+03  0.22598607576E+03  0.00000000000E+00 0. -1.
<scales pt_clust_3="107.85764" pt_clust_4="47.08586" pt_clust_5="53.88094" pt_clust_6="14000.00000"></scales>
<clustering>
<clus scale="   47.086">  2  4  1 -1</clus>
<clus scale="   53.881">  2  5  1 -1</clus>
<clus scale="  107.858">  2  3  1 -1</clus>
<clus scale="   47.086">  2  3  1 -1</clus>
</clustering>
</event>
<event>
 6    0  0.1622933E+002  0.8018904E+02  0.7546771E-02  0.1328516E+00
          1   -1    0    0  503    0 -0.00000000000E+00  0.00000000000E+00  0.33072217076E+04  0.33072217076E+04  0.00000000000E+00 0. -1.
         21   -1    0    0  501  502  0.00000000000E+00 -0.00000000000E+00 -0.42361134337E+02  0.42361134337E+02  0.00000000000E+00 0. -1.
         21    1    1    2  503  505  0.34868186651E+02  0.61905235847E+02  0.12833535916E+04  0.12853188280E+04  0.00000000000E+00 0. -1.
         21    1    1    2  504  502 -0.30396002213E+02 -0.74988057766E+01 -0.28202075765E+02  0.42136754931E+02  0.00000000000E+00 0. -1.
         21    1    1    2  505  504  0.65779500247E+02  0.82763114822E+01  0.21592339788E+03  0.22587242802E+03  0.00000000000E+00 0. -1.
          1    1    1    2  501    0 -0.70251684685E+02 -0.62682741552E+02  0.17937856595E+04  0.17962548309E+04  0.00000000000E+00 0. -1.
<scales pt_clust_3="14000.00000" pt_clust_4="31.30733" pt_clust_5="44.86108" pt_clust_6="80.18904"></scales>
<clustering>
<clus scale="   31.307">  2  4  1 -1</clus>
<clus scale="   44.861">  2  5  1 -1</clus>
<clus scale="   80.189">  2  6  1 -1</clus>
<clus scale="   31.307">  2  3  1 -1</clus>
</clustering>
</event>
<event>
 6    0  0.1622933E+002  0.4666188E+03  0.7546771E-02  0.1022879E+00
         21   -1    0    0  504  502  0.00000000000E+00  0.00000000000E+00  0.32317669223E+03  0.32317669223E+03  0.00000000000E+00 0.  1.
          1   -1    0    0  502    0 -0.00000000000E+00 -0.00000000000E+00 -0.15993006517E+04  0.15993006517E+04  0.00000000000E+00 0. -1.
         21    1    1    2  503  501  0.71609020965E+02 -0.84916646293E+02 -0.43827547628E+03  0.45213281435E+03  0.00000000000E+00 0.  1.
         21    1    1    2  504  505 -0.33361193294E+03  0.29848008634E+03  0.10912015922E+03  0.46075426519E+03  0.00000000000E+00 0.  1.
         21    1    1    2  505  503  0.58014650495E+01 -0.38874434441E+02 -0.88556068315E+02  0.96886819977E+02  0.00000000000E+00 0.  1.
          1    1    1    2  501    0  0.25620144692E+03 -0.17468900561E+03 -0.85841257407E+03  0.91270344440E+03  0.00000000000E+00 0. -1.
<scales pt_clust_3="69.82981" pt_clust_4="447.64638" pt_clust_5="30.06468" pt_clust_6="69.82981"></scales>
<clustering>
<clus scale="   30.065">  3  5 -1 -1</clus>
<clus scale="   69.830">  3  6 -1 -1</clus>
<clus scale="  447.646">  1  4  2 -1</clus>
<clus scale="  447.646">  1  3  2 -1</clus>
</clustering>
</event>
<event>
 6    0  0.1622933E+002  0.1025237E+03  0.7546771E-02  0.1275077E+00
          2   -1    0    0  503    0 -0.00000000000E+00  0.00000000000E+00  0.72569729176E+03  0.72569729176E+03  0.00000000000E+00 0. -1.
         21   -1    0    0  504  502  0.00000000000E+00 -0.00000000000E+00 -0.58555868497E+03  0.58555868497E+03  0.00000000000E+00 0.  1.
         21    1    1    2  503  505  0.68039817650E+02  0.80127490207E+02  0.38780696955E+03  0.40180104169E+03  0.00000000000E+00 0. -1.
         21    1    1    2  504  501 -0.80640595349E+02 -0.36077329693E+02  0.53123580173E+02  0.10308537290E+03  0.00000000000E+00 0. -1.
         21    1    1    2  505  502  0.84269666759E+02  0.24513142415E+02 -0.54017217811E+03  0.54725519905E+03  0.00000000000E+00 0.  1.
          2    1    1    2  501    0 -0.71668889059E+02 -0.68563302929E+02  0.23938023517E+03  0.25911436309E+03  0.00000000000E+00 0. -1.
<scales pt_clust_3="14000.00000" pt_clust_4="37.14689" pt_clust_5="87.76258" pt_clust_6="102.52368"></scales>
<clustering>
<clus scale="   87.763">  2  5  1 -1</clus>
<clus scale="   37.147">  2  4  1 -1</clus>
<clus scale="  102.524">  2  6  1 -1</clus>
<clus scale="   87.763">  2  3  1 -1</clus>
</clustering>
</event>
<event>
 6    0  0.1622933E+002  0.1203021E+03  0.7546771E-02  0.1242600E+00
         21   -1    0    0  504  502  0.00000000000E+00  0.00000000000E+00  0.13062167358E+03  0.13062167358E+03  0.00000000000E+00 0. -1.
          2   -1    0    0  505    0 -0.00000000000E+00 -0.00000000000E+00 -0.12166919410E+04  0.12166919410E+04  0.00000000000E+00 0.  1.
         21    1    1    2  503  502  0.61955952201E+02  0.10726614173E+03  0.88225356095E+02  0.15207984296E+03  0.00000000000E+00 0. -1.
         21    1    1    2  504  501 -0.85544051193E+01 -0.34980476096E+02 -0.49507959710E+02  0.61219683351E+02  0.00000000000E+00 0. -1.
         21    1    1    2  505  503 -0.18140539202E+02 -0.54961181745E+02 -0.10269994074E+04  0.10286289873E+04  0.00000000000E+00 0.  1.
          2    1    1    2  501    0 -0.35261007880E+02 -0.17324483892E+02 -0.97788256349E+02  0.10538510093E+03  0.00000000000E+00 0.  1.
<scales pt_clust_3="114.31192" pt_clust_4="35.89145" pt_clust_5="57.87755" pt_clust_6="35.89145"></scales>
<clustering>
<clus scale="   35.891">  4  6 -1 -1</clus>
<clus scale="   57.878">  2  5  1 -1</clus>
<clus scale="  114.312">  1  3  2 -1</clus>
<clus scale="  114.312">  1  3  2 -1</clus>
</clustering>
</event>
<event>
 6    0  0.1622933E+002  0.1076706E+03  0.7546771E-02  0.1264945E+00
         21   -1    0    0  504  502  0.00000000000E+00  0.00000000000E+00  0.12923421260E+04  0.12923421260E+04  0.00000000000E+00 0. -1.
         -2   -1    0    0    0  501 -0.00000000000E+00 -0.00000000000E+00 -0.10897818062E+03  0.10897818062E+03  0.00000000000E+00 0.  1.
         21    1    1    2  503  501  0.24585305960E+01 -0.30778126632E+02  0.21558515231E+02  0.37657761891E+02  0.00000000000E+00 0.  1.
         21    1    1    2  504  503  0.10669171736E+02 -0.11310387551E+03  0.11790449236E+04  0.11845054874E+04  0.00000000000E+00 0. -1.
         21    1    1    2  505  502  0.21837909203E+01  0.67816787455E+02  0.43518092523E+02  0.80608374133E+02  0.00000000000E+00 0. -1.
         -2    1    1    2    0  505 -0.15311493252E+02  0.76065214682E+02 -0.60757585948E+02  0.98548683200E+02  0.00000000000E+00 0.  1.
<scales pt_clust_3="30.87616" pt_clust_4="14000.00000" pt_clust_5="107.67063" pt_clust_6="53.47375"></scales>
<clustering>
<clus scale="   30.876">  2  3  1 -1</clus>
<clus scale="   53.474">  2  6  1 -1</clus>
<clus scale="  107.671">  2  5  1 -1</clus>
<clus scale="  107.671">  1  3  2 -1</clus>
</clustering>
</event>
<event>
 6    0  0.1622933E+002  0.1098075E+03  0.7546771E-02  0.1260927E+00
         21   -1    0    0  503  502  0.00000000000E+00  0.00000000000E+00  0.12792902330E+04  0.12792902330E+04  0.00000000000E+00 0.  1.
          1   -1    0    0  504    0 -0.00000000000E+00 -0.00000000000E+00 -0.42289178144E+02  0.42289178144E+02  0.00000000000E+00 0.  1.
         21    1    1    2  503  501 -0.48542337407E+02 -0.18615324103E+02  0.99518734038E+03  0.99654439503E+03  0.00000000000E+00 0.  1.
         21    1    1    2  504  505  0.40794452530E+02 -0.39601560414E+02  0.53878588133E+02  0.78328623144E+02  0.00000000000E+00 0.  1.
         21    1    1    2  505  502  0.68617183553E+02 -0.40622274856E+01  0.56193647045E+02  0.88783700864E+02  0.00000000000E+00 0.  1.
          1    1    1    2  501    0 -0.60869298677E+02  0.62279112003E+02  0.13174147928E+03  0.15792269209E+03  0.00000000000E+00 0.  1.
<scales pt_clust_3="51.98931" pt_clust_4="39.98763" pt_clust_5="39.98763" pt_clust_6="100.62048"></scales>
<clustering>
<clus scale="   39.988">  4  5 -1 -1</clus>
<clus scale="   51.989">  1  3  2 -1</clus>
<clus scale="  100.620">  1  6  2 -1</clus>
<clus scale="   51.989">  1  3  2 -1</clus>
</clustering>
</event>
<event>
 6    0  0.1622933E+002  0.1426689E+03  0.7546771E-02  0.1209782E+00
         21   -1    0    0  501  502  0.00000000000E+00  0.00000000000E+00  0.50758411063E+03  0.50758411063E+03  0.00000000000E+00 0. -1.
          2   -1    0    0  505    0 -0.00000000000E+00 -0.00000000000E+00 -0.14725690957E+04  0.14725690957E+04  0.00000000000E+00 0.  1.
         21    1    1    2  503  504 -0.56397983296E+02  0.10864215569E+03 -0.13218427194E+03  0.18015696562E+03  0.00000000000E+00 0. -1.
         21    1    1    2  504  502 -0.43109071846E+02  0.35691362442E+01  0.47315273854E+03  0.47512592520E+03  0.00000000000E+00 0. -1.
         21    1    1    2  505  503 -0.36676616342E+02 -0.25387975676E+02 -0.55269577555E+03  0.55449287083E+03  0.00000000000E+00 0. -1.
          2    1    1    2  501    0  0.13618367148E+03 -0.86823316254E+02 -0.75325767609E+03  0.77037744464E+03  0.00000000000E+00 0.  1.
<scales pt_clust_3="142.66893" pt_clust_4="43.25657" pt_clust_5="45.51003" pt_clust_6="14000.00000"></scales>
<clustering>
<clus scale="   43.257">  1  4  2 -1</clus>
<clus scale="   45.510">  2  5  1 -1</clus>
<clus scale="  142.669">  1  3  2 -1</clus>
<clus scale="   43.257">  1  3  2 -1</clus>
</clustering>
</event>
<event>
 6    0  0.1622933E+002  0.1267238E+03  0.7546771E-02  0.1232400E+00
          1   -1    0    0  504    0 -0.00000000000E+00  0.00000000000E+00  0.54821236827E+03  0.54821236827E+03  0.00000000000E+00 0.  1.
         21   -1    0    0  505  502  0.00000000000E+00 -0.00000000000E+00 -0.15547646434E+03  0.15547646434E+03  0.00000000000E+00 0. -1.
         21    1    1    2  503  501  0.59439101741E+02 -0.98280123117E+01  0.13562827429E+03  0.14840695883E+03  0.00000000000E+00 0.  1.
         21    1    1    2  504  502 -0.92213547136E+02 -0.40558614700E+02  0.25367747148E+03  0.27294797863E+03  0.00000000000E+00 0.  1.
         21    1    1    2  505  503 -0.31319437703E+02 -0.89511018423E+00 -0.12557681369E+03  0.12942659903E+03  0.00000000000E+00 0. -1.
          1    1    1    2  501    0  0.64093883099E+02  0.51281737196E+02  0.12900697186E+03  0.15290729612E+03  0.00000000000E+00 0.  1.
<scales pt_clust_3="52.92044" pt_clust_4="110.81186" pt_clust_5="31.33223" pt_clust_6="52.92044"></scales>
<clustering>
<clus scale="   31.332">  2  5  1 -1</clus>
<clus scale="   52.920">  3  6 -1 -1</clus>
<clus scale="  110.812">  1  4  2 -1</clus>
<clus scale="   31.332">  2  3  1 -1</clus>
</clustering>
</event>
<event>
 6    0  0.1622933E+002  0.1267877E+03  0.7546771E-02  0.1232302E+00
          2   -1    0    0  505    0 -0.00000000000E+00  0.00000000000E+00  0.81182175054E+03  0.81182175054E+03  0.00000000000E+00 0.  1.
         21   -1    0    0  503  502  0.00000000000E+00 -0.00000000000E+00 -0.29807462755E+04  0.29807462755E+04  0.00000000000E+00 0. -1.
         21    1    1    2  503  501  0.10599280696E+03 -0.34057209548E+02  0.10486552615E+03  0.15294164647E+03  0.00000000000E+00 0.  1.
         21    1    1    2  504  502  0.60572808585E+02 -0.11179895140E+03 -0.27473039405E+04  0.27502449004E+04  0.00000000000E+00 0. -1.
         21    1    1    2  505  504 -0.15288748423E+03  0.49967923320E+02 -0.17266952661E+03  0.23597911267E+03  0.00000000000E+00 0.  1.
          2    1    1    2  501    0 -0.13678131314E+02  0.95888237629E+02  0.64618341602E+03  0.65340236649E+03  0.00000000000E+00 0.  1.
<scales pt_clust_3="104.06382" pt_clust_4="14000.00000" pt_clust_5="126.78772" pt_clust_6="96.85889"></scales>
<clustering>
<clus scale="   96.859">  1  6  2 -1</clus>
<clus scale="  104.064">  1  3  2 -1</clus>
<clus scale="  126.788">  1  5  2 -1</clus>
<clus scale="  126.788">  2  3  1 -1</clus>
</clustering>
</event>
<event>
 6    0  0.1622933E+002  0.2278877E+03  0.7546771E-02  0.1128135E+00
         21   -1    0    0  504  502  0.00000000000E+00  0.00000000000E+00  0.23818424179E+03  0.23818424179E+03  0.00000000000E+00 0. -1.
         -4   -1    0    0    0  501 -0.00000000000E+00 -0.00000000000E+00 -0.18545751280E+04  0.18545751280E+04  0.00000000000E+00 0.  1.
         21    1    1    2  503  502 -0.75643259131E+02  0.57460414080E+02 -0.42717121766E+03  0.43760581696E+03  0.00000000000E+00 0.  1.
         21    1    1    2  504  505  0.21397492292E+03 -0.29120114370E+02  0.16345341009E+03  0.27083254230E+03  0.00000000000E+00 0. -1.
         21    1    1    2  505  501 -0.10261153368E+02 -0.93497277495E+02 -0.18205827388E+03  0.20492009969E+03  0.00000000000E+00 0. -1.
         -4    1    1    2    0  503 -0.12807051042E+03  0.65156977785E+02 -0.11706148047E+04  0.11794009108E+04  0.00000000000E+00 0.  1.
<scales pt_clust_3="58.94766" pt_clust_4="216.04759" pt_clust_5="94.05866" pt_clust_6="58.94766"></scales>
<clustering>
<clus scale="   58.948">  3  6 -1 -1</clus>
<clus scale="   94.059">  2  5  1 -1</clus>
<clus scale="  216.048">  1  4  2 -1</clus>
<clus scale="  216.048">  1  3  2 -1</clus>
</clustering>
</event>
<event>
 6    0  0.1622933E+002  0.1644552E+03  0.7546771E-02  0.1183757E+00
          2   -1    0    0  505    0 -0.00000000000E+00  0.00000000000E+00  0.23467916180E+04  0.23467916180E+04  0.00000000000E+00 0. -1.
         21   -1    0    0  503  502  0.00000000000E+00 -0.00000000000E+00 -0.33748588023E+03  0.33748588023E+03  0.00000000000E+00 0.  1.
         21    1    1    2  503  501  0.29727939444E+02  0.81949956346E+02  0.48656384228E+02  0.99834810837E+02  0.00000000000E+00 0. -1.
         21    1    1    2  504  502 -0.57262137378E+02  0.83018827505E+02 -0.29735877577E+03  0.31399573186E+03  0.00000000000E+00 0.  1.
         21    1    1    2  505  504  0.50944427661E+02 -0.20025767558E+02  0.20458080357E+03  0.21177740972E+03  0.00000000000E+00 0. -1.
          2    1    1    2  501    0 -0.23410229727E+02 -0.14494301629E+03  0.20534273257E+04  0.20586695458E+04  0.00000000000E+00 0. -1.
<scales pt_clust_3="87.14565" pt_clust_4="14000.00000" pt_clust_5="54.73907" pt_clust_6="164.45519"></scales>
<clustering>
<clus scale="   54.739">  1  5  2 -1</clus>
<clus scale="   87.146">  2  3  1 -1</clus>
<clus scale="  164.455">  1  6  2 -1</clus>
<clus scale="   87.146">  2  3  1 -1</clus>
</clustering>
</event>
<event>
 6    0  0.1622933E+002  0.1101235E+03  0.7546771E-02  0.1260341E+00
          2   -1    0    0  505    0 -0.00000000000E+00  0.00000000000E+00  0.22490355783E+04  0.22490355783E+04  0.00000000000E+00 0. -1.
         21   -1    0    0  503  502  0.00000000000E+00 -0.00000000000E+00 -0.51922340726E+03  0.51922340726E+03  0.00000000000E+00 0. -1.
         21    1    1    2  503  501  0.25309385920E+02 -0.99183876639E+02 -0.49554241621E+03  0.50600424174E+03  0.00000000000E+00 0. -1.
         21    1    1    2  504  502  0.84861400889E+02  0.60649995877E+02  0.18430397936E+03  0.21177307706E+03  0.00000000000E+00 0. -1.
         21    1    1    2  505  504  0.31451331586E+02 -0.74813009560E+01  0.14347263557E+03  0.14706989250E+03  0.00000000000E+00 0. -1.
          2    1    1    2  501    0 -0.14162211840E+03  0.46015181718E+02  0.18975779723E+04  0.19034117743E+04  0.00000000000E+00 0. -1.
<scales pt_clust_3="102.39952" pt_clust_4="14000.00000" pt_clust_5="32.32887" pt_clust_6="110.12355"></scales>
<clustering>
<clus scale="   32.329">  1  5  2 -1</clus>
<clus scale="  102.400">  2  3  1 -1</clus>
<clus scale="  110.124">  1  6  2 -1</clus>
<clus scale="  102.400">  2  3  1 -1</clus>
</clustering>
</event>
<event>
 6    0  0.1622933E+002  0.8993517E+02  0.7546771E-02  0.1303009E+00
          1   -1    0    0  503    0 -0.00000000000E+00  0.00000000000E+00  0.24223515775E+03  0.24223515775E+03  0.00000000000E+00 0. -1.
         21   -1    0    0  501  502  0.00000000000E+00 -0.00000000000E+00 -0.24814342332E+03  0.24814342332E+03  0.00000000000E+00 0. -1.
         21    1    1    2  503  505 -0.13560742274E+02  0.43253191822E+02  0.11482938541E+03  0.12345250135E+03  0.00000000000E+00 0. -1.
         21    1    1    2  504  502  0.76077222957E+02 -0.28805524683E+02 -0.57383961695E+02  0.99551098261E+02  0.00000000000E+00 0. -1.
         21    1    1    2  505  504  0.60068610989E+02  0.40904404085E+02  0.52663738123E+02  0.89748969982E+02  0.00000000000E+00 0. -1.
          1    1    1    2  501    0 -0.12258509167E+03 -0.55352071224E+02 -0.11601742742E+03  0.17762601148E+03  0.00000000000E+00 0. -1.
<scales pt_clust_3="45.32916" pt_clust_4="76.79563" pt_clust_5="14000.00000" pt_clust_6="89.93517"></scales>
<clustering>
<clus scale="   45.329">  1  3  2 -1</clus>
<clus scale="   76.796">  2  4  1 -1</clus>
<clus scale="   89.935">  2  6  1 -1</clus>
<clus scale="   76.796">  2  3  1 -1</clus>
</clustering>
</event>
<event>
 6    0  0.1622933E+002  0.8738043E+02  0.7546771E-02  0.1309322E+00
          1   -1    0    0  503    0 -0.00000000000E+00  0.00000000000E+00  0.22528642221E+04  0.22528642221E+04  0.00000000000E+00 0.  1.
         21   -1    0    0  504  502  0.00000000000E+00 -0.00000000000E+00 -0.82135073684E+03  0.82135073684E+03  0.00000000000E+00 0.  1.
         21    1    1    2  503  505  0.38113771275E+02 -0.34935458819E+02  0.69632680764E+03  0.69824363146E+03  0.00000000000E+00 0.  1.
         21    1    1    2  504  501  0.67948565428E+02  0.55148791121E+02 -0.81289264478E+03  0.81758965787E+03  0.00000000000E+00 0.  1.
         21    1    1    2  505  502 -0.95479399748E+02  0.27375304390E+02  0.53577852855E+03  0.54490765706E+03  0.00000000000E+00 0.  1.
          1    1    1    2  501    0 -0.10582936955E+02 -0.47588636692E+02  0.10123007938E+04  0.10134740125E+04  0.00000000000E+00 0.  1.
<scales pt_clust_3="69.57635" pt_clust_4="14000.00000" pt_clust_5="87.38043" pt_clust_6="48.75117"></scales>
<clustering>
<clus scale="   48.751">  1  6  2 -1</clus>
<clus scale="   69.576">  1  3  2 -1</clus>
<clus scale="   87.380">  1  5  2 -1</clus>
<clus scale="   87.380">  2  3  1 -1</clus>
</clustering>
</event>
<event>
 6    0  0.1622933E+002  0.1264406E+03  0.7546771E-02  0.1232835E+00
         21   -1    0    0  505  502  0.00000000000E+00  0.00000000000E+00  0.13341876070E+03  0.13341876070E+03  0.00000000000E+00 0.  1.
          2   -1    0    0  503    0 -0.00000000000E+00 -0.00000000000E+00 -0.85749058945E+03  0.85749058945E+03  0.00000000000E+00 0.  1.
         21    1    1    2  503  504 -0.34035600803E+02 -0.35513599196E+02 -0.11645786972E+03  0.12642022492E+03  0.00000000000E+00 0.  1.
         21    1    1    2  504  502  0.27368393379E+02  0.25575474327E+02 -0.37309633531E+02  0.52869108158E+02  0.00000000000E+00 0.  1.
         21    1    1    2  505  501  0.10429187437E+03 -0.12525988817E+02  0.93301855077E+02  0.14049530817E+03  0.00000000000E+00 0.  1.
          2    1    1    2  501    0 -0.97624666948E+02  0.22464113687E+02 -0.66360618058E+03  0.67112470891E+03  0.00000000000E+00 0.  1.
<scales pt_clust_3="47.70703" pt_clust_4="37.45843" pt_clust_5="126.44062" pt_clust_6="14000.00000"></scales>
<clustering>
<clus scale="   37.458">  1  4  2 -1</clus>
<clus scale="   47.707">  2  3  1 -1</clus>
<clus scale="  126.441">  1  5  2 -1</clus>
<clus scale="   37.458">  1  3  2 -1</clus>
</clustering>
</event>
<event>
 6    0  0.1622933E+002  0.1496027E+03  0.7546771E-02  0.1200962E+00
         -1   -1    0    0    0  501 -0.00000000000E+00  0.00000000000E+00  0.17813507698E+04  0.17813507698E+04  0.00000000000E+00 0. -1.
         21   -1    0    0  505  502  0.00000000000E+00 -0.00000000000E+00 -0.86479225045E+03  0.86479225045E+03  0.00000000000E+00 0. -1.
         21    1    1    2  503  501  0.37832002657E+02  0.11958145264E+02  0.85110843979E+03  0.85203276577E+03  0.00000000000E+00 0. -1.
         21    1    1    2  504  502  0.81507528587E+02  0.10297983571E+03 -0.41438041583E+01  0.13139823017E+03  0.00000000000E+00 0. -1.
         21    1    1    2  505  503 -0.25715497103E+02  0.36343815709E+02 -0.78678740769E+03  0.78804605490E+03  0.00000000000E+00 0. -1.
         -1    1    1    2    0  504 -0.93624034140E+02 -0.15128179669E+03  0.85638129140E+03  0.87466596941E+03  0.00000000000E+00 0. -1.
<scales pt_clust_3="39.67692" pt_clust_4="149.60271" pt_clust_5="44.51328" pt_clust_6="14000.00000"></scales>
<clustering>
<clus scale="   39.677">  1  3  2 -1</clus>
<clus scale="   44.513">  2  5  1 -1</clus>
<clus scale="  149.603">  2  4  1 -1</clus>
<clus scale="   44.513">  2  3  1 -1</clus>
</clustering>
</event>
<event>
 6    0  0.1622933E+002  0.1466891E+03  0.7546771E-02  0.1204601E+00
          2   -1    0    0  504    0 -0.00000000000E+00  0.00000000000E+00  0.63625172293E+03  0.63625172293E+03  0.00000000000E+00 0. -1.
         21   -1    0    0  505  502  0.00000000000E+00 -0.00000000000E+00 -0.13251014766E+03  0.13251014766E+03  0.00000000000E+00 0. -1.
         21    1    1    2  503  501  0.41067457173E+02  0.51746164973E+02  0.26317377004E+02  0.71111222464E+02  0.00000000000E+00 0.  1.
         21    1    1    2  504  502  0.58709345998E+02 -0.14641463803E+03  0.30476744335E+03  0.34317230084E+03  0.00000000000E+00 0. -1.
         21    1    1    2  505  503 -0.56263683625E+02 -0.34263726020E+02 -0.57278218123E+02  0.87294898403E+02  0.00000000000E+00 0. -1.
          2    1    1    2  501    0 -0.43513119545E+02  0.12893219908E+03  0.22993497305E+03  0.26718344889E+03  0.00000000000E+00 0. -1.
<scales pt_clust_3="43.89796" pt_clust_4="14000.00000" pt_clust_5="65.87568" pt_clust_6="146.68912"></scales>
<clustering>
<clus scale="   65.876">  2  5  1 -1</clus>
<clus scale="   43.898">  2  3  1 -1</clus>
<clus scale="  146.689">  1  6  2 -1</clus>
<clus scale="   65.876">  2  3  1 -1</clus>
</clustering>
</event>
<event>
 6    0  0.1622933E+002  0.2201024E+03  0.7546771E-02  0.1133807E+00
          2   -1    0    0  503    0 -0.00000000000E+00  0.00000000000E+00  0.35303339570E+04  0.35303339570E+04  0.00000000000E+00 0. -1.
         21   -1    0    0  504  502  0.00000000000E+00 -0.00000000000E+00 -0.67628985061E+03  0.67628985061E+03  0.00000000000E+00 0. -1.
         21    1    1    2  503  505  0.39184758038E+02 -0.23612563130E+02  0.15091394688E+04  0.15098327506E+04  0.00000000000E+00 0. -1.
         21    1    1    2  504  501  0.20846811534E+03  0.73540107329E+02 -0.64486459330E+03  0.68170187486E+03  0.00000000000E+00 0. -1.
         21    1    1    2  505  502 -0.11954141878E+03 -0.74366571082E+01  0.35303644360E+03  0.37280046296E+03  0.00000000000E+00 0.  1.
          2    1    1    2  501    0 -0.12811145459E+03 -0.42490887091E+02  0.16367327872E+04  0.16422887192E+04  0.00000000000E+00 0. -1.
<scales pt_clust_3="45.74930" pt_clust_4="220.10243" pt_clust_5="113.10872" pt_clust_6="14000.00000"></scales>
<clustering>
<clus scale="   45.749">  1  3  2 -1</clus>
<clus scale="  113.109">  1  5  2 -1</clus>
<clus scale="  220.102">  2  4  1 -1</clus>
<clus scale="  220.102">  2  3  1 -1</clus>
</clustering>
</event>
<event>
 6    0  0.1622933E+002  0.1467807E+03  0.7546771E-02  0.1204486E+00
          1   -1    0    0  503    0 -0.00000000000E+00  0.00000000000E+00  0.14311002796E+04  0.14311002796E+04  0.00000000000E+00 0.  1.
         21   -1    0    0  501  502  0.00000000000E+00 -0.00000000000E+00 -0.33915216542E+03  0.33915216542E+03  0.00000000000E+00 0. -1.
         21    1    1    2  503  504  0.19695910209E+02  0.23310128481E+02  0.45007278512E+03  0.45110619911E+03  0.00000000000E+00 0. -1.
         21    1    1    2  504  505  0.50305077122E+02 -0.87548804441E+02  0.21273448899E+02  0.10318892175E+03  0.00000000000E+00 0.  1.
         21    1    1    2  505  502  0.11015906075E+02 -0.55964197634E+02 -0.28915373569E+03  0.29472567664E+03  0.00000000000E+00 0. -1.
          1    1    1    2  501    0 -0.81016893406E+02  0.12020287359E+03  0.90975561588E+03  0.92123164756E+03  0.00000000000E+00 0.  1.
<scales pt_clust_3="30.51706" pt_clust_4="146.78067" pt_clust_5="56.98393" pt_clust_6="14000.00000"></scales>
<clustering>
<clus scale="   30.517">  1  3  2 -1</clus>
<clus scale="   56.984">  2  5  1 -1</clus>
<clus scale="  146.781">  2  4  1 -1</clus>
<clus scale="   56.984">  2  3  1 -1</clus>
</clustering>
</event>
<event>
 6    0  0.1622933E+002  0.8667571E+02  0.7546771E-02  0.1311108E+00
         -1   -1    0    0    0  501 -0.00000000000E+00  0.00000000000E+00  0.12274555584E+03  0.12274555584E+03  0.00000000000E+00 0.  1.
         21   -1    0    0  505  502  0.00000000000E+00 -0.00000000000E+00 -0.74679329481E+03  0.74679329481E+03  0.00000000000E+00 0.  1.
         21    1    1    2  503  504 -0.53893955445E+02  0.52516745420E+02 -0.24631835739E+02  0.79178875433E+02  0.00000000000E+00 0. -1.
         21    1    1    2  504  502  0.89738441979E+02 -0.53683716556E+01 -0.64764475257E+03  0.65385436674E+03  0.00000000000E+00 0.  1.
         21    1    1    2  505  501  0.15279410612E+02 -0.37298841744E+02 -0.24419690983E+02  0.47127330625E+02  0.00000000000E+00 0.  1.
         -1    1    1    2    0  503 -0.51123897145E+02 -0.98495320200E+01  0.72648540319E+02  0.89378277846E+02  0.00000000000E+00 0.  1.
<scales pt_clust_3="14000.00000" pt_clust_4="86.67571" pt_clust_5="40.30712" pt_clust_6="54.48089"></scales>
<clustering>
<clus scale="   40.307">  1  5  2 -1</clus>
<clus scale="   54.481">  1  6  2 -1</clus>
<clus scale="   86.676">  2  4  1 -1</clus>
<clus scale="   86.676">  2  3  1 -1</clus>
</clustering>
</event>
<event>
 6    0  0.1622933E+002  0.1083304E+03  0.7546771E-02  0.1263693E+00
         21   -1    0    0  501  502  0.00000000000E+00  0.00000000000E+00  0.33499431513E+02  0.33499431513E+02  0.00000000000E+00 0.  1.
          3   -1    0    0  505    0 -0.00000000000E+00 -0.00000000000E+00 -0.20538007020E+04  0.20538007020E+04  0.00000000000E+00 0. -1.
         21    1    1    2  503  504 -0.13965952160E+01 -0.88458788245E+02 -0.53535314009E+02  0.10340666101E+03  0.00000000000E+00 0.  1.
         21    1    1    2  504  502 -0.75925723706E+01 -0.33011655661E+02 -0.77402576948E+02  0.84490091033E+02  0.00000000000E+00 0.  1.
         21    1    1    2  505  503  0.79706707886E+02  0.60461602239E+02 -0.10977651448E+04  0.11023144187E+04  0.00000000000E+00 0. -1.
          3    1    1    2  501    0 -0.70717540300E+02  0.61008841668E+02 -0.79159823482E+03  0.79708896281E+03  0.00000000000E+00 0. -1.
<scales pt_clust_3="108.33037" pt_clust_4="33.87354" pt_clust_5="14000.00000" pt_clust_6="91.98884"></scales>
<clustering>
<clus scale="   33.874">  1  4  2 -1</clus>
<clus scale="   91.989">  2  6  1 -1</clus>
<clus scale="  108.330">  1  3  2 -1</clus>
<clus scale="   33.874">  1  3  2 -1</clus>
</clustering>
</event>
<event>
 6    0  0.1622933E+002  0.1382265E+03  0.7546771E-02  0.1215735E+00
         21   -1    0    0  503  502  0.00000000000E+00  0.00000000000E+00  0.66410726036E+03  0.66410726036E+03  0.00000000000E+00 0. -1.
         -4   -1    0    0    0  501 -0.00000000000E+00 -0.00000000000E+00 -0.81749127317E+02  0.81749127317E+02  0.00000000000E+00 0. -1.
         21    1    1    2  503  505 -0.23022206310E+02 -0.21806269331E+02  0.40349022130E+02  0.51318407540E+02  0.00000000000E+00 0. -1.
         21    1    1    2  504  502 -0.11078453106E+02  0.58124814761E+02  0.28977178250E+02  0.65885530077E+02  0.00000000000E+00 0. -1.
         21    1    1    2  505  501  0.47367271878E+02 -0.10273185506E+03  0.54295229767E+03  0.55461219787E+03  0.00000000000E+00 0. -1.
         -4    1    1    2    0  504 -0.13266612462E+02  0.66413309630E+02 -0.29920365003E+02  0.74040252188E+02  0.00000000000E+00 0. -1.
<scales pt_clust_3="31.71018" pt_clust_4="54.75136" pt_clust_5="125.02260" pt_clust_6="54.75136"></scales>
<clustering>
<clus scale="   31.710">  1  3  2 -1</clus>
<clus scale="   54.751">  4  6 -1 -1</clus>
<clus scale="  125.023">  1  5  2 -1</clus>
<clus scale="   31.710">  1  3  2 -1</clus>
</clustering>
</event>
<event>
 6    0  0.1622933E+002  0.9892864E+02  0.7546771E-02  0.1282565E+00
         21   -1    0    0  504  502  0.00000000000E+00  0.00000000000E+00  0.41244204646E+02  0.41244204646E+02  0.00000000000E+00 0.  1.
          1   -1    0    0  503    0 -0.00000000000E+00 -0.00000000000E+00 -0.34435391380E+04  0.34435391380E+04  0.00000000000E+00 0.  1.
         21    1    1    2  503  502 -0.63925688506E+02  0.45516727881E+02 -0.36870645701E+03  0.37696514110E+03  0.00000000000E+00 0. -1.
         21    1    1    2  504  505 -0.24760320472E+02  0.95394667659E+02 -0.36976811330E+02  0.10526395710E+03  0.00000000000E+00 0.  1.
         21    1    1    2  505  501  0.24525939413E+02 -0.10287376602E+03 -0.12960825527E+04  0.13003901403E+04  0.00000000000E+00 0.  1.
          1    1    1    2  501    0  0.64160069566E+02 -0.38037629518E+02 -0.17005291123E+04  0.17021641042E+04  0.00000000000E+00 0.  1.
<scales pt_clust_3="62.58244" pt_clust_4="14000.00000" pt_clust_5="98.92864" pt_clust_6="74.58804"></scales>
<clustering>
<clus scale="   74.588">  2  6  1 -1</clus>
<clus scale="   62.582">  2  3  1 -1</clus>
<clus scale="   98.929">  2  5  1 -1</clus>
<clus scale="   98.929">  1  3  2 -1</clus>
</clustering>
</event>
<event>
 6    0  0.1622933E+002  0.1175315E+03  0.7546771E-02  0.1247226E+00
         21   -1    0    0  505  502  0.00000000000E+00  0.00000000000E+00  0.20870256597E+03  0.20870256597E+03  0.00000000000E+00 0. -1.
          2   -1    0    0  504    0 -0.00000000000E+00 -0.00000000000E+00 -0.61227197916E+03  0.61227197916E+03  0.00000000000E+00 0.  1.
         21    1    1    2  503  502  0.15838940998E+02  0.33075906073E+02  0.16173580207E+03  0.16584136181E+03  0.00000000000E+00 0. -1.
         21    1    1    2  504  503  0.57913697284E+02 -0.52499312074E+01 -0.11934550509E+03  0.13275883284E+03  0.00000000000E+00 0.  1.
         21    1    1    2  505  501 -0.16940310959E+01  0.96607865843E+02 -0.68464080909E+02  0.11841993016E+03  0.00000000000E+00 0. -1.
          2    1    1    2  501    0 -0.72058607186E+02 -0.12443384071E+03 -0.37749562927E+03  0.40395442032E+03  0.00000000000E+00 0.  1.
<scales pt_clust_3="36.67271" pt_clust_4="60.27961" pt_clust_5="117.53145" pt_clust_6="14000.00000"></scales>
<clustering>
<clus scale="   36.673">  1  3  2 -1</clus>
<clus scale="   60.280">  2  4  1 -1</clus>
<clus scale="  117.531">  1  5  2 -1</clus>
<clus scale="   36.673">  1  3  2 -1</clus>
</clustering>
</event>
<event>
 6    0  0.1622933E+002  0.1976295E+03  0.7546771E-02  0.1151755E+00
         21   -1    0    0  501  502  0.00000000000E+00  0.00000000000E+00  0.24869848430E+04  0.24869848430E+04  0.00000000000E+00 0. -1.
         -3   -1    0    0    0  501 -0.00000000000E+00 -0.00000000000E+00 -0.12363660863E+03  0.12363660863E+03  0.00000000000E+00 0. -1.
         21    1    1    2  503  504 -0.92375613551E+02 -0.13658208037E+03  0.19065808576E+03  0.25206829297E+03  0.00000000000E+00 0. -1.
         21    1    1    2  504  502  0.11948542191E+03 -0.91714081816E+02  0.21105798942E+04  0.21159479504E+04  0.00000000000E+00 0. -1.
         21    1    1    2  505  503 -0.12110494474E+02  0.15558626814E+03  0.63168481641E+02  0.16835678775E+03  0.00000000000E+00 0.  1.
         -3    1    1    2    0  505 -0.14999313886E+02  0.72709894045E+02 -0.10582272145E+01  0.74248420549E+02  0.00000000000E+00 0. -1.
<scales pt_clust_3="192.12464" pt_clust_4="150.62616" pt_clust_5="31.94823" pt_clust_6="31.94823"></scales>
<clustering>
<clus scale="   31.948">  5  6 -1 -1</clus>
<clus scale="  150.626">  1  4  2 -1</clus>
<clus scale="  192.125">  1  3  2 -1</clus>
<clus scale="  150.626">  1  3  2 -1</clus>
</clustering>
</event>
<event>
 6    0  0.1622933E+002  0.9802001E+02  0.7546771E-02  0.1284516E+00
          2   -1    0    0  503    0 -0.00000000000E+00  0.00000000000E+00  0.18330095019E+04  0.18330095019E+04  0.00000000000E+00 0. -1.
         21   -1    0    0  504  502  0.00000000000E+00 -0.00000000000E+00 -0.52677327127E+03  0.52677327127E+03  0.00000000000E+00 0.  1.
         21    1    1    2  503  505  0.14689388733E+01 -0.33820706765E+02  0.75795675213E+03  0.75871235399E+03  0.00000000000E+00 0. -1.
         21    1    1    2  504  501  0.78918753971E+02  0.58240021775E+02 -0.51547431132E+03  0.52472262720E+03  0.00000000000E+00 0.  1.
         21    1    1    2  505  502  0.31152980235E+02 -0.30998759183E+02  0.16804284764E+03  0.17369464555E+03  0.00000000000E+00 0.  1.
          2    1    1    2  501    0 -0.11154067308E+03  0.65794441730E+01  0.89571094214E+03  0.90265314640E+03  0.00000000000E+00 0. -1.
<scales pt_clust_3="33.85259" pt_clust_4="98.02001" pt_clust_5="48.04514" pt_clust_6="14000.00000"></scales>
<clustering>
<clus scale="   33.853">  1  3  2 -1</clus>
<clus scale="   48.045">  1  5  2 -1</clus>
<clus scale="   98.020">  2  4  1 -1</clus>
<clus scale="   98.020">  2  3  1 -1</clus>
</clustering>
</event>
<event>
 6    0  0.1622933E+002  0.2156506E+03  0.7546771E-02  0.1137168E+00
          2   -1    0    0  503    0 -0.00000000000E+00  0.00000000000E+00  0.35510319896E+03  0.35510319896E+03  0.00000000000E+00 0. -1.
         21   -1    0    0  504  502  0.00000000000E+00 -0.00000000000E+00 -0.53974836129E+03  0.53974836129E+03  0.00000000000E+00 0.  1.
         21    1    1    2  503  505  0.38600236591E+02  0.66819241606E+01  0.57732021709E+02  0.69768278651E+02  0.00000000000E+00 0. -1.
         21    1    1    2  504  501  0.13722009865E+03 -0.16744723061E+03 -0.43262703821E+03  0.48377069434E+03  0.00000000000E+00 0.  1.
         21    1    1    2  505  502 -0.66753288476E+02 -0.19214147107E+02  0.25312891161E+02  0.73931910771E+02  0.00000000000E+00 0. -1.
          2    1    1    2  501    0 -0.10906704677E+03  0.17997945356E+03  0.16493696301E+03  0.26738067649E+03  0.00000000000E+00 0. -1.
<scales pt_clust_3="39.17431" pt_clust_4="215.65064" pt_clust_5="62.83517" pt_clust_6="14000.00000"></scales>
<clustering>
<clus scale="   39.174">  1  3  2 -1</clus>
<clus scale="   62.835">  1  5  2 -1</clus>
<clus scale="  215.651">  2  4  1 -1</clus>
<clus scale="  215.651">  2  3  1 -1</clus>
</clustering>
</event>
<event>
 6    0  0.1622933E+002  0.1809788E+03  0.7546771E-02  0.1166859E+00
          2   -1    0    0  503    0 -0.00000000000E+00  0.00000000000E+00  0.19249347833E+04  0.19249347833E+04  0.00000000000E+00 0.  1.
         21   -1    0    0  505  502  0.00000000000E+00 -0.00000000000E+00 -0.28754368699E+02  0.28754368699E+02  0.00000000000E+00 0.  1.
         21    1    1    2  503  504  0.26804911440E+02  0.22740030372E+02  0.79172975866E+03  0.79250969900E+03  0.00000000000E+00 0.  1.
         21    1    1    2  504  502  0.15745881325E+03  0.25797299134E+02  0.57434469896E+03  0.59609614303E+03  0.00000000000E+00 0.  1.
         21    1    1    2  505  501 -0.78415324631E+02 -0.35057055071E+02  0.18733712681E+03  0.20609017281E+03  0.00000000000E+00 0.  1.
          2    1    1    2  501    0 -0.10584840005E+03 -0.13480274435E+02  0.34276883018E+03  0.35899313717E+03  0.00000000000E+00 0.  1.
<scales pt_clust_3="35.15128" pt_clust_4="175.37250" pt_clust_5="40.44733" pt_clust_6="40.44733"></scales>
<clustering>
<clus scale="   35.151">  1  3  2 -1</clus>
<clus scale="   40.447">  5  6 -1 -1</clus>
<clus scale="  175.373">  1  4  2 -1</clus>
<clus scale="  180.979">  2  3  1 -1</clus>
</clustering>
</event>
<event>
 6    0  0.1622933E+002  0.1055442E+03  0.7546771E-02  0.1269051E+00
         21   -1    0    0  504  502  0.00000000000E+00  0.00000000000E+00  0.63200330048E+02  0.63200330048E+02  0.00000000000E+00 0. -1.
          2   -1    0    0  505    0 -0.00000000000E+00 -0.00000000000E+00 -0.41237114886E+04  0.41237114886E+04  0.00000000000E+00 0. -1.
         21    1    1    2  503  502 -0.24491393053E+02  0.19893204904E+02  0.48839338853E+02  0.58145068188E+02  0.00000000000E+00 0. -1.
         21    1    1    2  504  501  0.52349691373E+02 -0.74944947612E+02 -0.80421931525E+03  0.80939850654E+03  0.00000000000E+00 0.  1.
         21    1    1    2  505  503  0.13461038375E+02  0.12498854798E+03 -0.60049490177E+03  0.61351239900E+03  0.00000000000E+00 0. -1.
          2    1    1    2  501    0 -0.41319336695E+02 -0.69936805271E+02 -0.27046362804E+04  0.27058558449E+04  0.00000000000E+00 0. -1.
<scales pt_clust_3="31.55262" pt_clust_4="105.54417" pt_clust_5="14000.00000" pt_clust_6="80.96125"></scales>
<clustering>
<clus scale="   31.553">  1  3  2 -1</clus>
<clus scale="   80.961">  2  6  1 -1</clus>
<clus scale="  105.544">  1  4  2 -1</clus>
<clus scale="   31.553">  1  3  2 -1</clus>
</clustering>
</event>
<event>
 6    0  0.1622933E+002  0.9507524E+02  0.7546771E-02  0.1291007E+00
         21   -1    0    0  505  502  0.00000000000E+00  0.00000000000E+00  0.56935631625E+02  0.56935631625E+02  0.00000000000E+00 0. -1.
          2   -1    0    0  504    0 -0.00000000000E+00 -0.00000000000E+00 -0.13339203630E+04  0.13339203630E+04  0.00000000000E+00 0. -1.
         21    1    1    2  503  501 -0.31052096174E+01  0.88308843467E+02 -0.50123891770E+03  0.50896811961E+03  0.00000000000E+00 0.  1.
         21    1    1    2  504  502  0.73363132354E+01 -0.33077681345E+02 -0.11961786078E+03  0.12432371903E+03  0.00000000000E+00 0. -1.
         21    1    1    2  505  503  0.48322896482E+02 -0.83643148684E+02  0.21090450022E+01  0.96621564451E+02  0.00000000000E+00 0. -1.
          2    1    1    2  501    0 -0.52554000100E+02  0.28411986562E+02 -0.65823699789E+03  0.66094259153E+03  0.00000000000E+00 0. -1.
<scales pt_clust_3="14000.00000" pt_clust_4="33.88148" pt_clust_5="95.07524" pt_clust_6="49.66451"></scales>
<clustering>
<clus scale="   33.881">  2  4  1 -1</clus>
<clus scale="   49.665">  2  6  1 -1</clus>
<clus scale="   95.075">  1  5  2 -1</clus>
<clus scale="   95.075">  1  3  2 -1</clus>
</clustering>
</event>
<event>
 6    0  0.1622933E+002  0.1008959E+03  0.7546771E-02  0.1278423E+00
          2   -1    0    0  505    0 -0.00000000000E+00  0.00000000000E+00  0.25437528990E+04  0.25437528990E+04  0.00000000000E+00 0. -1.
         21   -1    0    0  503  502  0.00000000000E+00 -0.00000000000E+00 -0.58088694029E+02  0.58088694029E+02  0.00000000000E+00 0. -1.
         21    1    1    2  503  501  0.76439377317E+02  0.82118877142E+02  0.37602772051E+01  0.11225251922E+03  0.00000000000E+00 0. -1.
         21    1    1    2  504  502 -0.44861682671E+02 -0.24934843656E+02  0.26387014763E+03  0.26881549771E+03  0.00000000000E+00 0. -1.
         21    1    1    2  505  504  0.13518030314E+02 -0.46884612436E+02  0.56814401106E+03  0.57023549638E+03  0.00000000000E+00 0. -1.
          2    1    1    2  501    0 -0.45095724960E+02 -0.10299421050E+02  0.16498897690E+04  0.16505380797E+04  0.00000000000E+00 0. -1.
<scales pt_clust_3="14000.00000" pt_clust_4="100.89594" pt_clust_5="55.56709" pt_clust_6="46.25692"></scales>
<clustering>
<clus scale="   46.257">  1  6  2 -1</clus>
<clus scale="   55.567">  1  5  2 -1</clus>
<clus scale="  100.896">  1  4  2 -1</clus>
<clus scale="  100.896">  2  3  1 -1</clus>
</clustering>
</event>
<event>
 6    0  0.1622933E+002  0.1690392E+03  0.7546771E-02  0.1178854E+00
         21   -1    0    0  504  502  0.00000000000E+00  0.00000000000E+00  0.13539190138E+04  0.13539190138E+04  0.00000000000E+00 0.  1.
          2   -1    0    0  505    0 -0.00000000000E+00 -0.00000000000E+00 -0.46052341926E+02  0.46052341926E+02  0.00000000000E+00 0.  1.
         21    1    1    2  503  502  0.53697322479E+02  0.11850455386E+03  0.15128963405E+03  0.19953767839E+03  0.00000000000E+00 0.  1.
         21    1    1    2  504  501 -0.46772837747E+02 -0.55079877873E+02  0.64894814203E+03  0.65295879069E+03  0.00000000000E+00 0.  1.
         21    1    1    2  505  503 -0.84270818741E+01  0.32989863199E+02  0.35245982024E+01  0.34231119983E+02  0.00000000000E+00 0.  1.
          2    1    1    2  501    0  0.15025971420E+01 -0.96414539186E+02  0.50410429760E+03  0.51324376667E+03  0.00000000000E+00 0.  1.
<scales pt_clust_3="151.90696" pt_clust_4="65.31636" pt_clust_5="34.04918" pt_clust_6="65.31636"></scales>
<clustering>
<clus scale="   34.049">  2  5  1 -1</clus>
<clus scale="   65.316">  4  6 -1 -1</clus>
<clus scale="  151.907">  2  3  1 -1</clus>
<clus scale="  169.039">  1  3  2 -1</clus>
</clustering>
</event>
<event>
 6    0  0.1622933E+002  0.7951664E+02  0.7546771E-02  0.1330429E+00
          1   -1    0    0  503    0 -0.00000000000E+00  0.00000000000E+00  0.95505137083E+02  0.95505137083E+02  0.00000000000E+00 0.  1.
         21   -1    0    0  501  502  0.00000000000E+00 -0.00000000000E+00 -0.96038084428E+03  0.96038084428E+03  0.00000000000E+00 0.  1.
         21    1    1    2  503  504 -0.67759192304E+02 -0.62363480961E+02 -0.15825134259E+02  0.93439535388E+02  0.00000000000E+00 0.  1.
         21    1    1    2  504  505  0.67085100797E+02 -0.17917684758E+01 -0.80048288512E+02  0.10445740604E+03  0.00000000000E+00 0.  1.
         21    1    1    2  505  502  0.48190633597E+02  0.37963199669E+01 -0.77902188661E+03  0.78052024255E+03  0.00000000000E+00 0.  1.
          1    1    1    2  501    0 -0.47516542090E+02  0.60358929470E+02  0.10019602191E+02  0.77468797377E+02  0.00000000000E+00 0.  1.
<scales pt_clust_3="79.51664" pt_clust_4="14000.00000" pt_clust_5="48.33993" pt_clust_6="72.20055"></scales>
<clustering>
<clus scale="   48.340">  2  5  1 -1</clus>
<clus scale="   72.201">  1  6  2 -1</clus>
<clus scale="   79.517">  1  3  2 -1</clus>
<clus scale="   48.340">  2  3  1 -1</clus>
</clustering>
</event>
<event>
 6    0  0.1622933E+002  0.1591000E+03  0.7546771E-02  0.1189717E+00
         21   -1    0    0  505  502  0.00000000000E+00  0.00000000000E+00  0.10326151885E+04  0.10326151885E+04  0.00000000000E+00 0.  1.
          2   -1    0    0  503    0 -0.00000000000E+00 -0.00000000000E+00 -0.53423281532E+03  0.53423281532E+03  0.00000000000E+00 0.  1.
         21    1    1    2  503  504  0.17336668313E+02  0.29417818377E+02 -0.43063485992E+02  0.54958456420E+02  0.00000000000E+00 0. -1.
         21    1    1    2  504  502 -0.28228839615E+02  0.39564553235E+02 -0.17392529006E+02  0.51620938813E+02  0.00000000000E+00 0. -1.
         21    1    1    2  505  501  0.67063217762E+01 -0.15994079792E+03  0.99851339563E+03  0.10112640777E+04  0.00000000000E+00 0.  1.
          2    1    1    2  501    0  0.41858495260E+01  0.90958426304E+02 -0.43967500741E+03  0.44900453093E+03  0.00000000000E+00 0.  1.
<scales pt_clust_3="34.14628" pt_clust_4="49.63924" pt_clust_5="159.10002" pt_clust_6="14000.00000"></scales>
<clustering>
<clus scale="   34.146">  2  3  1 -1</clus>
<clus scale="   49.639">  2  4  1 -1</clus>
<clus scale="  159.100">  1  5  2 -1</clus>
<clus scale="  159.100">  1  3  2 -1</clus>
</clustering>
</event>
<event>
 6    0  0.1622933E+002  0.1021630E+03  0.7546771E-02  0.1275812E+00
         -2   -1    0    0    0  501 -0.00000000000E+00  0.00000000000E+00  0.51230206870E+03  0.51230206870E+03  0.00000000000E+00 0.  1.
         21   -1    0    0  504  502  0.00000000000E+00 -0.00000000000E+00 -0.69696373677E+02  0.69696373677E+02  0.00000000000E+00 0.  1.
         21    1    1    2  503  501 -0.20320943938E+02  0.31608485604E+02  0.77422551793E+02  0.86059796948E+02  0.00000000000E+00 0.  1.
         21    1    1    2  504  505 -0.85353458591E+02 -0.68240429800E+02  0.94221621647E+01  0.10968475871E+03  0.00000000000E+00 0.  1.
         21    1    1    2  505  503  0.98123707605E+02 -0.14716064917E+01  0.16839192740E+03  0.19490066402E+03  0.00000000000E+00 0.  1.
         -2    1    1    2    0  502  0.75506949246E+01  0.38103550688E+02  0.18736905366E+03  0.19135322270E+03  0.00000000000E+00 0.  1.
<scales pt_clust_3="37.57708" pt_clust_4="14000.00000" pt_clust_5="102.16298" pt_clust_6="52.02347"></scales>
<clustering>
<clus scale="   37.577">  1  3  2 -1</clus>
<clus scale="   52.023">  1  6  2 -1</clus>
<clus scale="  102.163">  1  5  2 -1</clus>
<clus scale="  102.163">  2  3  1 -1</clus>
</clustering>
</event>
<event>
 6    0  0.1622933E+002  0.1147761E+03  0.7546771E-02  0.1251972E+00
         -3   -1    0    0    0  501 -0.00000000000E+00  0.00000000000E+00  0.19775455380E+03  0.19775455380E+03  0.00000000000E+00 0. -1.
         21   -1    0    0  504  502  0.00000000000E+00 -0.00000000000E+00 -0.43328739651E+03  0.43328739651E+03  0.00000000000E+00 0.  1.
         21    1    1    2  503  502  0.60384000139E+02  0.20091377706E+02 -0.54734568333E+02  0.83939048729E+02  0.00000000000E+00 0.  1.
         21    1    1    2  504  505  0.65552520602E+02 -0.96232951133E+01 -0.33046273422E+03  0.33703910675E+03  0.00000000000E+00 0.  1.
         21    1    1    2  505  501 -0.43183528304E+02 -0.23101841132E+02  0.14499975688E+02  0.51076036215E+02  0.00000000000E+00 0. -1.
         -3    1    1    2    0  503 -0.82752992437E+02  0.12633758539E+02  0.13516448416E+03  0.15898775862E+03  0.00000000000E+00 0. -1.
<scales pt_clust_3="59.37074" pt_clust_4="14000.00000" pt_clust_5="48.97461" pt_clust_6="114.77614"></scales>
<clustering>
<clus scale="   48.975">  1  5  2 -1</clus>
<clus scale="   59.371">  2  3  1 -1</clus>
<clus scale="  114.776">  1  6  2 -1</clus>
<clus scale="   59.371">  2  3  1 -1</clus>
</clustering>
</event>
<event>
 6    0  0.1622933E+002  0.1279096E+03  0.7546771E-02  0.1230591E+00
          1   -1    0    0  504    0 -0.00000000000E+00  0.00000000000E+00  0.46410822610E+03  0.46410822610E+03  0.00000000000E+00 0.  1.
         21   -1    0    0  505  502  0.00000000000E+00 -0.00000000000E+00 -0.98229399412E+02  0.98229399412E+02  0.00000000000E+00 0. -1.
         21    1    1    2  503  501  0.13312205857E+02  0.37122563582E+02  0.85725006681E+02  0.94361413311E+02  0.00000000000E+00 0.  1.
         21    1    1    2  504  502  0.66602628819E+02 -0.61580385899E+02 -0.36607682111E+02  0.97817056195E+02  0.00000000000E+00 0. -1.
         21    1    1    2  505  503 -0.38538123598E+02 -0.60917797807E+02  0.51916934721E+02  0.88834301770E+02  0.00000000000E+00 0. -1.
          1    1    1    2  501    0 -0.41376711077E+02  0.85375620124E+02  0.26484456740E+03  0.28132485424E+03  0.00000000000E+00 0.  1.
<scales pt_clust_3="31.89787" pt_clust_4="117.95402" pt_clust_5="72.08443" pt_clust_6="31.89787"></scales>
<clustering>
<clus scale="   31.898">  3  6 -1 -1</clus>
<clus scale="   72.084">  2  5  1 -1</clus>
<clus scale="  117.954">  2  4  1 -1</clus>
<clus scale="   72.084">  2  3  1 -1</clus>
</clustering>
</event>
<event>
 6    0  0.1622933E+002  0.1706674E+03  0.7546771E-02  0.1177154E+00
          2   -1    0    0  504    0 -0.00000000000E+00  0.00000000000E+00  0.21973458199E+04  0.21973458199E+04  0.00000000000E+00 0. -1.
         21   -1    0    0  505  502  0.00000000000E+00 -0.00000000000E+00 -0.32688514961E+02  0.32688514961E+02  0.00000000000E+00 0.  1.
         21    1    1    2  503  501  0.50542440095E+02 -0.47762531874E+02  0.78430688260E+03  0.78738369540E+03  0.00000000000E+00 0. -1.
         21    1    1    2  504  502 -0.88056934446E+02  0.11329126956E+03  0.51038963718E+03  0.53017593042E+03  0.00000000000E+00 0.  1.
         21    1    1    2  505  503 -0.98285788352E+01  0.32812849574E+02 -0.14224102555E+01  0.34282755287E+02  0.00000000000E+00 0.  1.
          2    1    1    2  501    0  0.47343073187E+02 -0.98341587256E+02  0.87138319539E+03  0.87819195371E+03  0.00000000000E+00 0. -1.
<scales pt_clust_3="35.34056" pt_clust_4="164.99313" pt_clust_5="34.25323" pt_clust_6="35.34056"></scales>
<clustering>
<clus scale="   34.253">  2  5  1 -1</clus>
<clus scale="   35.341">  3  6 -1 -1</clus>
<clus scale="  164.993">  2  4  1 -1</clus>
<clus scale="   34.253">  2  3  1 -1</clus>
</clustering>
</event>
<event>
 6    0  0.1622933E+002  0.1669858E+03  0.7546771E-02  0.1181028E+00
         -1   -1    0    0    0  501 -0.00000000000E+00  0.00000000000E+00  0.74538577051E+03  0.74538577051E+03  0.00000000000E+00 0. -1.
         21   -1    0    0  505  502  0.00000000000E+00 -0.00000000000E+00 -0.91085641706E+02  0.91085641706E+02  0.00000000000E+00 0.  1.
         21    1    1    2  503  504  0.39361034308E+02  0.24532285752E+02  0.10109882058E+03  0.11122992218E+03  0.00000000000E+00 0. -1.
         21    1    1    2  504  502 -0.12050689344E+02 -0.14653257753E+03  0.15898184085E+02  0.14788430494E+03  0.00000000000E+00 0.  1.
         21    1    1    2  505  501 -0.51589195150E+02 -0.27450883502E+02  0.18156286083E+03  0.19073559840E+03  0.00000000000E+00 0. -1.
         -1    1    1    2    0  503  0.24278850186E+02  0.14945117528E+03  0.35574026330E+03  0.38662158669E+03  0.00000000000E+00 0. -1.
<scales pt_clust_3="38.48019" pt_clust_4="151.82345" pt_clust_5="58.43797" pt_clust_6="38.48019"></scales>
<clustering>
<clus scale="   38.480">  3  6 -1 -1</clus>
<clus scale="   58.438">  1  5  2 -1</clus>
<clus scale="  151.823">  2  4  1 -1</clus>
<clus scale="  151.823">  2  3  1 -1</clus>
</clustering>
</event>
<event>
 6    0  0.1622933E+002  0.1387244E+03  0.7546771E-02  0.1215056E+00
         21   -1    0    0  505  502  0.00000000000E+00  0.00000000000E+00  0.52816990653E+02  0.52816990653E+02  0.00000000000E+00 0. -1.
          2   -1    0    0  503    0 -0.00000000000E+00 -0.00000000000E+00 -0.10383608342E+04  0.10383608342E+04  0.00000000000E+00 0.  1.
         21    1    1    2  503  502  0.68710685250E+02 -0.91133021056E+02 -0.29188140185E+03  0.31340251840E+03  0.00000000000E+00 0. -1.
         21    1    1    2  504  501 -0.61823072679E+02  0.97412954209E+01 -0.29609727020E+03  0.30263935397E+03  0.00000000000E+00 0.  1.
         21    1    1    2  505  504  0.45694906073E+02  0.11707743001E+02  0.18009002795E+02  0.50491780211E+02  0.00000000000E+00 0. -1.
          2    1    1    2  501    0 -0.52582518644E+02  0.69683982634E+02 -0.41557417425E+03  0.42464417223E+03  0.00000000000E+00 0.  1.
<scales pt_clust_3="127.18645" pt_clust_4="46.89977" pt_clust_5="47.17092" pt_clust_6="46.89977"></scales>
<clustering>
<clus scale="   46.900">  4  6 -1 -1</clus>
<clus scale="   47.171">  1  5  2 -1</clus>
<clus scale="  127.186">  1  3  2 -1</clus>
<clus scale="   47.171">  1  3  2 -1</clus>
</clustering>
</event>
<event>
 6    0  0.1622933E+002  0.1639604E+03  0.7546771E-02  0.1184297E+00
          4   -1    0    0  504    0 -0.00000000000E+00  0.00000000000E+00  0.20984933457E+04  0.20984933457E+04  0.00000000000E+00 0.  1.
         21   -1    0    0  501  502  0.00000000000E+00 -0.00000000000E+00 -0.13100790262E+03  0.13100790262E+03  0.00000000000E+00 0.  1.
         21    1    1    2  503  502  0.20346811052E+02  0.85305122040E+02 -0.87307166383E+02  0.12374771864E+03  0.00000000000E+00 0.  1.
         21    1    1    2  504  505  0.89456619763E+02  0.84518195549E+02  0.48039579241E+03  0.49590919488E+03  0.00000000000E+00 0.  1.
         21    1    1    2  505  503 -0.19863302903E+03 -0.10780308804E+03  0.11356615740E+04  0.11579308255E+04  0.00000000000E+00 0.  1.
          4    1    1    2  501    0  0.88829598218E+02 -0.62020229548E+02  0.43873524306E+03  0.45191350931E+03  0.00000000000E+00 0.  1.
<scales pt_clust_3="87.69810" pt_clust_4="14000.00000" pt_clust_5="163.96045" pt_clust_6="102.22529"></scales>
<clustering>
<clus scale="   87.698">  2  3  1 -1</clus>
<clus scale="  102.225">  2  6  1 -1</clus>
<clus scale="  163.960">  2  5  1 -1</clus>
<clus scale="   87.698">  2  3  1 -1</clus>
</clustering>
</event>
<event>
 6    0  0.1622933E+002  0.3666389E+03  0.7546771E-02  0.1055986E+00
         21   -1    0    0  504  502  0.00000000000E+00  0.00000000000E+00  0.26589114424E+03  0.26589114424E+03  0.00000000000E+00 0.  1.
          2   -1    0    0  505    0 -0.00000000000E+00 -0.00000000000E+00 -0.34036126546E+04  0.34036126546E+04  0.00000000000E+00 0. -1.
         21    1    1    2  503  502  0.61427870717E+02 -0.32650903312E+02 -0.13246579376E+03  0.14962169397E+03  0.00000000000E+00 0.  1.
         21    1    1    2  504  501  0.73046899483E+02  0.36197887832E+03  0.10736864254E+03  0.38456804766E+03  0.00000000000E+00 0.  1.
         21    1    1    2  505  503 -0.18099476482E+02 -0.36920470287E+02 -0.13549757106E+03  0.14159909582E+03  0.00000000000E+00 0.  1.
          2    1    1    2  501    0 -0.11637529372E+03 -0.29240750473E+03 -0.29771267881E+04  0.29937149614E+04  0.00000000000E+00 0. -1.
<scales pt_clust_3="69.64706" pt_clust_4="14000.00000" pt_clust_5="41.11827" pt_clust_6="366.63886"></scales>
<clustering>
<clus scale="   41.118">  2  5  1 -1</clus>
<clus scale="   69.647">  2  3  1 -1</clus>
<clus scale="  366.639">  2  6  1 -1</clus>
<clus scale="  366.639">  1  3  2 -1</clus>
</clustering>
</event>
<event>
 6    0  0.1622933E+002  0.1385682E+03  0.7546771E-02  0.1215269E+00
          2   -1    0    0  504    0 -0.00000000000E+00  0.00000000000E+00  0.19581981430E+04  0.19581981430E+04  0.00000000000E+00 0. -1.
         21   -1    0    0  505  502  0.00000000000E+00 -0.00000000000E+00 -0.24336142922E+02  0.24336142922E+02  0.00000000000E+00 0.  1.
         21    1    1    2  503  501 -0.69292237523E+01  0.64850220853E+02  0.76023007563E+03  0.76302249847E+03  0.00000000000E+00 0. -1.
         21    1    1    2  504  502 -0.57175118223E+01 -0.45346138826E+02  0.15361125358E+03  0.16026658876E+03  0.00000000000E+00 0.  1.
         21    1    1    2  505  503  0.76047933780E+02 -0.64900986570E+02  0.12149337234E+03  0.15734060446E+03  0.00000000000E+00 0.  1.
          2    1    1    2  501    0 -0.63401198205E+02  0.45396904543E+02  0.89852729854E+03  0.90190459423E+03  0.00000000000E+00 0. -1.
<scales pt_clust_3="52.71762" pt_clust_4="45.70517" pt_clust_5="125.68116" pt_clust_6="52.71762"></scales>
<clustering>
<clus scale="   45.705">  2  4  1 -1</clus>
<clus scale="   52.718">  3  6 -1 -1</clus>
<clus scale="  125.681">  2  5  1 -1</clus>
<clus scale="   45.705">  2  3  1 -1</clus>
</clustering>
</event>
<event>
 6    0  0.1622933E+002  0.1293994E+03  0.7546771E-02  0.1228350E+00
         -2   -1    0    0    0  501 -0.00000000000E+00  0.00000000000E+00  0.50950437489E+03  0.50950437489E+03  0.00000000000E+00 0.  1.
         21   -1    0    0  505  502  0.00000000000E+00 -0.00000000000E+00 -0.16026349607E+03  0.16026349607E+03  0.00000000000E+00 0.  1.
         21    1    1    2  503  504 -0.65828365943E+01  0.91819656408E+02  0.71433513337E+02  0.11652008354E+03  0.00000000000E+00 0.  1.
         21    1    1    2  504  502 -0.38038651769E+02 -0.14472818227E+03 -0.51266610219E+02  0.15818170278E+03  0.00000000000E+00 0.  1.
         21    1    1    2  505  501  0.35603948686E+02 -0.20515326815E+02 -0.14533228738E+02  0.43585944225E+02  0.00000000000E+00 0.  1.
         -2    1    1    2    0  503  0.90175396771E+01  0.73423852678E+02  0.34360720444E+03  0.35148014041E+03  0.00000000000E+00 0.  1.
<scales pt_clust_3="129.39940" pt_clust_4="14000.00000" pt_clust_5="41.09160" pt_clust_6="73.50358"></scales>
<clustering>
<clus scale="   41.092">  2  5  1 -1</clus>
<clus scale="   73.504">  1  6  2 -1</clus>
<clus scale="  129.399">  1  3  2 -1</clus>
<clus scale="   41.092">  2  3  1 -1</clus>
</clustering>
</event>
<event>
 6    0  0.1622933E+002  0.7667452E+02  0.7546771E-02  0.1338763E+00
         21   -1    0    0  505  502  0.00000000000E+00  0.00000000000E+00  0.97308804060E+03  0.97308804060E+03  0.00000000000E+00 0. -1.
          2   -1    0    0  503    0 -0.00000000000E+00 -0.00000000000E+00 -0.15076069716E+03  0.15076069716E+03  0.00000000000E+00 0. -1.
         21    1    1    2  503  504  0.53019177777E+02  0.15175084568E+02 -0.32440667265E+01  0.55243464525E+02  0.00000000000E+00 0.  1.
         21    1    1    2  504  502  0.14522248499E+02 -0.46872605752E+02  0.23338102360E+02  0.54337867949E+02  0.00000000000E+00 0.  1.
         21    1    1    2  505  501  0.33300800705E+02 -0.20083971043E+02  0.87739319295E+03  0.87825458966E+03  0.00000000000E+00 0. -1.
          2    1    1    2  501    0 -0.10084222698E+03  0.51781492227E+02 -0.75159885150E+02  0.13601281563E+03  0.00000000000E+00 0. -1.
<scales pt_clust_3="76.67452" pt_clust_4="61.81583" pt_clust_5="38.88842" pt_clust_6="14000.00000"></scales>
<clustering>
<clus scale="   38.888">  1  5  2 -1</clus>
<clus scale="   61.816">  1  4  2 -1</clus>
<clus scale="   76.675">  2  3  1 -1</clus>
<clus scale="   38.888">  1  3  2 -1</clus>
</clustering>
</event>
<event>
 6    0  0.1622933E+002  0.9102165E+02  0.7546771E-02  0.1300396E+00
         -2   -1    0    0    0  501 -0.00000000000E+00  0.00000000000E+00  0.39118414602E+03  0.39118414602E+03  0.00000000000E+00 0. -1.
         21   -1    0    0  504  502  0.00000000000E+00 -0.00000000000E+00 -0.13812648492E+03  0.13812648492E+03  0.00000000000E+00 0.  1.
         21    1    1    2  503  502  0.76860348365E+02  0.72443397997E+02 -0.74588492151E+02  0.12930198075E+03  0.00000000000E+00 0.  1.
         21    1    1    2  504  505 -0.10089303528E+02 -0.65478762677E+02  0.51512667143E+02  0.83921494765E+02  0.00000000000E+00 0. -1.
         21    1    1    2  505  501 -0.50747794062E+01 -0.38956881775E+02  0.22845157540E+03  0.23180490575E+03  0.00000000000E+00 0.  1.
         -2    1    1    2    0  503 -0.61696265431E+02  0.31992246455E+02  0.47681910701E+02  0.84282249671E+02  0.00000000000E+00 0. -1.
<scales pt_clust_3="91.02165" pt_clust_4="14000.00000" pt_clust_5="39.28603" pt_clust_6="65.75959"></scales>
<clustering>
<clus scale="   39.286">  1  5  2 -1</clus>
<clus scale="   65.760">  1  6  2 -1</clus>
<clus scale="   91.022">  2  3  1 -1</clus>
<clus scale="   91.022">  2  3  1 -1</clus>
</clustering>
</event>
<event>
 6    0  0.1622933E+002  0.7623139E+02  0.7546771E-02  0.1340100E+00
          1   -1    0    0  504    0 -0.00000000000E+00  0.00000000000E+00  0.47384248247E+04  0.47384248247E+04  0.00000000000E+00 0. -1.
         21   -1    0    0  503  502  0.00000000000E+00 -0.00000000000E+00 -0.52639308425E+02  0.52639308425E+02  0.00000000000E+00 0.  1.
         21    1    1    2  503  505  0.11414320296E+02  0.34538328777E+02 -0.34976514622E+02  0.50463248386E+02  0.00000000000E+00 0.  1.
         21    1    1    2  504  502 -0.44340066212E+02 -0.10726968377E+01  0.31583208266E+03  0.31893117845E+03  0.00000000000E+00 0.  1.
         21    1    1    2  505  501  0.10769869374E+03 -0.35706268146E+02  0.39322739979E+03  0.40926975721E+03  0.00000000000E+00 0.  1.
          1    1    1    2  501    0 -0.74772947826E+02  0.22406362070E+01  0.40117025485E+04  0.40123999491E+04  0.00000000000E+00 0. -1.
<scales pt_clust_3="36.37558" pt_clust_4="42.77597" pt_clust_5="76.23139" pt_clust_6="14000.00000"></scales>
<clustering>
<clus scale="   36.376">  2  3  1 -1</clus>
<clus scale="   42.776">  2  4  1 -1</clus>
<clus scale="   76.231">  2  5  1 -1</clus>
<clus scale="   36.376">  2  3  1 -1</clus>
</clustering>
</event>
<event>
 6    0  0.1622933E+002  0.1545640E+03  0.7546771E-02  0.1194974E+00
          2   -1    0    0  504    0 -0.00000000000E+00  0.00000000000E+00  0.14484829691E+03  0.14484829691E+03  0.00000000000E+00 0.  1.
         21   -1    0    0  501  502  0.00000000000E+00 -0.00000000000E+00 -0.11538072158E+04  0.11538072158E+04  0.00000000000E+00 0. -1.
         21    1    1    2  503  502  0.15550739963E+01 -0.40275187863E+02 -0.81839613419E+03  0.81938802864E+03  0.00000000000E+00 0. -1.
         21    1    1    2  504  505 -0.38700895605E+02  0.29661401030E+02 -0.58837924425E+01  0.49113919058E+02  0.00000000000E+00 0.  1.
         21    1    1    2  505  503 -0.14068055349E+03  0.66296192510E+02 -0.18774021746E+03  0.24378800735E+03  0.00000000000E+00 0.  1.
          2    1    1    2  501    0  0.17782637510E+03 -0.55682405678E+02  0.30612252225E+01  0.18636555766E+03  0.00000000000E+00 0.  1.
<scales pt_clust_3="40.30520" pt_clust_4="46.71674" pt_clust_5="154.56398" pt_clust_6="14000.00000"></scales>
<clustering>
<clus scale="   40.305">  2  3  1 -1</clus>
<clus scale="   46.717">  1  4  2 -1</clus>
<clus scale="  154.564">  2  5  1 -1</clus>
<clus scale="   40.305">  2  3  1 -1</clus>
</clustering>
</event>
<event>
 6    0  0.1622933E+002  0.8382776E+02  0.7546771E-02  0.1318527E+00
          2   -1    0    0  504    0 -0.00000000000E+00  0.00000000000E+00  0.21483588619E+04  0.21483588619E+04  0.00000000000E+00 0. -1.
         21   -1    0    0  501  502  0.00000000000E+00 -0.00000000000E+00 -0.14275123118E+03  0.14275123118E+03  0.00000000000E+00 0.  1.
         21    1    1    2  503  502 -0.42416373112E+02  0.14082771931E+02 -0.13038829715E+03  0.13783534093E+03  0.00000000000E+00 0.  1.
         21    1    1    2  504  505  0.10469024981E+03 -0.45234410756E+02  0.57890220932E+03  0.59002878598E+03  0.00000000000E+00 0.  1.
         21    1    1    2  505  503  0.16191682836E+02  0.48698621412E+02  0.38619705815E+03  0.38959195839E+03  0.00000000000E+00 0.  1.
          2    1    1    2  501    0 -0.78465559534E+02 -0.17546982587E+02  0.11708966604E+04  0.11736540078E+04  0.00000000000E+00 0. -1.
<scales pt_clust_3="44.69310" pt_clust_4="83.82776" pt_clust_5="52.06198" pt_clust_6="14000.00000"></scales>
<clustering>
<clus scale="   44.693">  2  3  1 -1</clus>
<clus scale="   52.062">  2  5  1 -1</clus>
<clus scale="   83.828">  2  4  1 -1</clus>
<clus scale="   44.693">  2  3  1 -1</clus>
</clustering>
</event>
<event>
 6    0  0.1622933E+002  0.8025663E+02  0.7546771E-02  0.1328325E+00
         21   -1    0    0  504  502  0.00000000000E+00  0.00000000000E+00  0.96553206288E+02  0.96553206288E+02  0.00000000000E+00 0. -1.
          2   -1    0    0  503    0 -0.00000000000E+00 -0.00000000000E+00 -0.14376433516E+04  0.14376433516E+04  0.00000000000E+00 0. -1.
         21    1    1    2  503  505 -0.60766591426E+02  0.56220842905E+02 -0.12050066315E+04  0.12078469869E+04  0.00000000000E+00 0. -1.
         21    1    1    2  504  501 -0.25859547793E+02  0.57492811971E+02  0.23513239095E+02  0.67283074046E+02  0.00000000000E+00 0. -1.
         21    1    1    2  505  502  0.12913918782E+02 -0.77346852103E+02 -0.15852991649E+03  0.17686446576E+03  0.00000000000E+00 0.  1.
          2    1    1    2  501    0  0.73712220437E+02 -0.36366802773E+02 -0.10668363960E+01  0.82202031152E+02  0.00000000000E+00 0. -1.
<scales pt_clust_3="14000.00000" pt_clust_4="63.04078" pt_clust_5="80.25663" pt_clust_6="53.99891"></scales>
<clustering>
<clus scale="   63.041">  1  4  2 -1</clus>
<clus scale="   53.999">  1  6  2 -1</clus>
<clus scale="   80.257">  1  5  2 -1</clus>
<clus scale="   63.041">  1  3  2 -1</clus>
</clustering>
</event>
<event>
 6    0  0.1622933E+002  0.1477730E+03  0.7546771E-02  0.1203237E+00
         21   -1    0    0  503  502  0.00000000000E+00  0.00000000000E+00  0.21920504318E+03  0.21920504318E+03  0.00000000000E+00 0.  1.
          4   -1    0    0  504    0 -0.00000000000E+00 -0.00000000000E+00 -0.17788602154E+03  0.17788602154E+03  0.00000000000E+00 0.  1.
         21    1    1    2  503  505 -0.11934665908E+03 -0.18839705245E+02  0.97251847266E+02  0.15510151941E+03  0.00000000000E+00 0.  1.
         21    1    1    2  504  502 -0.21632079361E+02 -0.49203932367E+02 -0.42428382440E+02  0.68477306127E+02  0.00000000000E+00 0.  1.
         21    1    1    2  505  501  0.58135675651E+02 -0.43530558527E+01 -0.23890695048E+02  0.63003739480E+02  0.00000000000E+00 0. -1.
          4    1    1    2  501    0  0.82843062791E+02  0.72396693464E+02  0.10386251862E+02  0.11050849970E+03  0.00000000000E+00 0.  1.
<scales pt_clust_3="128.13145" pt_clust_4="53.74918" pt_clust_5="53.58718" pt_clust_6="53.58718"></scales>
<clustering>
<clus scale="   53.587">  5  6 -1 -1</clus>
<clus scale="   53.749">  2  4  1 -1</clus>
<clus scale="  128.131">  1  3  2 -1</clus>
<clus scale="  128.131">  1  3  2 -1</clus>
</clustering>
</event>
<event>
 6    0  0.1622933E+002  0.1329108E+03  0.7546771E-02  0.1223199E+00
         21   -1    0    0  501  502  0.00000000000E+00  0.00000000000E+00  0.15656468054E+02  0.15656468054E+02  0.00000000000E+00 0.  1.
          2   -1    0    0  503    0 -0.00000000000E+00 -0.00000000000E+00 -0.41732633891E+04  0.41732633891E+04  0.00000000000E+00 0.  1.
         21    1    1    2  503  505  0.74833226667E+01  0.10531753274E+03 -0.28352367832E+04  0.28372020371E+04  0.00000000000E+00 0.  1.
         21    1    1    2  504  502  0.80307456966E+02 -0.36037542105E+02 -0.46278407853E+03  0.47108077378E+03  0.00000000000E+00 0.  1.
         21    1    1    2  505  504  0.31786381067E+02  0.80981903639E+01 -0.34960185093E+03  0.35113730773E+03  0.00000000000E+00 0.  1.
          2    1    1    2  501    0 -0.11957716070E+03 -0.77378180998E+02 -0.50998420845E+03  0.52949973855E+03  0.00000000000E+00 0.  1.
<scales pt_clust_3="105.58306" pt_clust_4="31.87258" pt_clust_5="31.87258" pt_clust_6="122.22621"></scales>
<clustering>
<clus scale="   31.873">  4  5 -1 -1</clus>
<clus scale="  105.583">  2  3  1 -1</clus>
<clus scale="  122.226">  1  6  2 -1</clus>
<clus scale="  122.226">  1  3  2 -1</clus>
</clustering>
</event>
<event>
 6    0  0.1622933E+002  0.1293667E+03  0.7546771E-02  0.1228398E+00
          2   -1    0    0  505    0 -0.00000000000E+00  0.00000000000E+00  0.13424407714E+04  0.13424407714E+04  0.00000000000E+00 0. -1.
         21   -1    0    0  503  502  0.00000000000E+00 -0.00000000000E+00 -0.21778466439E+03  0.21778466439E+03  0.00000000000E+00 0. -1.
         21    1    1    2  503  501  0.53821906974E+02  0.79048931700E+02  0.89889453703E+02  0.13124650533E+03  0.00000000000E+00 0.  1.
         21    1    1    2  504  502  0.44600385844E+02  0.76482137859E+02 -0.16444973292E+03  0.18676837657E+03  0.00000000000E+00 0. -1.
         21    1    1    2  505  504 -0.13497205002E+03 -0.13444326336E+02  0.27733453688E+03  0.30872746807E+03  0.00000000000E+00 0. -1.
          2    1    1    2  501    0  0.36549757198E+02 -0.14208674322E+03  0.92188184940E+03  0.93348308587E+03  0.00000000000E+00 0. -1.
<scales pt_clust_3="14000.00000" pt_clust_4="88.53650" pt_clust_5="119.32227" pt_clust_6="129.36674"></scales>
<clustering>
<clus scale="   88.536">  2  4  1 -1</clus>
<clus scale="  119.322">  2  5  1 -1</clus>
<clus scale="  129.367">  1  6  2 -1</clus>
<clus scale="   88.536">  2  3  1 -1</clus>
</clustering>
</event>
<event>
 6    0  0.1622933E+002  0.1117510E+03  0.7546771E-02  0.1257361E+00
          3   -1    0    0  503    0 -0.00000000000E+00  0.00000000000E+00  0.34566049901E+03  0.34566049901E+03  0.00000000000E+00 0.  1.
         21   -1    0    0  505  502  0.00000000000E+00 -0.00000000000E+00 -0.85848080054E+03  0.85848080054E+03  0.00000000000E+00 0.  1.
         21    1    1    2  503  504  0.71865614284E+02  0.13176826909E+03  0.18178715187E+03  0.23574162094E+03  0.00000000000E+00 0. -1.
         21    1    1    2  504  502 -0.99114324119E+02  0.58630631026E+02 -0.73335195294E+03  0.74233839118E+03  0.00000000000E+00 0.  1.
         21    1    1    2  505  501  0.33861730915E+02 -0.10003360500E+03 -0.32830221043E+02  0.11059458560E+03  0.00000000000E+00 0.  1.
          3    1    1    2  501    0 -0.66130210807E+01 -0.90365295116E+02  0.71574720572E+02  0.11546670184E+03  0.00000000000E+00 0.  1.
<scales pt_clust_3="87.46878" pt_clust_4="14000.00000" pt_clust_5="111.75101" pt_clust_6="90.60695"></scales>
<clustering>
<clus scale="   90.607">  1  6  2 -1</clus>
<clus scale="   87.469">  1  3  2 -1</clus>
<clus scale="  111.751">  1  5  2 -1</clus>
<clus scale="  111.751">  2  3  1 -1</clus>
</clustering>
</event>
<event>
 6    0  0.1622933E+002  0.1458836E+03  0.7546771E-02  0.1205624E+00
         21   -1    0    0  505  502  0.00000000000E+00  0.00000000000E+00  0.13064497339E+03  0.13064497339E+03  0.00000000000E+00 0.  1.
          2   -1    0    0  504    0 -0.00000000000E+00 -0.00000000000E+00 -0.35049796563E+03  0.35049796563E+03  0.00000000000E+00 0.  1.
         21    1    1    2  503  502  0.12028455917E+03 -0.51003832350E+02 -0.97715216957E+02  0.16315032857E+03  0.00000000000E+00 0.  1.
         21    1    1    2  504  503 -0.19801543676E+02 -0.26376765288E+02 -0.36033268356E+02  0.48849066597E+02  0.00000000000E+00 0.  1.
         21    1    1    2  505  501  0.23260390556E+02 -0.42122293070E+02  0.34364309099E+02  0.59129003731E+02  0.00000000000E+00 0.  1.
          2    1    1    2  501    0 -0.12374340605E+03  0.11950289071E+03 -0.12046881603E+03  0.21001454012E+03  0.00000000000E+00 0.  1.
<scales pt_clust_3="14000.00000" pt_clust_4="32.98234" pt_clust_5="48.67629" pt_clust_6="145.88362"></scales>
<clustering>
<clus scale="   32.982">  2  4  1 -1</clus>
<clus scale="   48.676">  1  5  2 -1</clus>
<clus scale="  145.884">  1  6  2 -1</clus>
<clus scale="   48.676">  1  3  2 -1</clus>
</clustering>
</event>
<event>
 6    0  0.1622933E+002  0.8307389E+02  0.7546771E-02  0.1320548E+00
         -3   -1    0    0    0  501 -0.00000000000E+00  0.00000000000E+00  0.10232799276E+03  0.10232799276E+03  0.00000000000E+00 0.  1.
         21   -1    0    0  504  502  0.00000000000E+00 -0.00000000000E+00 -0.45284432156E+03  0.45284432156E+03  0.00000000000E+00 0.  1.
         21    1    1    2  503  505  0.96367436595E+02  0.30693300792E+02 -0.53214582424E+01  0.10127724062E+03  0.00000000000E+00 0.  1.
         21    1    1    2  504  503 -0.36974362591E+02 -0.75621088742E+02 -0.32827314652E+03  0.33889365777E+03  0.00000000000E+00 0.  1.
         21    1    1    2  505  501  0.66299174658E+01  0.39191801226E+02  0.13637893199E+02  0.42023150999E+02  0.00000000000E+00 0.  1.
         -3    1    1    2    0  502 -0.66022991469E+02  0.57359867239E+01 -0.30559617235E+02  0.72978264927E+02  0.00000000000E+00 0.  1.
<scales pt_clust_3="83.07389" pt_clust_4="14000.00000" pt_clust_5="39.74862" pt_clust_6="66.32314"></scales>
<clustering>
<clus scale="   39.749">  1  5  2 -1</clus>
<clus scale="   66.323">  1  6  2 -1</clus>
<clus scale="   83.074">  1  3  2 -1</clus>
<clus scale="   83.074">  2  3  1 -1</clus>
</clustering>
</event>
<event>
 6    0  0.1622933E+002  0.7176031E+02  0.7546771E-02  0.1354207E+00
          2   -1    0    0  505    0 -0.00000000000E+00  0.00000000000E+00  0.24487538526E+04  0.24487538526E+04  0.00000000000E+00 0. -1.
         21   -1    0    0  503  502  0.00000000000E+00 -0.00000000000E+00 -0.28323995725E+02  0.28323995725E+02  0.00000000000E+00 0. -1.
         21    1    1    2  503  504  0.64068438048E+02 -0.33235937788E+02  0.38867544700E+02  0.81976083985E+02  0.00000000000E+00 0. -1.
         21    1    1    2  504  501  0.37617366017E+02 -0.43164500896E+02  0.24910309952E+03  0.25559850265E+03  0.00000000000E+00 0.  1.
         21    1    1    2  505  502 -0.50405432820E+02  0.51373298295E+02  0.42206184685E+03  0.42815432498E+03  0.00000000000E+00 0. -1.
          2    1    1    2  501    0 -0.51280371245E+02  0.25027140389E+02  0.17103973658E+04  0.17113489367E+04  0.00000000000E+00 0. -1.
<scales pt_clust_3="14000.00000" pt_clust_4="40.00911" pt_clust_5="71.76031" pt_clust_6="57.06167"></scales>
<clustering>
<clus scale="   57.062">  1  6  2 -1</clus>
<clus scale="   40.009">  1  4  2 -1</clus>
<clus scale="   71.760">  1  5  2 -1</clus>
<clus scale="   71.760">  2  3  1 -1</clus>
</clustering>
</event>
<event>
 6    0  0.1622933E+002  0.1723870E+03  0.7546771E-02  0.1175381E+00
          2   -1    0    0  505    0 -0.00000000000E+00  0.00000000000E+00  0.18735766848E+04  0.18735766848E+04  0.00000000000E+00 0. -1.
         21   -1    0    0  501  502  0.00000000000E+00 -0.00000000000E+00 -0.51760590474E+02  0.51760590474E+02  0.00000000000E+00 0. -1.
         21    1    1    2  503  502 -0.13988102648E+01  0.16920899804E+03  0.40798988031E+03  0.44168923931E+03  0.00000000000E+00 0. -1.
         21    1    1    2  504  503  0.82839021021E+02 -0.48587803971E+02  0.40642057985E+03  0.41761317726E+03  0.00000000000E+00 0. -1.
         21    1    1    2  505  504 -0.24097372652E+02  0.48246930184E+02  0.75532613185E+03  0.75724897827E+03  0.00000000000E+00 0. -1.
          2    1    1    2  501    0 -0.57342838104E+02 -0.16886812425E+03  0.25207950236E+03  0.30878588047E+03  0.00000000000E+00 0. -1.
<scales pt_clust_3="14000.00000" pt_clust_4="80.10872" pt_clust_5="53.93004" pt_clust_6="172.38698"></scales>
<clustering>
<clus scale="   53.930">  1  5  2 -1</clus>
<clus scale="   80.109">  1  4  2 -1</clus>
<clus scale="  172.387">  2  6  1 -1</clus>
<clus scale="  172.387">  2  3  1 -1</clus>
</clustering>
</event>
<event>
 6    0  0.1622933E+002  0.1045504E+03  0.7546771E-02  0.1271008E+00
          2   -1    0    0  505    0 -0.00000000000E+00  0.00000000000E+00  0.99173526547E+03  0.99173526547E+03  0.00000000000E+00 0. -1.
         21   -1    0    0  504  502  0.00000000000E+00 -0.00000000000E+00 -0.10349201523E+03  0.10349201523E+03  0.00000000000E+00 0.  1.
         21    1    1    2  503  502 -0.77607686364E+02 -0.23075628524E+02  0.13274438040E+03  0.15548796784E+03  0.00000000000E+00 0.  1.
         21    1    1    2  504  501 -0.13815544978E+02 -0.33658033670E+02 -0.77409793005E+02  0.85533669199E+02  0.00000000000E+00 0.  1.
         21    1    1    2  505  503 -0.43674443201E+02  0.12980391695E+02  0.25985061697E+03  0.26381487960E+03  0.00000000000E+00 0. -1.
          2    1    1    2  501    0  0.13509767454E+03  0.43753270499E+02  0.57305804588E+03  0.59039076406E+03  0.00000000000E+00 0. -1.
<scales pt_clust_3="14000.00000" pt_clust_4="36.38314" pt_clust_5="46.00702" pt_clust_6="104.55040"></scales>
<clustering>
<clus scale="   36.383">  2  4  1 -1</clus>
<clus scale="   46.007">  1  5  2 -1</clus>
<clus scale="  104.550">  1  6  2 -1</clus>
<clus scale="   36.383">  2  3  1 -1</clus>
</clustering>
</event>
<event>
 6    0  0.1622933E+002  0.1073166E+03  0.7546771E-02  0.1265621E+00
         21   -1    0    0  501  502  0.00000000000E+00  0.00000000000E+00  0.22290806348E+03  0.22290806348E+03  0.00000000000E+00 0.  1.
          1   -1    0    0  503    0 -0.00000000000E+00 -0.00000000000E+00 -0.74396918983E+03  0.74396918983E+03  0.00000000000E+00 0.  1.
         21    1    1    2  503  504  0.27339528807E+02 -0.14946827997E+03 -0.47740586452E+03  0.50100356888E+03  0.00000000000E+00 0.  1.
         21    1    1    2  504  505 -0.14437372893E+02  0.78440221030E+02 -0.67802002553E+02  0.10468246062E+03  0.00000000000E+00 0.  1.
         21    1    1    2  505  502  0.95482650075E+01  0.32374209706E+02  0.18817655422E+03  0.19117969133E+03  0.00000000000E+00 0.  1.
          1    1    1    2  501    0 -0.22450420921E+02  0.38653849235E+02 -0.16402981350E+03  0.17001153248E+03  0.00000000000E+00 0.  1.
<scales pt_clust_3="14000.00000" pt_clust_4="107.31662" pt_clust_5="33.75291" pt_clust_6="46.84064"></scales>
<clustering>
<clus scale="   33.753">  1  5  2 -1</clus>
<clus scale="   46.841">  2  6  1 -1</clus>
<clus scale="  107.317">  1  4  2 -1</clus>
<clus scale="   33.753">  1  3  2 -1</clus>
</clustering>
</event>
<event>
 6    0  0.1622933E+002  0.1122617E+03  0.7546771E-02  0.1256438E+00
         21   -1    0    0  501  502  0.00000000000E+00  0.00000000000E+00  0.71296251052E+03  0.71296251052E+03  0.00000000000E+00 0. -1.
          1   -1    0    0  505    0 -0.00000000000E+00 -0.00000000000E+00 -0.85513019588E+03  0.85513019588E+03  0.00000000000E+00 0. -1.
         21    1    1    2  503  504  0.54861061588E+02  0.20641208670E+02 -0.16710465298E+03  0.17708687309E+03  0.00000000000E+00 0.  1.
         21    1    1    2  504  502 -0.10144906371E+03  0.48532957231E+02  0.68465279582E+03  0.69382765243E+03  0.00000000000E+00 0. -1.
         21    1    1    2  505  503  0.10410532327E+02  0.52399912378E+02 -0.46023381294E+02  0.70514407225E+02  0.00000000000E+00 0. -1.
          1    1    1    2  501    0  0.36177469797E+02 -0.12157407828E+03 -0.61369244690E+03  0.62666377365E+03  0.00000000000E+00 0. -1.
<scales pt_clust_3="65.44301" pt_clust_4="14000.00000" pt_clust_5="53.42406" pt_clust_6="112.26172"></scales>
<clustering>
<clus scale="   53.424">  2  5  1 -1</clus>
<clus scale="   65.443">  2  3  1 -1</clus>
<clus scale="  112.262">  2  6  1 -1</clus>
<clus scale="  112.262">  1  3  2 -1</clus>
</clustering>
</event>
<event>
 6    0  0.1622933E+002  0.7815021E+02  0.7546771E-02  0.1334384E+00
          2   -1    0    0  503    0 -0.00000000000E+00  0.00000000000E+00  0.39522134764E+03  0.39522134764E+03  0.00000000000E+00 0. -1.
         21   -1    0    0  501  502  0.00000000000E+00 -0.00000000000E+00 -0.18435892020E+03  0.18435892020E+03  0.00000000000E+00 0. -1.
         21    1    1    2  503  505  0.42721573807E+02  0.71195588981E+01  0.58388038571E+02  0.72697895676E+02  0.00000000000E+00 0. -1.
         21    1    1    2  504  502  0.20912061169E+01 -0.80094838724E+02 -0.14508755350E+03  0.16574062421E+03  0.00000000000E+00 0. -1.
         21    1    1    2  505  504  0.18663200943E+02  0.65747836392E+02  0.47961102970E+02  0.83494673230E+02  0.00000000000E+00 0. -1.
          2    1    1    2  501    0 -0.63475980867E+02  0.72274434340E+01  0.24960083940E+03  0.25764707472E+03  0.00000000000E+00 0. -1.
<scales pt_clust_3="43.31075" pt_clust_4="78.15021" pt_clust_5="14000.00000" pt_clust_6="33.14176"></scales>
<clustering>
<clus scale="   43.311">  1  3  2 -1</clus>
<clus scale="   33.142">  1  6  2 -1</clus>
<clus scale="   78.150">  2  4  1 -1</clus>
<clus scale="   78.150">  2  3  1 -1</clus>
</clustering>
</event>
<event>
 6    0  0.1622933E+002  0.9291087E+02  0.7546771E-02  0.1295952E+00
          2   -1    0    0  504    0 -0.00000000000E+00  0.00000000000E+00  0.10849826339E+04  0.10849826339E+04  0.00000000000E+00 0. -1.
         21   -1    0    0  501  502  0.00000000000E+00 -0.00000000000E+00 -0.11612332016E+03  0.11612332016E+03  0.00000000000E+00 0. -1.
         21    1    1    2  503  505  0.62184969541E+02  0.31428274611E+02  0.44778906512E+02  0.82824255808E+02  0.00000000000E+00 0. -1.
         21    1    1    2  504  503  0.19401071331E+02  0.32959147854E+02  0.93091456981E+03  0.93169986759E+03  0.00000000000E+00 0. -1.
         21    1    1    2  505  502  0.39754529344E+02 -0.33318246639E+02 -0.28930378136E+02  0.59392717917E+02  0.00000000000E+00 0. -1.
          2    1    1    2  501    0 -0.12134057022E+03 -0.31069175825E+02  0.22096215593E+02  0.12718911278E+03  0.00000000000E+00 0. -1.
<scales pt_clust_3="92.91087" pt_clust_4="38.24535" pt_clust_5="51.38195" pt_clust_6="14000.00000"></scales>
<clustering>
<clus scale="   38.245">  1  4  2 -1</clus>
<clus scale="   51.382">  2  5  1 -1</clus>
<clus scale="   92.911">  1  3  2 -1</clus>
<clus scale="   51.382">  2  3  1 -1</clus>
</clustering>
</event>
<event>
 6    0  0.1622933E+002  0.1048354E+03  0.7546771E-02  0.1270444E+00
          2   -1    0    0  505    0 -0.00000000000E+00  0.00000000000E+00  0.11874508601E+04  0.11874508601E+04  0.00000000000E+00 0.  1.
         21   -1    0    0  503  502  0.00000000000E+00 -0.00000000000E+00 -0.19020507452E+03  0.19020507452E+03  0.00000000000E+00 0. -1.
         21    1    1    2  503  504  0.10651809407E+03 -0.48950384164E+01 -0.15144466755E+03  0.18521758311E+03  0.00000000000E+00 0. -1.
         21    1    1    2  504  501 -0.13653316933E+02 -0.36298593667E+02  0.72459404724E+02  0.82184951776E+02  0.00000000000E+00 0. -1.
         21    1    1    2  505  502 -0.81671387764E+02  0.69432885552E+02  0.15463678737E+03  0.18815864897E+03  0.00000000000E+00 0. -1.
          2    1    1    2  501    0 -0.11193389373E+02 -0.28239253469E+02  0.92159426107E+03  0.92209475079E+03  0.00000000000E+00 0.  1.
<scales pt_clust_3="104.83544" pt_clust_4="47.62349" pt_clust_5="14000.00000" pt_clust_6="30.37676"></scales>
<clustering>
<clus scale="   30.377">  1  6  2 -1</clus>
<clus scale="   47.623">  1  4  2 -1</clus>
<clus scale="  104.835">  2  3  1 -1</clus>
<clus scale="  104.835">  2  3  1 -1</clus>
</clustering>
</event>
<event>
 6    0  0.1622933E+002  0.1190240E+03  0.7546771E-02  0.1244716E+00
         21   -1    0    0  505  502  0.00000000000E+00  0.00000000000E+00  0.64717151551E+03  0.64717151551E+03  0.00000000000E+00 0. -1.
          2   -1    0    0  504    0 -0.00000000000E+00 -0.00000000000E+00 -0.81299409044E+03  0.81299409044E+03  0.00000000000E+00 0. -1.
         21    1    1    2  503  502 -0.34528867824E+02  0.99297276452E+01  0.60801507062E+03  0.60907566714E+03  0.00000000000E+00 0. -1.
         21    1    1    2  504  503  0.31419790997E+02 -0.59815159838E+00 -0.19588488018E+03  0.19838963515E+03  0.00000000000E+00 0. -1.
         21    1    1    2  505  501 -0.86080753380E+01  0.10729801533E+03 -0.63316272154E+02  0.12488359930E+03  0.00000000000E+00 0.  1.
          2    1    1    2  501    0  0.11717152164E+02 -0.11662959138E+03 -0.51463649322E+03  0.52781670435E+03  0.00000000000E+00 0. -1.
<scales pt_clust_3="35.90215" pt_clust_4="31.42548" pt_clust_5="14000.00000" pt_clust_6="119.02400"></scales>
<clustering>
<clus scale="   31.425">  2  4  1 -1</clus>
<clus scale="   35.902">  1  3  2 -1</clus>
<clus scale="  119.024">  2  6  1 -1</clus>
<clus scale="   35.902">  1  3  2 -1</clus>
</clustering>
</event>
<event>
 6    0  0.1622933E+002  0.1308659E+03  0.7546771E-02  0.1226177E+00
          1   -1    0    0  505    0 -0.00000000000E+00  0.00000000000E+00  0.27866029367E+04  0.27866029367E+04  0.00000000000E+00 0. -1.
         21   -1    0    0  504  502  0.00000000000E+00 -0.00000000000E+00 -0.30624808014E+02  0.30624808014E+02  0.00000000000E+00 0.  1.
         21    1    1    2  503  502 -0.37226380359E+02  0.12709517812E+02 -0.88995735621E+01  0.40330356399E+02  0.00000000000E+00 0.  1.
         21    1    1    2  504  501 -0.51611232748E+02 -0.45798837342E+02  0.57144054111E+03  0.57559147394E+03  0.00000000000E+00 0. -1.
         21    1    1    2  505  503  0.11216129532E+03  0.74190781523E+02  0.13934242932E+04  0.13998984567E+04  0.00000000000E+00 0. -1.
          1    1    1    2  501    0 -0.23323682208E+02 -0.41101461993E+02  0.80001286795E+03  0.80140745768E+03  0.00000000000E+00 0. -1.
<scales pt_clust_3="39.33618" pt_clust_4="37.69514" pt_clust_5="122.68324" pt_clust_6="37.69514"></scales>
<clustering>
<clus scale="   37.695">  4  6 -1 -1</clus>
<clus scale="   39.336">  2  3  1 -1</clus>
<clus scale="  122.683">  2  5  1 -1</clus>
<clus scale="   39.336">  2  3  1 -1</clus>
</clustering>
</event>
<event>
 6    0  0.1622933E+002  0.1209133E+03  0.7546771E-02  0.1241598E+00
         21   -1    0    0  503  502  0.00000000000E+00  0.00000000000E+00  0.11388559312E+04  0.11388559312E+04  0.00000000000E+00 0.  1.
          1   -1    0    0  504    0 -0.00000000000E+00 -0.00000000000E+00 -0.67797740647E+03  0.67797740647E+03  0.00000000000E+00 0.  1.
         21    1    1    2  503  501 -0.80164557152E+02  0.49097041191E+02  0.11034412806E+04  0.11074382761E+04  0.00000000000E+00 0.  1.
         21    1    1    2  504  505  0.15279508116E+02 -0.38123241575E+02 -0.16513193564E+03  0.17016286635E+03  0.00000000000E+00 0. -1.
         21    1    1    2  505  502 -0.30314250415E+02  0.22088131254E+01  0.17489121208E+02  0.35067107014E+02  0.00000000000E+00 0. -1.
          1    1    1    2  501    0  0.95199299452E+02 -0.13182612741E+02 -0.49491994135E+03  0.50416508828E+03  0.00000000000E+00 0.  1.
<scales pt_clust_3="120.91332" pt_clust_4="41.04113" pt_clust_5="30.39462" pt_clust_6="14000.00000"></scales>
<clustering>
<clus scale="   30.395">  1  5  2 -1</clus>
<clus scale="   41.041">  2  4  1 -1</clus>
<clus scale="  120.913">  1  3  2 -1</clus>
<clus scale="   30.395">  1  3  2 -1</clus>
</clustering>
</event>
<event>
 6    0  0.1622933E+002  0.1293847E+03  0.7546771E-02  0.1228372E+00
          2   -1    0    0  503    0 -0.00000000000E+00  0.00000000000E+00  0.18634412615E+04  0.18634412615E+04  0.00000000000E+00 0. -1.
         21   -1    0    0  505  502  0.00000000000E+00 -0.00000000000E+00 -0.76246307110E+02  0.76246307110E+02  0.00000000000E+00 0.  1.
         21    1    1    2  503  502  0.74105637516E+01 -0.30876854301E+02  0.13703469414E+03  0.14066557498E+03  0.00000000000E+00 0. -1.
         21    1    1    2  504  501  0.83251345987E+02  0.34287627732E+02  0.25234778097E+03  0.26792877894E+03  0.00000000000E+00 0. -1.
         21    1    1    2  505  504  0.36440907789E+02  0.74980538199E+02 -0.35075193112E+02  0.90444955862E+02  0.00000000000E+00 0.  1.
          2    1    1    2  501    0 -0.12710281753E+03 -0.78391311631E+02  0.14328876724E+04  0.14406482588E+04  0.00000000000E+00 0. -1.
<scales pt_clust_3="31.75369" pt_clust_4="129.38469" pt_clust_5="82.97361" pt_clust_6="14000.00000"></scales>
<clustering>
<clus scale="   31.754">  1  3  2 -1</clus>
<clus scale="   82.974">  2  5  1 -1</clus>
<clus scale="  129.385">  2  4  1 -1</clus>
<clus scale="   82.974">  2  3  1 -1</clus>
</clustering>
</event>
<event>
 6    0  0.1622933E+002  0.1367851E+03  0.7546771E-02  0.1217721E+00
         21   -1    0    0  504  502  0.00000000000E+00  0.00000000000E+00  0.13592595913E+04  0.13592595913E+04  0.00000000000E+00 0. -1.
          2   -1    0    0  505    0 -0.00000000000E+00 -0.00000000000E+00 -0.17199281642E+04  0.17199281642E+04  0.00000000000E+00 0. -1.
         21    1    1    2  503  501 -0.30656084928E+02  0.35505172728E+02 -0.32459126913E+03  0.32796326750E+03  0.00000000000E+00 0. -1.
         21    1    1    2  504  503  0.12442698263E+03 -0.15703139726E+02  0.13499101193E+04  0.13557234204E+04  0.00000000000E+00 0. -1.
         21    1    1    2  505  502  0.22151380907E+02 -0.38580566639E+02 -0.32382445460E+03  0.32686606002E+03  0.00000000000E+00 0. -1.
          2    1    1    2  501    0 -0.11592227861E+03  0.18778533637E+02 -0.10621629684E+04  0.10686350076E+04  0.00000000000E+00 0. -1.
<scales pt_clust_3="34.42903" pt_clust_4="125.46986" pt_clust_5="44.48757" pt_clust_6="34.42903"></scales>
<clustering>
<clus scale="   34.429">  3  6 -1 -1</clus>
<clus scale="   44.488">  2  5  1 -1</clus>
<clus scale="  125.470">  1  4  2 -1</clus>
<clus scale="  125.470">  1  3  2 -1</clus>
</clustering>
</event>
<event>
 6    0  0.1622933E+002  0.9392695E+02  0.7546771E-02  0.1293611E+00
         -4   -1    0    0    0  501 -0.00000000000E+00  0.00000000000E+00  0.44319162648E+03  0.44319162648E+03  0.00000000000E+00 0.  1.
         21   -1    0    0  503  502  0.00000000000E+00 -0.00000000000E+00 -0.58068467384E+03  0.58068467384E+03  0.00000000000E+00 0. -1.
         21    1    1    2  503  505 -0.40901168615E+02  0.10541066933E+03  0.55294904086E+01  0.11320287128E+03  0.00000000000E+00 0. -1.
         21    1    1    2  504  502  0.27456855369E+02 -0.19312094435E+02 -0.51009008775E+03  0.51119344041E+03  0.00000000000E+00 0. -1.
         21    1    1    2  505  501 -0.28907125723E+02  0.86473630173E+01  0.17605652573E+02  0.34933620014E+02  0.00000000000E+00 0. -1.
         -4    1    1    2    0  504  0.42351438969E+02 -0.94745937908E+02  0.34946189741E+03  0.36454636862E+03  0.00000000000E+00 0.  1.
<scales pt_clust_3="93.92695" pt_clust_4="33.53051" pt_clust_5="30.17282" pt_clust_6="14000.00000"></scales>
<clustering>
<clus scale="   30.173">  1  5  2 -1</clus>
<clus scale="   33.531">  2  4  1 -1</clus>
<clus scale="   93.927">  2  3  1 -1</clus>
<clus scale="   33.531">  2  3  1 -1</clus>
</clustering>
</event>
<event>
 6    0  0.1622933E+002  0.1188016E+03  0.7546771E-02  0.1245087E+00
          4   -1    0    0  503    0 -0.00000000000E+00  0.00000000000E+00  0.36456037024E+04  0.36456037024E+04  0.00000000000E+00 0. -1.
         21   -1    0    0  504  502  0.00000000000E+00 -0.00000000000E+00 -0.43510080177E+02  0.43510080177E+02  0.00000000000E+00 0. -1.
         21    1    1    2  503  505  0.12137878627E+03  0.90566475721E+02  0.19163812722E+04  0.19223559184E+04  0.00000000000E+00 0. -1.
         21    1    1    2  504  501 -0.47938763302E+02 -0.22768103158E+02  0.12609982367E+04  0.12621145211E+04  0.00000000000E+00 0. -1.
         21    1    1    2  505  502 -0.33131083954E+02 -0.60133291535E+02 -0.87767201310E+01  0.69214971581E+02  0.00000000000E+00 0. -1.
          4    1    1    2  501    0 -0.40308939015E+02 -0.76650810287E+01  0.43349083342E+03  0.43542837148E+03  0.00000000000E+00 0. -1.
<scales pt_clust_3="111.66468" pt_clust_4="35.66069" pt_clust_5="68.65626" pt_clust_6="35.66069"></scales>
<clustering>
<clus scale="   35.661">  4  6 -1 -1</clus>
<clus scale="   68.656">  2  5  1 -1</clus>
<clus scale="  111.665">  2  3  1 -1</clus>
<clus scale="   68.656">  2  3  1 -1</clus>
</clustering>
</event>
<event>
 6    0  0.1622933E+002  0.8834318E+02  0.7546771E-02  0.1306914E+00
         21   -1    0    0  505  502  0.00000000000E+00  0.00000000000E+00  0.66183499092E+02  0.66183499092E+02  0.00000000000E+00 0. -1.
          2   -1    0    0  503    0 -0.00000000000E+00 -0.00000000000E+00 -0.85065379929E+03  0.85065379929E+03  0.00000000000E+00 0. -1.
         21    1    1    2  503  504  0.63301281441E+02 -0.57615435342E+02 -0.33608518105E+03  0.34681383990E+03  0.00000000000E+00 0. -1.
         21    1    1    2  504  502  0.35482253206E+02 -0.79879027326E+02 -0.62868081140E+01  0.87630892129E+02  0.00000000000E+00 0. -1.
         21    1    1    2  505  501 -0.65067648354E+02  0.69453346425E+02 -0.12954318777E+03  0.16074515137E+03  0.00000000000E+00 0. -1.
          2    1    1    2  501    0 -0.33715886293E+02  0.68041116243E+02 -0.31255512326E+03  0.32164741499E+03  0.00000000000E+00 0. -1.
<scales pt_clust_3="44.03376" pt_clust_4="14000.00000" pt_clust_5="88.34318" pt_clust_6="75.93652"></scales>
<clustering>
<clus scale="   75.937">  2  6  1 -1</clus>
<clus scale="   44.034">  2  3  1 -1</clus>
<clus scale="   88.343">  2  5  1 -1</clus>
<clus scale="   88.343">  1  3  2 -1</clus>
</clustering>
</event>
<event>
 6    0  0.1622933E+002  0.1215301E+03  0.7546771E-02  0.1240594E+00
         21   -1    0    0  503  502  0.00000000000E+00  0.00000000000E+00  0.12820683877E+03  0.12820683877E+03  0.00000000000E+00 0.  1.
          2   -1    0    0  505    0 -0.00000000000E+00 -0.00000000000E+00 -0.34325996637E+04  0.34325996637E+04  0.00000000000E+00 0.  1.
         21    1    1    2  503  501 -0.24412476502E+02 -0.56700019565E+02 -0.55694582778E+03  0.56035659745E+03  0.00000000000E+00 0.  1.
         21    1    1    2  504  502 -0.40342682111E+02  0.11770362484E+03  0.93346471158E+02  0.15554818860E+03  0.00000000000E+00 0.  1.
         21    1    1    2  505  504  0.76881775098E+02 -0.16186476758E+02 -0.86446565611E+03  0.86802861702E+03  0.00000000000E+00 0.  1.
          2    1    1    2  501    0 -0.12126616484E+02 -0.44817128515E+02 -0.19763278122E+04  0.19768730994E+04  0.00000000000E+00 0.  1.
<scales pt_clust_3="79.40650" pt_clust_4="14000.00000" pt_clust_5="121.53012" pt_clust_6="46.42876"></scales>
<clustering>
<clus scale="   46.429">  2  6  1 -1</clus>
<clus scale="   79.407">  2  3  1 -1</clus>
<clus scale="  121.530">  2  5  1 -1</clus>
<clus scale="  121.530">  1  3  2 -1</clus>
</clustering>
</event>
<event>
 6    0  0.1622933E+002  0.1270760E+03  0.7546771E-02  0.1231860E+00
         -4   -1    0    0    0  501 -0.00000000000E+00  0.00000000000E+00  0.72909796287E+03  0.72909796287E+03  0.00000000000E+00 0.  1.
         21   -1    0    0  504  502  0.00000000000E+00 -0.00000000000E+00 -0.81472827639E+02  0.81472827639E+02  0.00000000000E+00 0.  1.
         21    1    1    2  503  505  0.58802353515E+02  0.14790946040E+03  0.25026814391E+03  0.29659580090E+03  0.00000000000E+00 0.  1.
         21    1    1    2  504  503  0.47808287111E+02 -0.58129729463E+02 -0.13136861645E+02  0.76402060822E+02  0.00000000000E+00 0. -1.
         21    1    1    2  505  501 -0.24156117106E+02 -0.21165837165E+02  0.18618100450E+03  0.18893087915E+03  0.00000000000E+00 0.  1.
         -4    1    1    2    0  502 -0.82454523520E+02 -0.68613893767E+02  0.22431284846E+03  0.24864204964E+03  0.00000000000E+00 0.  1.
<scales pt_clust_3="14000.00000" pt_clust_4="75.34612" pt_clust_5="32.11714" pt_clust_6="127.07597"></scales>
<clustering>
<clus scale="   32.117">  1  5  2 -1</clus>
<clus scale="   75.346">  2  4  1 -1</clus>
<clus scale="  127.076">  1  6  2 -1</clus>
<clus scale="   75.346">  2  3  1 -1</clus>
</clustering>
</event>
<event>
 6    0  0.1622933E+002  0.1176679E+03  0.7546771E-02  0.1246995E+00
          1   -1    0    0  505    0 -0.00000000000E+00  0.00000000000E+00  0.44570364078E+03  0.44570364078E+03  0.00000000000E+00 0. -1.
         21   -1    0    0  501  502  0.00000000000E+00 -0.00000000000E+00 -0.31793659048E+03  0.31793659048E+03  0.00000000000E+00 0.  1.
         21    1    1    2  503  502 -0.56882103987E+01 -0.11715696891E+03 -0.27938145209E+03  0.30300512681E+03  0.00000000000E+00 0.  1.
         21    1    1    2  504  503  0.30577373048E+02  0.14735434343E+02  0.34052991306E+02  0.48080297260E+02  0.00000000000E+00 0. -1.
         21    1    1    2  505  504  0.21757642205E+02 -0.25490397441E+02  0.12655713186E+03  0.13091929949E+03  0.00000000000E+00 0. -1.
          1    1    1    2  501    0 -0.46646804854E+02  0.12791193201E+03  0.24653837923E+03  0.28163550768E+03  0.00000000000E+00 0. -1.
<scales pt_clust_3="117.66793" pt_clust_4="35.29908" pt_clust_5="33.51351" pt_clust_6="14000.00000"></scales>
<clustering>
<clus scale="   33.514">  1  5  2 -1</clus>
<clus scale="   35.299">  1  4  2 -1</clus>
<clus scale="  117.668">  2  3  1 -1</clus>
<clus scale="  117.668">  2  3  1 -1</clus>
</clustering>
</event>
<event>
 6    0  0.1622933E+002  0.8259737E+02  0.7546771E-02  0.1321838E+00
         21   -1    0    0  503  502  0.00000000000E+00  0.00000000000E+00  0.13473092876E+02  0.13473092876E+02  0.00000000000E+00 0.  1.
          2   -1    0    0  505    0 -0.00000000000E+00 -0.00000000000E+00 -0.33863618444E+04  0.33863618444E+04  0.00000000000E+00 0.  1.
         21    1    1    2  503  504 -0.84009945445E+02  0.88299368880E+01 -0.16062232449E+03  0.18148049439E+03  0.00000000000E+00 0.  1.
         21    1    1    2  504  501  0.72831350448E+02  0.32874090925E+02 -0.11203562471E+04  0.11232022222E+04  0.00000000000E+00 0.  1.
         21    1    1    2  505  502 -0.40561690466E+02 -0.14697913711E+02 -0.41707376769E+03  0.41929918566E+03  0.00000000000E+00 0. -1.
          2    1    1    2  501    0  0.51740285464E+02 -0.27006114102E+02 -0.16748364122E+04  0.16758530350E+04  0.00000000000E+00 0.  1.
<scales pt_clust_3="82.59737" pt_clust_4="14000.00000" pt_clust_5="43.14255" pt_clust_6="45.58862"></scales>
<clustering>
<clus scale="   43.143">  2  5  1 -1</clus>
<clus scale="   45.589">  2  6  1 -1</clus>
<clus scale="   82.597">  1  3  2 -1</clus>
<clus scale="   82.597">  1  3  2 -1</clus>
</clustering>
</event>
<event>
 6    0  0.1622933E+002  0.1433552E+03  0.7546771E-02  0.1208884E+00
         21   -1    0    0  501  502  0.00000000000E+00  0.00000000000E+00  0.15884711599E+04  0.15884711599E+04  0.00000000000E+00 0.  1.
          4   -1    0    0  504    0 -0.00000000000E+00 -0.00000000000E+00 -0.77877470762E+02  0.77877470762E+02  0.00000000000E+00 0.  1.
         21    1    1    2  503  505  0.27493613595E+02  0.97634956539E+02  0.10847544769E+03  0.14851062682E+03  0.00000000000E+00 0.  1.
         21    1    1    2  504  503 -0.42388737196E+02 -0.72477557126E+01  0.33056736223E+02  0.54240969881E+02  0.00000000000E+00 0. -1.
         21    1    1    2  505  502  0.26554024725E+02 -0.15185660348E+03  0.13893099103E+04  0.13978367470E+04  0.00000000000E+00 0.  1.
          4    1    1    2  501    0 -0.11658901123E+02  0.61469402651E+02 -0.20248405091E+02  0.65760287001E+02  0.00000000000E+00 0.  1.
<scales pt_clust_3="143.35522" pt_clust_4="43.00390" pt_clust_5="14000.00000" pt_clust_6="68.79023"></scales>
<clustering>
<clus scale="   43.004">  2  4  1 -1</clus>
<clus scale="   68.790">  2  6  1 -1</clus>
<clus scale="  143.355">  2  3  1 -1</clus>
<clus scale="  143.355">  1  3  2 -1</clus>
</clustering>
</event>
<event>
 6    0  0.1622933E+002  0.9050819E+02  0.7546771E-02  0.1301626E+00
         21   -1    0    0  501  502  0.00000000000E+00  0.00000000000E+00  0.42813021318E+03  0.42813021318E+03  0.00000000000E+00 0.  1.
          2   -1    0    0  505    0 -0.00000000000E+00 -0.00000000000E+00 -0.34183892899E+04  0.34183892899E+04  0.00000000000E+00 0. -1.
         21    1    1    2  503  504 -0.80471459540E+02 -0.54451059434E+02 -0.39225366982E+03  0.40410829633E+03  0.00000000000E+00 0. -1.
         21    1    1    2  504  502  0.86721512040E+02  0.25811375226E+02  0.41592343604E+03  0.42565144472E+03  0.00000000000E+00 0.  1.
         21    1    1    2  505  503 -0.39590482740E+02 -0.24430066403E+02 -0.52927431123E+03  0.53131490756E+03  0.00000000000E+00 0. -1.
          2    1    1    2  501    0  0.33340430240E+02  0.53069750612E+02 -0.24846545317E+04  0.24854448545E+04  0.00000000000E+00 0. -1.
<scales pt_clust_3="90.50819" pt_clust_4="14000.00000" pt_clust_5="46.52133" pt_clust_6="32.05720"></scales>
<clustering>
<clus scale="   46.521">  2  5  1 -1</clus>
<clus scale="   32.057">  2  6  1 -1</clus>
<clus scale="   90.508">  2  3  1 -1</clus>
<clus scale="   90.508">  1  3  2 -1</clus>
</clustering>
</event>
<event>
 6    0  0.1622933E+002  0.7819957E+02  0.7546771E-02  0.1334240E+00
         21   -1    0    0  503  502  0.00000000000E+00  0.00000000000E+00  0.36768579163E+03  0.36768579163E+03  0.00000000000E+00 0.  1.
         -1   -1    0    0    0  501 -0.00000000000E+00 -0.00000000000E+00 -0.23295573996E+03  0.23295573996E+03  0.00000000000E+00 0. -1.
         21    1    1    2  503  505 -0.39465029099E+02  0.45304863748E+02  0.28742358673E+03  0.29363640341E+03  0.00000000000E+00 0.  1.
         21    1    1    2  504  502  0.52926999236E+02  0.44161461993E+02  0.38369422187E+02  0.78890522451E+02  0.00000000000E+00 0.  1.
         21    1    1    2  505  501  0.22083282184E+02 -0.82387964980E+02 -0.10901798864E+03  0.13842098819E+03  0.00000000000E+00 0. -1.
         -1    1    1    2    0  504 -0.35545252321E+02 -0.70783607612E+01 -0.82044968604E+02  0.89693617537E+02  0.00000000000E+00 0. -1.
<scales pt_clust_3="60.46745" pt_clust_4="78.19957" pt_clust_5="14000.00000" pt_clust_6="36.24318"></scales>
<clustering>
<clus scale="   36.243">  2  6  1 -1</clus>
<clus scale="   60.467">  1  3  2 -1</clus>
<clus scale="   78.200">  1  4  2 -1</clus>
<clus scale="   60.467">  1  3  2 -1</clus>
</clustering>
</event>
<event>
 6    0  0.1839790E+002  0.1994889E+03  0.7546771E-02  0.1150171E+00
          2   -1    0    0  505    0 -0.00000000000E+00  0.00000000000E+00  0.35359123153E+04  0.35359123153E+04  0.00000000000E+00 0.  1.
         21   -1    0    0  501  502  0.00000000000E+00 -0.00000000000E+00 -0.10708287685E+04  0.10708287685E+04  0.00000000000E+00 0. -1.
         21    1    1    2  503  504 -0.95309311438E+02 -0.19501281133E+02  0.10257183578E+03  0.14136883075E+03  0.00000000000E+00 0. -1.
         21    1    1    2  504  502 -0.25682319259E+02 -0.19765907688E+03 -0.10353068226E+04  0.10543191685E+04  0.00000000000E+00 0. -1.
         21    1    1    2  505  503  0.39691203991E+02 -0.22374867941E+02  0.66147460523E+03  0.66304198943E+03  0.00000000000E+00 0.  1.
          2    1    1    2  501    0  0.81300426707E+02  0.23953522595E+03  0.27363439284E+04  0.27480110951E+04  0.00000000000E+00 0.  1.
<scales pt_clust_3="95.83223" pt_clust_4="199.48887" pt_clust_5="45.56343" pt_clust_6="14000.00000"></scales>
<clustering>
<clus scale="   45.563">  1  5  2 -1</clus>
<clus scale="   95.832">  1  3  2 -1</clus>
<clus scale="  199.489">  2  4  1 -1</clus>
<clus scale="  199.489">  2  3  1 -1</clus>
</clustering>
</event>
<event>
 6    0  0.1622933E+002  0.2078213E+03  0.7546771E-02  0.1143303E+00
         21   -1    0    0  504  502  0.00000000000E+00  0.00000000000E+00  0.14257286771E+03  0.14257286771E+03  0.00000000000E+00 0.  1.
          2   -1    0    0  503    0 -0.00000000000E+00 -0.00000000000E+00 -0.11178093451E+04  0.11178093451E+04  0.00000000000E+00 0.  1.
         21    1    1    2  503  505  0.34711709193E+01  0.92031151421E+02 -0.14599627909E+03  0.17261719314E+03  0.00000000000E+00 0.  1.
         21    1    1    2  504  501 -0.38745370539E+02  0.27895168317E+02 -0.42150616752E+03  0.42420135952E+03  0.00000000000E+00 0.  1.
         21    1    1    2  505  502  0.40090592130E+02 -0.20238102177E+03  0.38392751635E+02  0.20985551441E+03  0.00000000000E+00 0.  1.
          2    1    1    2  501    0 -0.48163925102E+01  0.82454702032E+02 -0.44612678236E+03  0.45370814569E+03  0.00000000000E+00 0.  1.
<scales pt_clust_3="92.09659" pt_clust_4="47.25657" pt_clust_5="198.30851" pt_clust_6="47.25657"></scales>
<clustering>
<clus scale="   47.257">  4  6 -1 -1</clus>
<clus scale="   92.097">  2  3  1 -1</clus>
<clus scale="  198.309">  1  5  2 -1</clus>
<clus scale="  198.309">  1  3  2 -1</clus>
</clustering>
</event>
<event>
 6    0  0.1622933E+002  0.2271714E+03  0.7546771E-02  0.1128647E+00
          1   -1    0    0  505    0 -0.00000000000E+00  0.00000000000E+00  0.16575004577E+04  0.16575004577E+04  0.00000000000E+00 0. -1.
         21   -1    0    0  501  502  0.00000000000E+00 -0.00000000000E+00 -0.40616018149E+03  0.40616018149E+03  0.00000000000E+00 0. -1.
         21    1    1    2  503  502  0.45569498848E+02 -0.27454548918E+02 -0.36269504950E+03  0.36657609089E+03  0.00000000000E+00 0. -1.
         21    1    1    2  504  503  0.17754670645E+03  0.10616539882E+03  0.42120704187E+03  0.46926463429E+03  0.00000000000E+00 0. -1.
         21    1    1    2  505  504 -0.10282255145E+02  0.43808698800E+02  0.16107012390E+03  0.16723788947E+03  0.00000000000E+00 0. -1.
          1    1    1    2  501    0 -0.21283395015E+03 -0.12251954871E+03  0.10317581599E+04  0.10605820245E+04  0.00000000000E+00 0. -1.
<scales pt_clust_3="53.16005" pt_clust_4="227.17144" pt_clust_5="44.99919" pt_clust_6="14000.00000"></scales>
<clustering>
<clus scale="   44.999">  1  5  2 -1</clus>
<clus scale="   53.160">  2  3  1 -1</clus>
<clus scale="  227.171">  2  4  1 -1</clus>
<clus scale="   53.160">  2  3  1 -1</clus>
</clustering>
</event>
<event>
 6    0  0.1622933E+002  0.1120529E+03  0.7546771E-02  0.1256815E+00
          2   -1    0    0  505    0 -0.00000000000E+00  0.00000000000E+00  0.11002445177E+04  0.11002445177E+04  0.00000000000E+00 0. -1.
         21   -1    0    0  503  502  0.00000000000E+00 -0.00000000000E+00 -0.29566224711E+03  0.29566224711E+03  0.00000000000E+00 0. -1.
         21    1    1    2  503  501 -0.45405667699E+02  0.39755254577E+02 -0.27314155471E+03  0.27972926882E+03  0.00000000000E+00 0. -1.
         21    1    1    2  504  502 -0.87762478622E+02 -0.17573454076E+01  0.44988457678E+03  0.45836827262E+03  0.00000000000E+00 0. -1.
         21    1    1    2  505  504 -0.71080442145E+01  0.36632766620E+02  0.11204994066E+03  0.11810026708E+03  0.00000000000E+00 0.  1.
          2    1    1    2  501    0  0.14027619054E+03 -0.74630675789E+02  0.51578930784E+03  0.53970895627E+03  0.00000000000E+00 0. -1.
<scales pt_clust_3="60.44888" pt_clust_4="14000.00000" pt_clust_5="37.31600" pt_clust_6="112.05290"></scales>
<clustering>
<clus scale="   37.316">  1  5  2 -1</clus>
<clus scale="   60.449">  2  3  1 -1</clus>
<clus scale="  112.053">  2  6  1 -1</clus>
<clus scale="   60.449">  2  3  1 -1</clus>
</clustering>
</event>
<event>
 6    0  0.1622933E+002  0.8475895E+02  0.7546771E-02  0.1316064E+00
          2   -1    0    0  503    0 -0.00000000000E+00  0.00000000000E+00  0.71227576681E+03  0.71227576681E+03  0.00000000000E+00 0. -1.
         21   -1    0    0  501  502  0.00000000000E+00 -0.00000000000E+00 -0.86562533719E+03  0.86562533719E+03  0.00000000000E+00 0.  1.
         21    1    1    2  503  504  0.34756369269E+02  0.39754471818E+02 -0.29737109156E+01  0.52889187845E+02  0.00000000000E+00 0. -1.
         21    1    1    2  504  505 -0.84219737578E+02 -0.57269530431E+02  0.45688587367E+03  0.46809984499E+03  0.00000000000E+00 0. -1.
         21    1    1    2  505  502 -0.26666159432E+02  0.80464237901E+02 -0.81894157287E+03  0.82331699691E+03  0.00000000000E+00 0.  1.
          2    1    1    2  501    0  0.76129527741E+02 -0.62949179287E+02  0.21167983973E+03  0.23359507425E+03  0.00000000000E+00 0. -1.
<scales pt_clust_3="52.80552" pt_clust_4="68.05866" pt_clust_5="14000.00000" pt_clust_6="84.75895"></scales>
<clustering>
<clus scale="   52.806">  1  3  2 -1</clus>
<clus scale="   68.059">  1  4  2 -1</clus>
<clus scale="   84.759">  1  6  2 -1</clus>
<clus scale="   84.759">  2  3  1 -1</clus>
</clustering>
</event>
<event>
 6    0  0.1622933E+002  0.1215953E+03  0.7546771E-02  0.1240488E+00
          2   -1    0    0  504    0 -0.00000000000E+00  0.00000000000E+00  0.14577635928E+04  0.14577635928E+04  0.00000000000E+00 0. -1.
         21   -1    0    0  503  502  0.00000000000E+00 -0.00000000000E+00 -0.69779803979E+02  0.69779803979E+02  0.00000000000E+00 0. -1.
         21    1    1    2  503  501  0.45773627939E+02  0.67865496330E+01 -0.32145717805E+02  0.56343850098E+02  0.00000000000E+00 0. -1.
         21    1    1    2  504  505 -0.69893952196E+02 -0.10343011557E+03  0.73475189866E+03  0.74528068936E+03  0.00000000000E+00 0.  1.
         21    1    1    2  505  502  0.40404844520E+02 -0.38649524902E+02  0.46655714184E+02  0.72822337932E+02  0.00000000000E+00 0. -1.
          2    1    1    2  501    0 -0.16284520263E+02  0.13529309084E+03  0.63872189376E+03  0.65309651935E+03  0.00000000000E+00 0. -1.
<scales pt_clust_3="46.27399" pt_clust_4="121.59531" pt_clust_5="72.90340" pt_clust_6="14000.00000"></scales>
<clustering>
<clus scale="   46.274">  2  3  1 -1</clus>
<clus scale="   72.903">  2  5  1 -1</clus>
<clus scale="  121.595">  1  4  2 -1</clus>
<clus scale="   46.274">  2  3  1 -1</clus>
</clustering>
</event>
<event>
 6    0  0.1622933E+002  0.9272085E+02  0.7546771E-02  0.1296393E+00
          1   -1    0    0  504    0 -0.00000000000E+00  0.00000000000E+00  0.18114898585E+04  0.18114898585E+04  0.00000000000E+00 0.  1.
         21   -1    0    0  503  502  0.00000000000E+00 -0.00000000000E+00 -0.47693300745E+02  0.47693300745E+02  0.00000000000E+00 0.  1.
         21    1    1    2  503  505 -0.49548371676E+02 -0.31950348401E+02  0.33878559679E+03  0.34387722590E+03  0.00000000000E+00 0.  1.
         21    1    1    2  504  502  0.73925654180E+02  0.65078538176E+02  0.14993639216E+02  0.99624433218E+02  0.00000000000E+00 0.  1.
         21    1    1    2  505  501  0.11073174779E+02 -0.58686239944E+02  0.37361095823E+03  0.37835411729E+03  0.00000000000E+00 0. -1.
          1    1    1    2  501    0 -0.35450457283E+02  0.25558050169E+02  0.10364063635E+04  0.10373273828E+04  0.00000000000E+00 0.  1.
<scales pt_clust_3="92.72085" pt_clust_4="14000.00000" pt_clust_5="46.68568" pt_clust_6="43.70296"></scales>
<clustering>
<clus scale="   43.703">  1  6  2 -1</clus>
<clus scale="   46.686">  1  5  2 -1</clus>
<clus scale="   92.721">  1  3  2 -1</clus>
<clus scale="   92.721">  2  3  1 -1</clus>
</clustering>
</event>
<event>
 6    0  0.1622933E+002  0.4009244E+03  0.7546771E-02  0.1043460E+00
         21   -1    0    0  505  502  0.00000000000E+00  0.00000000000E+00  0.25395916036E+03  0.25395916036E+03  0.00000000000E+00 0.  1.
          2   -1    0    0  503    0 -0.00000000000E+00 -0.00000000000E+00 -0.14240013724E+04  0.14240013724E+04  0.00000000000E+00 0. -1.
         21    1    1    2  503  504 -0.26263892182E+02  0.27913637496E+02 -0.40685315202E+03  0.40865443898E+03  0.00000000000E+00 0. -1.
         21    1    1    2  504  502  0.31799387955E+03 -0.17182753318E+03  0.58840781419E+02  0.36620628906E+03  0.00000000000E+00 0.  1.
         21    1    1    2  505  501 -0.81832690403E+02  0.11721464858E+03 -0.19828337059E+03  0.24444254563E+03  0.00000000000E+00 0. -1.
          2    1    1    2  501    0 -0.20989729696E+03  0.26699247109E+02 -0.62374647080E+03  0.65865725905E+03  0.00000000000E+00 0. -1.
<scales pt_clust_3="38.32706" pt_clust_4="355.95189" pt_clust_5="149.35043" pt_clust_6="149.35043"></scales>
<clustering>
<clus scale="   38.327">  2  3  1 -1</clus>
<clus scale="  149.350">  5  6 -1 -1</clus>
<clus scale="  355.952">  1  4  2 -1</clus>
<clus scale="  355.952">  1  3  2 -1</clus>
</clustering>
</event>
<event>
 6    0  0.1622933E+002  0.2027281E+03  0.7546771E-02  0.1147458E+00
          2   -1    0    0  504    0 -0.00000000000E+00  0.00000000000E+00  0.54228041693E+03  0.54228041693E+03  0.00000000000E+00 0.  1.
         21   -1    0    0  503  502  0.00000000000E+00 -0.00000000000E+00 -0.19316307528E+03  0.19316307528E+03  0.00000000000E+00 0.  1.
         21    1    1    2  503  501  0.68298177344E+02  0.56726846561E+02  0.17819606772E+03  0.19908896178E+03  0.00000000000E+00 0. -1.
         21    1    1    2  504  505 -0.43413648240E+02 -0.39930172039E+02  0.44845709185E+02  0.74096566215E+02  0.00000000000E+00 0.  1.
         21    1    1    2  505  502 -0.15021885646E+03 -0.11558798462E+03 -0.76477416019E+02  0.20438953541E+03  0.00000000000E+00 0.  1.
          2    1    1    2  501    0  0.12533432735E+03  0.98791310097E+02  0.20255298076E+03  0.25786842881E+03  0.00000000000E+00 0.  1.
<scales pt_clust_3="34.67140" pt_clust_4="58.98443" pt_clust_5="197.32687" pt_clust_6="34.67140"></scales>
<clustering>
<clus scale="   34.671">  3  6 -1 -1</clus>
<clus scale="   58.984">  1  4  2 -1</clus>
<clus scale="  197.327">  2  5  1 -1</clus>
<clus scale="  197.327">  2  3  1 -1</clus>
</clustering>
</event>
<event>
 6    0  0.1622933E+002  0.1466153E+03  0.7546771E-02  0.1204695E+00
         21   -1    0    0  505  502  0.00000000000E+00  0.00000000000E+00  0.28038720620E+03  0.28038720620E+03  0.00000000000E+00 0. -1.
          2   -1    0    0  503    0 -0.00000000000E+00 -0.00000000000E+00 -0.64456942274E+03  0.64456942274E+03  0.00000000000E+00 0.  1.
         21    1    1    2  503  502 -0.81653410923E+01 -0.30074868956E+02 -0.95779804181E+01  0.32602273644E+02  0.00000000000E+00 0. -1.
         21    1    1    2  504  501  0.53625463243E+02  0.14951760257E+02 -0.38102459497E+03  0.38507010714E+03  0.00000000000E+00 0.  1.
         21    1    1    2  505  504 -0.11943190434E+03 -0.12090514944E+02  0.24614159108E+03  0.27385368938E+03  0.00000000000E+00 0. -1.
          2    1    1    2  501    0  0.73971782193E+02  0.27213623643E+02 -0.21972123223E+03  0.23343055877E+03  0.00000000000E+00 0.  1.
<scales pt_clust_3="31.16361" pt_clust_4="50.43771" pt_clust_5="133.81890" pt_clust_6="50.43771"></scales>
<clustering>
<clus scale="   31.164">  1  3  2 -1</clus>
<clus scale="   50.438">  4  6 -1 -1</clus>
<clus scale="  133.819">  1  5  2 -1</clus>
<clus scale="   31.164">  1  3  2 -1</clus>
</clustering>
</event>
<event>
 6    0  0.1622933E+002  0.1360412E+03  0.7546771E-02  0.1218757E+00
          2   -1    0    0  505    0 -0.00000000000E+00  0.00000000000E+00  0.27972395265E+04  0.27972395265E+04  0.00000000000E+00 0.  1.
         21   -1    0    0  503  502  0.00000000000E+00 -0.00000000000E+00 -0.55517638890E+02  0.55517638890E+02  0.00000000000E+00 0. -1.
         21    1    1    2  503  501  0.32405711502E+02 -0.39690255955E+02  0.12363593306E+03  0.13383306953E+03  0.00000000000E+00 0. -1.
         21    1    1    2  504  502 -0.58043532570E+02 -0.10163519343E+03  0.25459284860E+02  0.11977871014E+03  0.00000000000E+00 0. -1.
         21    1    1    2  505  504  0.35363729079E+02  0.51308507163E+02  0.41648639446E+03  0.42112239671E+03  0.00000000000E+00 0. -1.
          2    1    1    2  501    0 -0.97259080108E+01  0.90016942227E+02  0.21761402752E+04  0.21780229890E+04  0.00000000000E+00 0.  1.
<scales pt_clust_3="51.23911" pt_clust_4="14000.00000" pt_clust_5="61.69950" pt_clust_6="136.04120"></scales>
<clustering>
<clus scale="   51.239">  2  3  1 -1</clus>
<clus scale="   61.699">  1  5  2 -1</clus>
<clus scale="  136.041">  1  6  2 -1</clus>
<clus scale="   51.239">  2  3  1 -1</clus>
</clustering>
</event>
<event>
 6    0  0.1622933E+002  0.9389021E+02  0.7546771E-02  0.1293695E+00
         21   -1    0    0  505  502  0.00000000000E+00  0.00000000000E+00  0.13467484606E+04  0.13467484606E+04  0.00000000000E+00 0.  1.
         -2   -1    0    0    0  501 -0.00000000000E+00 -0.00000000000E+00 -0.12627145438E+03  0.12627145438E+03  0.00000000000E+00 0.  1.
         21    1    1    2  503  502 -0.35862076352E+02 -0.33261742964E+02  0.10777715244E+04  0.10788808511E+04  0.00000000000E+00 0.  1.
         21    1    1    2  504  503 -0.65166595358E+02  0.31280782640E+01  0.17320099969E+03  0.18508121546E+03  0.00000000000E+00 0.  1.
         21    1    1    2  505  501 -0.53177707349E+01 -0.41467387245E+02  0.44070900430E+02  0.60745922952E+02  0.00000000000E+00 0.  1.
         -2    1    1    2    0  504  0.10634644244E+03  0.71601051945E+02 -0.74566418376E+02  0.14831192538E+03  0.00000000000E+00 0.  1.
<scales pt_clust_3="49.06362" pt_clust_4="93.89021" pt_clust_5="41.80697" pt_clust_6="14000.00000"></scales>
<clustering>
<clus scale="   41.807">  2  5  1 -1</clus>
<clus scale="   49.064">  1  3  2 -1</clus>
<clus scale="   93.890">  1  4  2 -1</clus>
<clus scale="   49.064">  1  3  2 -1</clus>
</clustering>
</event>
<event>
 6    0  0.1622933E+002  0.9271687E+02  0.7546771E-02  0.1296403E+00
         21   -1    0    0  503  502  0.00000000000E+00  0.00000000000E+00  0.13510493836E+03  0.13510493836E+03  0.00000000000E+00 0.  1.
          2   -1    0    0  505    0 -0.00000000000E+00 -0.00000000000E+00 -0.77386024272E+03  0.77386024272E+03  0.00000000000E+00 0. -1.
         21    1    1    2  503  501 -0.35870646061E+02 -0.25812285672E+02  0.10434921855E+03  0.11332138700E+03  0.00000000000E+00 0.  1.
         21    1    1    2  504  502 -0.41719527836E+02 -0.19456720754E+02 -0.36853182066E+02  0.58968127101E+02  0.00000000000E+00 0. -1.
         21    1    1    2  505  504  0.56400928766E+02 -0.65016067584E+02 -0.19364122187E+03  0.21190817968E+03  0.00000000000E+00 0.  1.
          2    1    1    2  501    0  0.21189245131E+02  0.11028507401E+03 -0.51261011897E+03  0.52476748730E+03  0.00000000000E+00 0. -1.
<scales pt_clust_3="44.19250" pt_clust_4="64.40281" pt_clust_5="92.71687" pt_clust_6="14000.00000"></scales>
<clustering>
<clus scale="   44.193">  1  3  2 -1</clus>
<clus scale="   64.403">  1  4  2 -1</clus>
<clus scale="   92.717">  1  5  2 -1</clus>
<clus scale="   44.193">  1  3  2 -1</clus>
</clustering>
</event>
<event>
 6    0  0.1622933E+002  0.1148107E+03  0.7546771E-02  0.1251912E+00
          1   -1    0    0  505    0 -0.00000000000E+00  0.00000000000E+00  0.37661309375E+04  0.37661309375E+04  0.00000000000E+00 0. -1.
         21   -1    0    0  503  502  0.00000000000E+00 -0.00000000000E+00 -0.29962362471E+02  0.29962362471E+02  0.00000000000E+00 0.  1.
         21    1    1    2  503  504 -0.10491572662E+02  0.40501988228E+02  0.24837215491E+01  0.41912444692E+02  0.00000000000E+00 0.  1.
         21    1    1    2  504  501  0.35023995042E+02 -0.34649336685E+02  0.50593676546E+03  0.50832988050E+03  0.00000000000E+00 0.  1.
         21    1    1    2  505  502  0.16100047221E+02  0.10344148047E+03  0.34004797617E+03  0.35579766371E+03  0.00000000000E+00 0.  1.
          1    1    1    2  501    0 -0.40632469601E+02 -0.10929413201E+03  0.28877001119E+04  0.28900533111E+04  0.00000000000E+00 0. -1.
<scales pt_clust_3="41.83879" pt_clust_4="45.13976" pt_clust_5="114.81072" pt_clust_6="14000.00000"></scales>
<clustering>
<clus scale="   41.839">  2  3  1 -1</clus>
<clus scale="   45.140">  2  4  1 -1</clus>
<clus scale="  114.811">  2  5  1 -1</clus>
<clus scale="   41.839">  2  3  1 -1</clus>
</clustering>
</event>
<event>
 6    0  0.1622933E+002  0.1398795E+03  0.7546771E-02  0.1213491E+00
          1   -1    0    0  505    0 -0.00000000000E+00  0.00000000000E+00  0.20460664143E+04  0.20460664143E+04  0.00000000000E+00 0. -1.
         21   -1    0    0  503  502  0.00000000000E+00 -0.00000000000E+00 -0.16272576868E+03  0.16272576868E+03  0.00000000000E+00 0.  1.
         21    1    1    2  503  501  0.17180546284E+02 -0.14004318881E+03  0.46171023433E+03  0.48278733039E+03  0.00000000000E+00 0. -1.
         21    1    1    2  504  502  0.34052493936E+02 -0.10896613150E+02 -0.13153726682E+03  0.13630979819E+03  0.00000000000E+00 0.  1.
         21    1    1    2  505  504  0.10299292371E+03  0.12698627112E+03  0.52863777847E+03  0.55334524143E+03  0.00000000000E+00 0. -1.
          1    1    1    2  501    0 -0.15422596393E+03  0.23953530835E+02  0.10245298997E+04  0.10363498130E+04  0.00000000000E+00 0. -1.
<scales pt_clust_3="147.04840" pt_clust_4="35.75344" pt_clust_5="139.87955" pt_clust_6="14000.00000"></scales>
<clustering>
<clus scale="   35.753">  2  4  1 -1</clus>
<clus scale="  147.048">  2  3  1 -1</clus>
<clus scale="  139.880">  2  5  1 -1</clus>
<clus scale="   35.753">  2  3  1 -1</clus>
</clustering>
</event>
<event>
 6    0  0.1622933E+002  0.1610192E+03  0.7546771E-02  0.1187551E+00
         -2   -1    0    0    0  501 -0.00000000000E+00  0.00000000000E+00  0.26941887715E+03  0.26941887715E+03  0.00000000000E+00 0. -1.
         21   -1    0    0  505  502  0.00000000000E+00 -0.00000000000E+00 -0.34086078306E+04  0.34086078306E+04  0.00000000000E+00 0.  1.
         21    1    1    2  503  502  0.95407568803E+02 -0.17723505398E+02 -0.32435448121E+04  0.32449960979E+04  0.00000000000E+00 0.  1.
         21    1    1    2  504  501  0.32817131400E+02 -0.89090013138E+00  0.23188218901E+02  0.40192677345E+02  0.00000000000E+00 0.  1.
         21    1    1    2  505  504  0.83139697709E+02  0.63022798431E+02 -0.73129627507E+02  0.12740496410E+03  0.00000000000E+00 0.  1.
         -2    1    1    2    0  503 -0.21136439791E+03 -0.44408392902E+02  0.15429726726E+03  0.26543296847E+03  0.00000000000E+00 0. -1.
<scales pt_clust_3="97.13880" pt_clust_4="32.82922" pt_clust_5="161.01923" pt_clust_6="14000.00000"></scales>
<clustering>
<clus scale="   32.829">  1  4  2 -1</clus>
<clus scale="   97.139">  2  3  1 -1</clus>
<clus scale="  161.019">  2  5  1 -1</clus>
<clus scale="   97.139">  2  3  1 -1</clus>
</clustering>
</event>
<event>
 6    0  0.1622933E+002  0.7900139E+02  0.7546771E-02  0.1331909E+00
          1   -1    0    0  503    0 -0.00000000000E+00  0.00000000000E+00  0.18144655906E+04  0.18144655906E+04  0.00000000000E+00 0.  1.
         21   -1    0    0  501  502  0.00000000000E+00 -0.00000000000E+00 -0.24041195428E+02  0.24041195428E+02  0.00000000000E+00 0. -1.
         21    1    1    2  503  505  0.15044830342E+02  0.60302234522E+02  0.55561767605E+03  0.55908291724E+03  0.00000000000E+00 0.  1.
         21    1    1    2  504  502  0.23839224745E+02 -0.23427068872E+02  0.61890238344E+00  0.33429316962E+02  0.00000000000E+00 0. -1.
         21    1    1    2  505  504  0.54831001976E+02 -0.38954310112E+02  0.31868883875E+03  0.32570915400E+03  0.00000000000E+00 0. -1.
          1    1    1    2  501    0 -0.93715057062E+02  0.20791444622E+01  0.91549897800E+03  0.92028539784E+03  0.00000000000E+00 0.  1.
<scales pt_clust_3="58.66763" pt_clust_4="33.42359" pt_clust_5="79.00139" pt_clust_6="14000.00000"></scales>
<clustering>
<clus scale="   33.424">  2  4  1 -1</clus>
<clus scale="   58.668">  1  3  2 -1</clus>
<clus scale="   79.001">  2  5  1 -1</clus>
<clus scale="   33.424">  2  3  1 -1</clus>
</clustering>
</event>
<event>
 6    0  0.1622933E+002  0.1072985E+03  0.7546771E-02  0.1265656E+00
         21   -1    0    0  505  502  0.00000000000E+00  0.00000000000E+00  0.12890282857E+03  0.12890282857E+03  0.00000000000E+00 0. -1.
          2   -1    0    0  502    0 -0.00000000000E+00 -0.00000000000E+00 -0.79498930252E+03  0.79498930252E+03  0.00000000000E+00 0. -1.
         21    1    1    2  503  504 -0.29454897004E+02 -0.40560630866E+02 -0.12818879445E+03  0.13764128290E+03  0.00000000000E+00 0. -1.
         21    1    1    2  504  501  0.45376470351E+01 -0.58451270601E+02 -0.19430496553E+03  0.20295704202E+03  0.00000000000E+00 0. -1.
         21    1    1    2  505  503 -0.73847656871E+02  0.71639429640E+02  0.90647686958E+02  0.13712289180E+03  0.00000000000E+00 0. -1.
          2    1    1    2  501    0  0.98764906840E+02  0.27372471828E+02 -0.43424040093E+03  0.44617091438E+03  0.00000000000E+00 0. -1.
<scales pt_clust_3="36.76396" pt_clust_4="36.76396" pt_clust_5="99.66040" pt_clust_6="102.48785"></scales>
<clustering>
<clus scale="   36.764">  3  4 -1 -1</clus>
<clus scale="  102.488">  2  6  1 -1</clus>
<clus scale="   99.660">  1  5  2 -1</clus>
<clus scale="   99.660">  1  3  2 -1</clus>
</clustering>
</event>
<event>
 6    0  0.1622933E+002  0.1844835E+03  0.7546771E-02  0.1163533E+00
         21   -1    0    0  504  502  0.00000000000E+00  0.00000000000E+00  0.21266183410E+04  0.21266183410E+04  0.00000000000E+00 0. -1.
          1   -1    0    0  505    0 -0.00000000000E+00 -0.00000000000E+00 -0.13609676662E+03  0.13609676662E+03  0.00000000000E+00 0. -1.
         21    1    1    2  503  502  0.18891996903E+00  0.74970938238E+02  0.56955730304E+02  0.94152177274E+02  0.00000000000E+00 0.  1.
         21    1    1    2  504  501  0.17146723733E+03 -0.67117160021E+02  0.18784590110E+04  0.18874623129E+04  0.00000000000E+00 0. -1.
         21    1    1    2  505  503  0.39257455801E+02  0.45021735668E+01  0.57551651027E+02  0.69811245073E+02  0.00000000000E+00 0. -1.
          1    1    1    2  501    0 -0.21091361310E+03 -0.12355951784E+02 -0.24448179600E+01  0.21128937235E+03  0.00000000000E+00 0. -1.
<scales pt_clust_3="75.83782" pt_clust_4="184.48353" pt_clust_5="39.51477" pt_clust_6="14000.00000"></scales>
<clustering>
<clus scale="   39.515">  2  5  1 -1</clus>
<clus scale="   75.838">  2  3  1 -1</clus>
<clus scale="  184.484">  1  4  2 -1</clus>
<clus scale="  184.484">  1  3  2 -1</clus>
</clustering>
</event>
<event>
 6    0  0.1622933E+002  0.1320448E+03  0.7546771E-02  0.1224453E+00
         21   -1    0    0  503  502  0.00000000000E+00  0.00000000000E+00  0.62906674247E+02  0.62906674247E+02  0.00000000000E+00 0. -1.
          2   -1    0    0  505    0 -0.00000000000E+00 -0.00000000000E+00 -0.65752049697E+03  0.65752049697E+03  0.00000000000E+00 0. -1.
         21    1    1    2  503  501  0.99052117721E+00 -0.32879970032E+02  0.11327407149E+02  0.34790569329E+02  0.00000000000E+00 0. -1.
         21    1    1    2  504  502  0.28226576453E+02  0.19704770505E+02 -0.64184404426E+02  0.72833065090E+02  0.00000000000E+00 0. -1.
         21    1    1    2  505  504  0.70854859377E+02 -0.86723481683E+02 -0.10420325591E+03  0.15296957840E+03  0.00000000000E+00 0. -1.
          2    1    1    2  501    0 -0.10007195701E+03  0.99898681210E+02 -0.43755356954E+03  0.45983395841E+03  0.00000000000E+00 0. -1.
<scales pt_clust_3="32.89489" pt_clust_4="32.60688" pt_clust_5="132.04478" pt_clust_6="14000.00000"></scales>
<clustering>
<clus scale="   32.895">  1  3  2 -1</clus>
<clus scale="   32.607">  1  4  2 -1</clus>
<clus scale="  132.045">  1  5  2 -1</clus>
<clus scale="   32.895">  1  3  2 -1</clus>
</clustering>
</event>
<event>
 6    0  0.1622933E+002  0.1620088E+03  0.7546771E-02  0.1186447E+00
         21   -1    0    0  504  502  0.00000000000E+00  0.00000000000E+00  0.17560384531E+04  0.17560384531E+04  0.00000000000E+00 0.  1.
          3   -1    0    0  505    0 -0.00000000000E+00 -0.00000000000E+00 -0.38701314981E+03  0.38701314981E+03  0.00000000000E+00 0.  1.
         21    1    1    2  503  502 -0.55508385103E+02 -0.65606832312E+02  0.16390248451E+04  0.16412762961E+04  0.00000000000E+00 0.  1.
         21    1    1    2  504  501 -0.39739534813E+02  0.10500170984E+03 -0.15696837438E+03  0.19298616596E+03  0.00000000000E+00 0.  1.
         21    1    1    2  505  503  0.11923038859E+03 -0.76604891846E+02  0.41799188094E+02  0.14775441497E+03  0.00000000000E+00 0. -1.
          3    1    1    2  501    0 -0.23982468675E+02  0.37210014322E+02 -0.15483035549E+03  0.16103472592E+03  0.00000000000E+00 0.  1.
<scales pt_clust_3="85.93857" pt_clust_4="38.84948" pt_clust_5="149.73033" pt_clust_6="38.84948"></scales>
<clustering>
<clus scale="   38.849">  4  6 -1 -1</clus>
<clus scale="   85.939">  1  3  2 -1</clus>
<clus scale="  149.730">  1  5  2 -1</clus>
<clus scale="   85.939">  1  3  2 -1</clus>
</clustering>
</event>
<event>
 6    0  0.1622933E+002  0.1041808E+03  0.7546771E-02  0.1271742E+00
          2   -1    0    0  505    0 -0.00000000000E+00  0.00000000000E+00  0.40954061631E+03  0.40954061631E+03  0.00000000000E+00 0. -1.
         21   -1    0    0  503  502  0.00000000000E+00 -0.00000000000E+00 -0.29959137481E+03  0.29959137481E+03  0.00000000000E+00 0. -1.
         21    1    1    2  503  501 -0.84640728613E+02  0.85497787218E+02 -0.24937595073E+03  0.27687955750E+03  0.00000000000E+00 0. -1.
         21    1    1    2  504  502 -0.69170999590E+01 -0.29467714103E+02 -0.15731280048E+02  0.34112543415E+02  0.00000000000E+00 0. -1.
         21    1    1    2  505  504  0.74665578357E+02 -0.25440461510E+02  0.14165145303E+03  0.16213358634E+03  0.00000000000E+00 0. -1.
          2    1    1    2  501    0  0.16892250214E+02 -0.30589611605E+02  0.23340501924E+03  0.23600630386E+03  0.00000000000E+00 0. -1.
<scales pt_clust_3="14000.00000" pt_clust_4="30.26867" pt_clust_5="104.18080" pt_clust_6="35.05030"></scales>
<clustering>
<clus scale="   30.269">  2  4  1 -1</clus>
<clus scale="   35.050">  1  6  2 -1</clus>
<clus scale="  104.181">  1  5  2 -1</clus>
<clus scale="   30.269">  2  3  1 -1</clus>
</clustering>
</event>
<event>
 6    0  0.1622933E+002  0.1397393E+03  0.7546771E-02  0.1213680E+00
          3   -1    0    0  504    0 -0.00000000000E+00  0.00000000000E+00  0.11145443972E+03  0.11145443972E+03  0.00000000000E+00 0. -1.
         21   -1    0    0  505  502  0.00000000000E+00 -0.00000000000E+00 -0.59576670689E+03  0.59576670689E+03  0.00000000000E+00 0.  1.
         21    1    1    2  503  502 -0.18940056885E+02  0.52377188536E+02 -0.62318793997E+02  0.83580665940E+02  0.00000000000E+00 0. -1.
         21    1    1    2  504  503  0.11505925890E+02 -0.55169518075E+02 -0.16219184664E+01  0.56379896015E+02  0.00000000000E+00 0.  1.
         21    1    1    2  505  501 -0.12489273089E+03 -0.53188123707E+01 -0.41625638074E+03  0.43462151177E+03  0.00000000000E+00 0.  1.
          3    1    1    2  501    0  0.13232686188E+03  0.81111419098E+01 -0.41151739712E+01  0.13263907288E+03  0.00000000000E+00 0. -1.
<scales pt_clust_3="55.69646" pt_clust_4="53.29965" pt_clust_5="14000.00000" pt_clust_6="139.73926"></scales>
<clustering>
<clus scale="   55.696">  2  3  1 -1</clus>
<clus scale="   53.300">  1  4  2 -1</clus>
<clus scale="  139.739">  1  6  2 -1</clus>
<clus scale="   55.696">  2  3  1 -1</clus>
</clustering>
</event>
<event>
 6    0  0.1622933E+002  0.1939591E+03  0.7546771E-02  0.1154938E+00
         -2   -1    0    0    0  501 -0.00000000000E+00  0.00000000000E+00  0.10195750444E+04  0.10195750444E+04  0.00000000000E+00 0. -1.
         21   -1    0    0  504  502  0.00000000000E+00 -0.00000000000E+00 -0.13094120233E+03  0.13094120233E+03  0.00000000000E+00 0. -1.
         21    1    1    2  503  501 -0.19169916013E+02 -0.25656523045E+02  0.13312739183E+03  0.13692569266E+03  0.00000000000E+00 0.  1.
         21    1    1    2  504  503  0.47914345251E+02  0.18069404721E+02 -0.75904147687E+02  0.91562697120E+02  0.00000000000E+00 0. -1.
         21    1    1    2  505  502 -0.11804306069E+03  0.16763110531E+03  0.33374283840E+03  0.39168690791E+03  0.00000000000E+00 0. -1.
         -2    1    1    2    0  505  0.89298631447E+02 -0.16004398699E+03  0.49766775951E+03  0.53034094902E+03  0.00000000000E+00 0. -1.
<scales pt_clust_3="32.02722" pt_clust_4="50.96962" pt_clust_5="193.95913" pt_clust_6="14000.00000"></scales>
<clustering>
<clus scale="   32.027">  1  3  2 -1</clus>
<clus scale="   50.970">  2  4  1 -1</clus>
<clus scale="  193.959">  2  5  1 -1</clus>
<clus scale="   50.970">  2  3  1 -1</clus>
</clustering>
</event>
<event>
 6    0  0.1622933E+002  0.9570078E+02  0.7546771E-02  0.1289606E+00
         21   -1    0    0  501  502  0.00000000000E+00  0.00000000000E+00  0.39794160185E+03  0.39794160185E+03  0.00000000000E+00 0. -1.
          2   -1    0    0  503    0 -0.00000000000E+00 -0.00000000000E+00 -0.35781659691E+04  0.35781659691E+04  0.00000000000E+00 0. -1.
         21    1    1    2  503  505  0.64922304559E+02  0.17786113718E+01 -0.61243622865E+03  0.61587028119E+03  0.00000000000E+00 0.  1.
         21    1    1    2  504  502  0.47637169939E+02  0.41124134459E+01  0.38199822893E+03  0.38497903685E+03  0.00000000000E+00 0. -1.
         21    1    1    2  505  504  0.21200084420E+02  0.69642892428E+02 -0.11365903923E+03  0.13497389838E+03  0.00000000000E+00 0.  1.
          2    1    1    2  501    0 -0.13375955892E+03 -0.75533917246E+02 -0.28361273283E+04  0.28402843545E+04  0.00000000000E+00 0. -1.
<scales pt_clust_3="70.61805" pt_clust_4="47.81435" pt_clust_5="14000.00000" pt_clust_6="95.70078"></scales>
<clustering>
<clus scale="   47.814">  1  4  2 -1</clus>
<clus scale="   70.618">  2  3  1 -1</clus>
<clus scale="   95.701">  2  6  1 -1</clus>
<clus scale="   47.814">  1  3  2 -1</clus>
</clustering>
</event>
<event>
 6    0  0.1622933E+002  0.1360636E+03  0.7546771E-02  0.1218726E+00
         21   -1    0    0  503  502  0.00000000000E+00  0.00000000000E+00  0.86756173737E+03  0.86756173737E+03  0.00000000000E+00 0. -1.
          1   -1    0    0  504    0 -0.00000000000E+00 -0.00000000000E+00 -0.53810617729E+03  0.53810617729E+03  0.00000000000E+00 0.  1.
         21    1    1    2  503  501 -0.12687130239E+03  0.49550275310E+02  0.82011974701E+03  0.83135308780E+03  0.00000000000E+00 0. -1.
         21    1    1    2  504  505  0.38585777607E+02 -0.11706155398E+02 -0.33422683649E+02  0.52373391050E+02  0.00000000000E+00 0.  1.
         21    1    1    2  505  502 -0.46385229246E+02 -0.39756991086E+02 -0.19776903398E+02  0.64213189770E+02  0.00000000000E+00 0. -1.
          1    1    1    2  501    0  0.13467075403E+03  0.19128711738E+01 -0.43746459989E+03  0.45772824604E+03  0.00000000000E+00 0.  1.
<scales pt_clust_3="14000.00000" pt_clust_4="40.32240" pt_clust_5="59.32346" pt_clust_6="136.06357"></scales>
<clustering>
<clus scale="   40.322">  2  4  1 -1</clus>
<clus scale="   59.323">  2  5  1 -1</clus>
<clus scale="  136.064">  2  6  1 -1</clus>
<clus scale="  136.064">  1  3  2 -1</clus>
</clustering>
</event>
<event>
 6    0  0.1622933E+002  0.1739171E+03  0.7546771E-02  0.1173823E+00
          1   -1    0    0  504    0 -0.00000000000E+00  0.00000000000E+00  0.93693533912E+02  0.93693533912E+02  0.00000000000E+00 0. -1.
         21   -1    0    0  505  502  0.00000000000E+00 -0.00000000000E+00 -0.24802821184E+04  0.24802821184E+04  0.00000000000E+00 0.  1.
         21    1    1    2  503  502 -0.41595516601E+02 -0.55607752069E+02 -0.44068157740E+02  0.82246043176E+02  0.00000000000E+00 0. -1.
         21    1    1    2  504  503 -0.26511239103E+02 -0.14654787824E+02  0.27180216193E+02  0.40698559646E+02  0.00000000000E+00 0. -1.
         21    1    1    2  505  501  0.17803076719E+03 -0.18753958261E+02 -0.22721879528E+04  0.22792289832E+04  0.00000000000E+00 0.  1.
          1    1    1    2  501    0 -0.10992401149E+03  0.89016498153E+02 -0.97512690160E+02  0.17180206631E+03  0.00000000000E+00 0. -1.
<scales pt_clust_3="78.36634" pt_clust_4="30.29206" pt_clust_5="173.91714" pt_clust_6="14000.00000"></scales>
<clustering>
<clus scale="   30.292">  1  4  2 -1</clus>
<clus scale="   78.366">  1  3  2 -1</clus>
<clus scale="  173.917">  2  5  1 -1</clus>
<clus scale="  173.917">  2  3  1 -1</clus>
</clustering>
</event>
<event>
 6    0  0.1622933E+002  0.1103826E+03  0.7546771E-02  0.1259863E+00
          2   -1    0    0  503    0 -0.00000000000E+00  0.00000000000E+00  0.25083165017E+04  0.25083165017E+04  0.00000000000E+00 0.  1.
         21   -1    0    0  505  502  0.00000000000E+00 -0.00000000000E+00 -0.97974118627E+03  0.97974118627E+03  0.00000000000E+00 0.  1.
         21    1    1    2  503  504 -0.22804779544E+02 -0.26194702767E+02  0.22483609397E+03  0.22750272433E+03  0.00000000000E+00 0. -1.
         21    1    1    2  504  502 -0.34659420019E+02  0.10486782615E+03 -0.96720559182E+03  0.97349123941E+03  0.00000000000E+00 0.  1.
         21    1    1    2  505  501  0.12640974838E+03 -0.59723355089E+02  0.66547255579E+03  0.68000001922E+03  0.00000000000E+00 0.  1.
          2    1    1    2  501    0 -0.68945548819E+02 -0.18949768292E+02  0.16054722575E+04  0.16070637050E+04  0.00000000000E+00 0.  1.
<scales pt_clust_3="34.73068" pt_clust_4="110.38256" pt_clust_5="14000.00000" pt_clust_6="92.85561"></scales>
<clustering>
<clus scale="   34.731">  1  3  2 -1</clus>
<clus scale="   92.856">  1  6  2 -1</clus>
<clus scale="  110.383">  2  4  1 -1</clus>
<clus scale="  110.383">  2  3  1 -1</clus>
</clustering>
</event>
<event>
 6    0  0.1622933E+002  0.1142701E+03  0.7546771E-02  0.1252860E+00
          3   -1    0    0  504    0 -0.00000000000E+00  0.00000000000E+00  0.31903409016E+03  0.31903409016E+03  0.00000000000E+00 0.  1.
         21   -1    0    0  501  502  0.00000000000E+00 -0.00000000000E+00 -0.24107921185E+03  0.24107921185E+03  0.00000000000E+00 0.  1.
         21    1    1    2  503  502  0.28301040950E+01  0.59811129264E+02 -0.13124223225E+03  0.14425638356E+03  0.00000000000E+00 0.  1.
         21    1    1    2  504  505  0.39969411281E+02  0.34810741463E+02  0.14271245102E+03  0.15223726625E+03  0.00000000000E+00 0.  1.
         21    1    1    2  505  503 -0.67752878976E+02  0.57152965708E+02 -0.14456133693E+02  0.89810321791E+02  0.00000000000E+00 0.  1.
          3    1    1    2  501    0  0.24953363600E+02 -0.15177483643E+03  0.80940793235E+02  0.17380933041E+03  0.00000000000E+00 0.  1.
<scales pt_clust_3="61.28576" pt_clust_4="53.00322" pt_clust_5="14000.00000" pt_clust_6="114.27014"></scales>
<clustering>
<clus scale="   53.003">  1  4  2 -1</clus>
<clus scale="   61.286">  2  3  1 -1</clus>
<clus scale="  114.270">  1  6  2 -1</clus>
<clus scale="   61.286">  2  3  1 -1</clus>
</clustering>
</event>
<event>
 6    0  0.1622933E+002  0.1951942E+03  0.7546771E-02  0.1153858E+00
         21   -1    0    0  503  502  0.00000000000E+00  0.00000000000E+00  0.30658446878E+03  0.30658446878E+03  0.00000000000E+00 0.  1.
          1   -1    0    0  504    0 -0.00000000000E+00 -0.00000000000E+00 -0.88036901060E+03  0.88036901060E+03  0.00000000000E+00 0.  1.
         21    1    1    2  503  501 -0.22992581426E+01  0.31689487419E+02 -0.30610079830E+01  0.31919899291E+02  0.00000000000E+00 0.  1.
         21    1    1    2  504  505 -0.32173362306E+02 -0.42109981536E+01 -0.57466171874E+02  0.65994080473E+02  0.00000000000E+00 0.  1.
         21    1    1    2  505  502  0.80199397543E+02  0.14998927474E+03  0.25095405325E+03  0.30316111681E+03  0.00000000000E+00 0.  1.
          1    1    1    2  501    0 -0.45726777094E+02 -0.17746776400E+03 -0.76421141522E+03  0.78587838280E+03  0.00000000000E+00 0.  1.
<scales pt_clust_3="31.77279" pt_clust_4="32.42433" pt_clust_5="14000.00000" pt_clust_6="195.19418"></scales>
<clustering>
<clus scale="   31.773">  1  3  2 -1</clus>
<clus scale="   32.424">  2  4  1 -1</clus>
<clus scale="  195.194">  2  6  1 -1</clus>
<clus scale="   31.773">  1  3  2 -1</clus>
</clustering>
</event>
<event>
 6    0  0.1622933E+002  0.7775303E+02  0.7546771E-02  0.1335552E+00
          2   -1    0    0  505    0 -0.00000000000E+00  0.00000000000E+00  0.38345581699E+04  0.38345581699E+04  0.00000000000E+00 0. -1.
         21   -1    0    0  504  502  0.00000000000E+00 -0.00000000000E+00 -0.38148410317E+02  0.38148410317E+02  0.00000000000E+00 0. -1.
         21    1    1    2  503  502 -0.99861041328E+01  0.41070782639E+02 -0.21010826778E+02  0.47201549807E+02  0.00000000000E+00 0. -1.
         21    1    1    2  504  501  0.52476156248E+02 -0.29526592584E+01  0.35075251303E+03  0.35466856439E+03  0.00000000000E+00 0.  1.
         21    1    1    2  505  503 -0.61041484845E+02 -0.93214179880E+02  0.24006523635E+04  0.24032367167E+04  0.00000000000E+00 0.  1.
          2    1    1    2  501    0  0.18551432729E+02  0.55096056500E+02  0.10660157098E+04  0.10675997493E+04  0.00000000000E+00 0. -1.
<scales pt_clust_3="42.26738" pt_clust_4="50.56177" pt_clust_5="77.75303" pt_clust_6="14000.00000"></scales>
<clustering>
<clus scale="   42.267">  2  3  1 -1</clus>
<clus scale="   50.562">  2  4  1 -1</clus>
<clus scale="   77.753">  2  5  1 -1</clus>
<clus scale="   42.267">  2  3  1 -1</clus>
</clustering>
</event>
<event>
 6    0  0.1622933E+002  0.9844862E+02  0.7546771E-02  0.1283593E+00
         21   -1    0    0  504  502  0.00000000000E+00  0.00000000000E+00  0.12471871296E+02  0.12471871296E+02  0.00000000000E+00 0. -1.
          1   -1    0    0  505    0 -0.00000000000E+00 -0.00000000000E+00 -0.30538474341E+04  0.30538474341E+04  0.00000000000E+00 0. -1.
         21    1    1    2  503  502 -0.54192368268E+02 -0.12235805400E+02 -0.13410177602E+03  0.14515444893E+03  0.00000000000E+00 0. -1.
         21    1    1    2  504  501  0.74469909896E+02 -0.88541344755E+01 -0.66945522216E+03  0.67364267803E+03  0.00000000000E+00 0. -1.
         21    1    1    2  505  503 -0.77136785178E+02 -0.61804268002E+02 -0.14413955423E+04  0.14447805925E+04  0.00000000000E+00 0. -1.
          1    1    1    2  501    0  0.56859243550E+02  0.82894207877E+02 -0.79642302229E+03  0.80274158588E+03  0.00000000000E+00 0. -1.
<scales pt_clust_3="55.55653" pt_clust_4="59.47132" pt_clust_5="98.44862" pt_clust_6="14000.00000"></scales>
<clustering>
<clus scale="   55.557">  1  3  2 -1</clus>
<clus scale="   59.471">  1  4  2 -1</clus>
<clus scale="   98.449">  2  5  1 -1</clus>
<clus scale="   55.557">  1  3  2 -1</clus>
</clustering>
</event>
<event>
 6    0  0.1622933E+002  0.1937955E+03  0.7546771E-02  0.1155082E+00
          2   -1    0    0  504    0 -0.00000000000E+00  0.00000000000E+00  0.96778549982E+03  0.96778549982E+03  0.00000000000E+00 0. -1.
         21   -1    0    0  501  502  0.00000000000E+00 -0.00000000000E+00 -0.15516611112E+03  0.15516611112E+03  0.00000000000E+00 0. -1.
         21    1    1    2  503  502 -0.43765881889E+02 -0.16822506155E+02  0.29307212898E+02  0.55293416052E+02  0.00000000000E+00 0. -1.
         21    1    1    2  504  505  0.63628780331E+02 -0.18541093371E+03  0.78875964744E+03  0.81275310978E+03  0.00000000000E+00 0. -1.
         21    1    1    2  505  503 -0.41444211880E+02  0.15272718479E+02  0.41854438213E+02  0.60849590190E+02  0.00000000000E+00 0.  1.
          2    1    1    2  501    0  0.21581313439E+02  0.18696072139E+03 -0.47301909845E+02  0.19405549492E+03  0.00000000000E+00 0. -1.
<scales pt_clust_3="91.78898" pt_clust_4="14000.00000" pt_clust_5="33.08582" pt_clust_6="193.79548"></scales>
<clustering>
<clus scale="   33.086">  3  5 -1 -1</clus>
<clus scale="   91.789">  2  3  1 -1</clus>
<clus scale="  193.795">  2  6  1 -1</clus>
<clus scale="   91.789">  2  3  1 -1</clus>
</clustering>
</event>
<event>
 6    0  0.1622933E+002  0.8250979E+02  0.7546771E-02  0.1322076E+00
          2   -1    0    0  505    0 -0.00000000000E+00  0.00000000000E+00  0.10810562601E+04  0.10810562601E+04  0.00000000000E+00 0.  1.
         21   -1    0    0  504  502  0.00000000000E+00 -0.00000000000E+00 -0.62468737124E+02  0.62468737124E+02  0.00000000000E+00 0. -1.
         21    1    1    2  503  502  0.22755030498E+01 -0.83870478663E+02 -0.96255239902E+01  0.84451677410E+02  0.00000000000E+00 0. -1.
         21    1    1    2  504  501 -0.60213053412E+02  0.70470148382E+02  0.17715504073E+03  0.19993889584E+03  0.00000000000E+00 0.  1.
         21    1    1    2  505  503  0.23650937894E+02 -0.32929210619E+02  0.60742895486E+03  0.60878044891E+03  0.00000000000E+00 0.  1.
          2    1    1    2  501    0  0.34286612468E+02  0.46329540899E+02  0.24362905142E+03  0.25035397511E+03  0.00000000000E+00 0.  1.
<scales pt_clust_3="82.50979" pt_clust_4="14000.00000" pt_clust_5="40.54257" pt_clust_6="54.98924"></scales>
<clustering>
<clus scale="   40.543">  1  5  2 -1</clus>
<clus scale="   54.989">  1  6  2 -1</clus>
<clus scale="   82.510">  2  3  1 -1</clus>
<clus scale="   82.510">  2  3  1 -1</clus>
</clustering>
</event>
<event>
 6    0  0.1622933E+002  0.7558846E+02  0.7546771E-02  0.1342058E+00
          2   -1    0    0  504    0 -0.00000000000E+00  0.00000000000E+00  0.11116954613E+03  0.11116954613E+03  0.00000000000E+00 0. -1.
         21   -1    0    0  503  502  0.00000000000E+00 -0.00000000000E+00 -0.25985835963E+03  0.25985835963E+03  0.00000000000E+00 0.  1.
         21    1    1    2  503  501 -0.44995212549E+02 -0.27077135014E+02 -0.13136310083E+03  0.14147086150E+03  0.00000000000E+00 0.  1.
         21    1    1    2  504  505  0.66038237689E+02 -0.36526295248E+02 -0.11057904430E+02  0.76272513607E+02  0.00000000000E+00 0.  1.
         21    1    1    2  505  502  0.55622919030E+02  0.50249999401E+02  0.22931634634E+01  0.74994867557E+02  0.00000000000E+00 0.  1.
          2    1    1    2  501    0 -0.76665944170E+02  0.13353430861E+02 -0.85609716966E+01  0.78289663096E+02  0.00000000000E+00 0. -1.
<scales pt_clust_3="52.51419" pt_clust_4="75.58846" pt_clust_5="59.85603" pt_clust_6="14000.00000"></scales>
<clustering>
<clus scale="   52.514">  2  3  1 -1</clus>
<clus scale="   59.856">  2  5  1 -1</clus>
<clus scale="   75.588">  2  4  1 -1</clus>
<clus scale="   52.514">  2  3  1 -1</clus>
</clustering>
</event>
<event>
 6    0  0.1622933E+002  0.9379668E+02  0.7546771E-02  0.1293909E+00
         21   -1    0    0  501  502  0.00000000000E+00  0.00000000000E+00  0.18715899223E+03  0.18715899223E+03  0.00000000000E+00 0. -1.
          1   -1    0    0  505    0 -0.00000000000E+00 -0.00000000000E+00 -0.24602048312E+03  0.24602048312E+03  0.00000000000E+00 0. -1.
         21    1    1    2  503  504 -0.16625490000E+02 -0.82768926793E+02  0.17518408512E+02  0.86220628605E+02  0.00000000000E+00 0. -1.
         21    1    1    2  504  502 -0.30596385367E+02  0.55877000985E+01  0.85626469849E+02  0.91100238906E+02  0.00000000000E+00 0. -1.
         21    1    1    2  505  503  0.32858988969E+02 -0.33829021740E+02 -0.13170535782E+03  0.13989430705E+03  0.00000000000E+00 0. -1.
          1    1    1    2  501    0  0.14362886398E+02  0.11101024843E+03 -0.30301011425E+02  0.11596430079E+03  0.00000000000E+00 0. -1.
<scales pt_clust_3="93.79668" pt_clust_4="31.10243" pt_clust_5="46.11699" pt_clust_6="14000.00000"></scales>
<clustering>
<clus scale="   31.102">  1  4  2 -1</clus>
<clus scale="   46.117">  2  5  1 -1</clus>
<clus scale="   93.797">  1  3  2 -1</clus>
<clus scale="   31.102">  1  3  2 -1</clus>
</clustering>
</event>
<event>
 6    0  0.1622933E+002  0.9644555E+02  0.7546771E-02  0.1287953E+00
         21   -1    0    0  504  502  0.00000000000E+00  0.00000000000E+00  0.80777392035E+03  0.80777392035E+03  0.00000000000E+00 0.  1.
          2   -1    0    0  503    0 -0.00000000000E+00 -0.00000000000E+00 -0.13332472473E+04  0.13332472473E+04  0.00000000000E+00 0. -1.
         21    1    1    2  503  505  0.44075348920E+02  0.92999692817E+01 -0.34562391961E+03  0.34854701206E+03  0.00000000000E+00 0. -1.
         21    1    1    2  504  501  0.26417183935E+02  0.38866854861E+02  0.77734086238E+03  0.77876011476E+03  0.00000000000E+00 0.  1.
         21    1    1    2  505  502 -0.12149599617E+03 -0.84325711689E+01 -0.11015499601E+03  0.16421482420E+03  0.00000000000E+00 0.  1.
          2    1    1    2  501    0  0.51003463316E+02 -0.39734252973E+02 -0.84703527373E+03  0.84949921664E+03  0.00000000000E+00 0. -1.
<scales pt_clust_3="45.04582" pt_clust_4="47.01805" pt_clust_5="14000.00000" pt_clust_6="96.44555"></scales>
<clustering>
<clus scale="   45.046">  2  3  1 -1</clus>
<clus scale="   47.018">  1  4  2 -1</clus>
<clus scale="   96.446">  2  6  1 -1</clus>
<clus scale="   47.018">  1  3  2 -1</clus>
</clustering>
</event>
<event>
 6    0  0.1622933E+002  0.6658280E+03  0.7546771E-02  0.9777524E-01
         -1   -1    0    0    0  501 -0.00000000000E+00  0.00000000000E+00  0.28152120518E+04  0.28152120518E+04  0.00000000000E+00 0.  1.
         21   -1    0    0  503  502  0.00000000000E+00 -0.00000000000E+00 -0.78099810295E+03  0.78099810295E+03  0.00000000000E+00 0. -1.
         21    1    1    2  503  504  0.28581334301E+02  0.18617013267E+02 -0.17457343517E+03  0.17787459099E+03  0.00000000000E+00 0. -1.
         21    1    1    2  504  501  0.12629931263E+03 -0.16655310538E+03  0.91152843445E+03  0.93518743581E+03  0.00000000000E+00 0.  1.
         21    1    1    2  505  502  0.14739894202E+03  0.64101573120E+03 -0.34449575168E+03  0.74249911695E+03  0.00000000000E+00 0. -1.
         -1    1    1    2    0  505 -0.30227958895E+03 -0.49307963909E+03  0.16417547013E+04  0.17406490110E+04  0.00000000000E+00 0.  1.
<scales pt_clust_3="34.10991" pt_clust_4="209.07370" pt_clust_5="14000.00000" pt_clust_6="665.82798"></scales>
<clustering>
<clus scale="   34.110">  2  3  1 -1</clus>
<clus scale="  209.074">  1  4  2 -1</clus>
<clus scale="  665.828">  1  6  2 -1</clus>
<clus scale="   34.110">  2  3  1 -1</clus>
</clustering>
</event>
<event>
 6    0  0.1622933E+002  0.7779525E+02  0.7546771E-02  0.1335427E+00
          4   -1    0    0  503    0 -0.00000000000E+00  0.00000000000E+00  0.99642784360E+03  0.99642784360E+03  0.00000000000E+00 0.  1.
         21   -1    0    0  505  502  0.00000000000E+00 -0.00000000000E+00 -0.12528878239E+03  0.12528878239E+03  0.00000000000E+00 0. -1.
         21    1    1    2  503  504 -0.32052818249E+01  0.12901448972E+03  0.47141140800E+03  0.48875733036E+03  0.00000000000E+00 0.  1.
         21    1    1    2  504  502  0.12757726364E+02 -0.40831054740E+02 -0.10417421974E+03  0.11261528614E+03  0.00000000000E+00 0. -1.
         21    1    1    2  505  501 -0.44675862939E+02 -0.33832365435E+02  0.14120013320E+03  0.15191457894E+03  0.00000000000E+00 0. -1.
          4    1    1    2  501    0  0.35123418400E+02 -0.54351069545E+02  0.36270173975E+03  0.36842943056E+03  0.00000000000E+00 0.  1.
<scales pt_clust_3="77.79525" pt_clust_4="42.77774" pt_clust_5="61.96134" pt_clust_6="14000.00000"></scales>
<clustering>
<clus scale="   42.778">  2  4  1 -1</clus>
<clus scale="   61.961">  2  5  1 -1</clus>
<clus scale="   77.795">  2  3  1 -1</clus>
<clus scale="   42.778">  2  3  1 -1</clus>
</clustering>
</event>
<event>
 6    0  0.1622933E+002  0.1079136E+03  0.7546771E-02  0.1264483E+00
         21   -1    0    0  505  502  0.00000000000E+00  0.00000000000E+00  0.11148893932E+03  0.11148893932E+03  0.00000000000E+00 0.  1.
          2   -1    0    0  504    0 -0.00000000000E+00 -0.00000000000E+00 -0.83864676711E+03  0.83864676711E+03  0.00000000000E+00 0.  1.
         21    1    1    2  503  502  0.30006490217E+01 -0.74141332524E+02 -0.16886996054E+03  0.18445325873E+03  0.00000000000E+00 0.  1.
         21    1    1    2  504  503  0.82995790506E+02 -0.47055396580E+02 -0.21000163481E+03  0.23065818479E+03  0.00000000000E+00 0.  1.
         21    1    1    2  505  501 -0.37080899154E+02 -0.17961295475E+01  0.79224672156E+02  0.87491530114E+02  0.00000000000E+00 0.  1.
          2    1    1    2  501    0 -0.48915540374E+02  0.12299285865E+03 -0.42751090459E+03  0.44753273279E+03  0.00000000000E+00 0.  1.
<scales pt_clust_3="74.99204" pt_clust_4="14000.00000" pt_clust_5="37.12437" pt_clust_6="107.91360"></scales>
<clustering>
<clus scale="   37.124">  1  5  2 -1</clus>
<clus scale="   74.992">  1  3  2 -1</clus>
<clus scale="  107.914">  2  6  1 -1</clus>
<clus scale="   37.124">  1  3  2 -1</clus>
</clustering>
</event>
<event>
 6    0  0.1622933E+002  0.9893459E+02  0.7546771E-02  0.1282552E+00
          1   -1    0    0  503    0 -0.00000000000E+00  0.00000000000E+00  0.18773202543E+04  0.18773202543E+04  0.00000000000E+00 0.  1.
         21   -1    0    0  505  502  0.00000000000E+00 -0.00000000000E+00 -0.19314429592E+03  0.19314429592E+03  0.00000000000E+00 0.  1.
         21    1    1    2  503  502  0.96072392422E+02 -0.35159770618E+01  0.91746712664E+02  0.13288990167E+03  0.00000000000E+00 0.  1.
         21    1    1    2  504  501 -0.45819246087E+02  0.31908626398E+02  0.18956130997E+03  0.19761339526E+03  0.00000000000E+00 0. -1.
         21    1    1    2  505  504  0.40876516803E+02  0.12454790666E+02 -0.16422299488E+03  0.16969149502E+03  0.00000000000E+00 0.  1.
          1    1    1    2  501    0 -0.91129663138E+02 -0.40847440003E+02  0.15670909306E+04  0.15702697583E+04  0.00000000000E+00 0.  1.
<scales pt_clust_3="14000.00000" pt_clust_4="52.02910" pt_clust_5="42.73186" pt_clust_6="98.93459"></scales>
<clustering>
<clus scale="   42.732">  2  5  1 -1</clus>
<clus scale="   52.029">  2  4  1 -1</clus>
<clus scale="   98.935">  1  6  2 -1</clus>
<clus scale="   42.732">  2  3  1 -1</clus>
</clustering>
</event>
<event>
 6    0  0.1622933E+002  0.1666194E+03  0.7546771E-02  0.1181420E+00
         21   -1    0    0  503  502  0.00000000000E+00  0.00000000000E+00  0.49795300018E+02  0.49795300018E+02  0.00000000000E+00 0.  1.
          1   -1    0    0  505    0 -0.00000000000E+00 -0.00000000000E+00 -0.17899373623E+04  0.17899373623E+04  0.00000000000E+00 0. -1.
         21    1    1    2  503  501 -0.37182958452E+02 -0.18530091536E+02 -0.26837217858E+02  0.49458800571E+02  0.00000000000E+00 0. -1.
         21    1    1    2  504  502  0.15827176309E+03 -0.10048153795E+03 -0.26856737471E+03  0.32752851055E+03  0.00000000000E+00 0.  1.
         21    1    1    2  505  504  0.85551069144E+01  0.46074247500E+02 -0.78712394078E+03  0.78851767532E+03  0.00000000000E+00 0. -1.
          1    1    1    2  501    0 -0.12964391155E+03  0.72937381989E+02 -0.65761352889E+03  0.67422767584E+03  0.00000000000E+00 0. -1.
<scales pt_clust_3="41.54439" pt_clust_4="14000.00000" pt_clust_5="46.41285" pt_clust_6="166.61943"></scales>
<clustering>
<clus scale="   41.544">  1  3  2 -1</clus>
<clus scale="   46.413">  2  5  1 -1</clus>
<clus scale="  166.619">  2  6  1 -1</clus>
<clus scale="   41.544">  1  3  2 -1</clus>
</clustering>
</event>
<event>
 6    0  0.1622933E+002  0.1489253E+03  0.7546771E-02  0.1201800E+00
         21   -1    0    0  504  502  0.00000000000E+00  0.00000000000E+00  0.23030921544E+04  0.23030921544E+04  0.00000000000E+00 0. -1.
          1   -1    0    0  503    0 -0.00000000000E+00 -0.00000000000E+00 -0.28633129489E+03  0.28633129489E+03  0.00000000000E+00 0. -1.
         21    1    1    2  503  505  0.36907071042E+02 -0.34203835782E+02 -0.26866839970E+03  0.27333997745E+03  0.00000000000E+00 0. -1.
         21    1    1    2  504  501 -0.86062940623E+02  0.81617210820E+02  0.37800329885E+03  0.39617507846E+03  0.00000000000E+00 0. -1.
         21    1    1    2  505  502  0.83604792196E+02 -0.10427490456E+03  0.15892955463E+04  0.15949054362E+04  0.00000000000E+00 0. -1.
          1    1    1    2  501    0 -0.34448922615E+02  0.56861529522E+02  0.31813041407E+03  0.32500295716E+03  0.00000000000E+00 0. -1.
<scales pt_clust_3="50.31932" pt_clust_4="31.72966" pt_clust_5="142.76764" pt_clust_6="31.72966"></scales>
<clustering>
<clus scale="   31.730">  4  6 -1 -1</clus>
<clus scale="   50.319">  2  3  1 -1</clus>
<clus scale="  142.768">  1  5  2 -1</clus>
<clus scale="  142.768">  1  3  2 -1</clus>
</clustering>
</event>
<event>
 6    0  0.1622933E+002  0.8838214E+02  0.7546771E-02  0.1306818E+00
          2   -1    0    0  504    0 -0.00000000000E+00  0.00000000000E+00  0.47231001798E+04  0.47231001798E+04  0.00000000000E+00 0. -1.
         21   -1    0    0  503  502  0.00000000000E+00 -0.00000000000E+00 -0.11798382479E+02  0.11798382479E+02  0.00000000000E+00 0. -1.
         21    1    1    2  503  501  0.66541998681E+02 -0.90661539131E+01  0.13598946538E+03  0.15166795123E+03  0.00000000000E+00 0. -1.
         21    1    1    2  504  505  0.71619415340E+01 -0.41033245879E+02  0.58022527927E+03  0.58171848464E+03  0.00000000000E+00 0. -1.
         21    1    1    2  505  502  0.17120887719E+01 -0.55147344438E+02  0.25603930980E+04  0.25609875004E+04  0.00000000000E+00 0. -1.
          2    1    1    2  501    0 -0.75416028987E+02  0.10524674423E+03  0.14346939546E+04  0.14405246260E+04  0.00000000000E+00 0. -1.
<scales pt_clust_3="67.60959" pt_clust_4="41.65358" pt_clust_5="88.38214" pt_clust_6="14000.00000"></scales>
<clustering>
<clus scale="   41.654">  1  4  2 -1</clus>
<clus scale="   67.610">  2  3  1 -1</clus>
<clus scale="   88.382">  1  5  2 -1</clus>
<clus scale="   67.610">  2  3  1 -1</clus>
</clustering>
</event>
<event>
 6    0  0.1622933E+002  0.1379655E+03  0.7546771E-02  0.1216093E+00
         21   -1    0    0  505  502  0.00000000000E+00  0.00000000000E+00  0.33373375672E+03  0.33373375672E+03  0.00000000000E+00 0.  1.
          1   -1    0    0  504    0 -0.00000000000E+00 -0.00000000000E+00 -0.20718263890E+04  0.20718263890E+04  0.00000000000E+00 0.  1.
         21    1    1    2  503  502  0.10681113698E+03  0.88806896589E+02  0.31332160261E+03  0.34273271003E+03  0.00000000000E+00 0.  1.
         21    1    1    2  504  503  0.20783680633E+02 -0.55173242795E+02 -0.37943585684E+03  0.38398908521E+03  0.00000000000E+00 0.  1.
         21    1    1    2  505  501 -0.10126594872E+03 -0.80790310610E+01 -0.85125884170E+03  0.85729906023E+03  0.00000000000E+00 0.  1.
          1    1    1    2  501    0 -0.26328868896E+02 -0.25554622732E+02 -0.82071953639E+03  0.82153929029E+03  0.00000000000E+00 0.  1.
<scales pt_clust_3="137.96546" pt_clust_4="64.24991" pt_clust_5="14000.00000" pt_clust_6="36.69125"></scales>
<clustering>
<clus scale="   36.691">  2  6  1 -1</clus>
<clus scale="   64.250">  2  4  1 -1</clus>
<clus scale="  137.965">  1  3  2 -1</clus>
<clus scale="  137.965">  1  3  2 -1</clus>
</clustering>
</event>
<event>
 6    0  0.1622933E+002  0.9012100E+02  0.7546771E-02  0.1302559E+00
          1   -1    0    0  505    0 -0.00000000000E+00  0.00000000000E+00  0.71919768484E+03  0.71919768484E+03  0.00000000000E+00 0. -1.
         21   -1    0    0  503  502  0.00000000000E+00 -0.00000000000E+00 -0.58036725555E+02  0.58036725555E+02  0.00000000000E+00 0. -1.
         21    1    1    2  503  504 -0.60941217799E+02 -0.23199340884E+02 -0.46538561087E+01  0.65373540680E+02  0.00000000000E+00 0. -1.
         21    1    1    2  504  501 -0.74389712902E+02  0.58668440198E+01  0.14098232216E+03  0.15951258385E+03  0.00000000000E+00 0.  1.
         21    1    1    2  505  502  0.42918649124E+02  0.46817042172E+02  0.11687801708E+03  0.13301998630E+03  0.00000000000E+00 0. -1.
          1    1    1    2  501    0  0.92412281577E+02 -0.29484545307E+02  0.40795447616E+03  0.41932829956E+03  0.00000000000E+00 0. -1.
<scales pt_clust_3="62.32448" pt_clust_4="14000.00000" pt_clust_5="63.51256" pt_clust_6="90.12100"></scales>
<clustering>
<clus scale="   63.513">  1  5  2 -1</clus>
<clus scale="   62.324">  2  3  1 -1</clus>
<clus scale="   90.121">  1  6  2 -1</clus>
<clus scale="   62.324">  2  3  1 -1</clus>
</clustering>
</event>
<event>
 6    0  0.1622933E+002  0.3327649E+03  0.7546771E-02  0.1069920E+00
         -1   -1    0    0    0  501 -0.00000000000E+00  0.00000000000E+00  0.81067764099E+03  0.81067764099E+03  0.00000000000E+00 0.  1.
         21   -1    0    0  503  502  0.00000000000E+00 -0.00000000000E+00 -0.30296013036E+03  0.30296013036E+03  0.00000000000E+00 0.  1.
         21    1    1    2  503  501  0.23858447997E+03 -0.21414829218E+03 -0.11461360283E+03  0.34046780036E+03  0.00000000000E+00 0.  1.
         21    1    1    2  504  502  0.32262153594E+02  0.85056223499E+02  0.32441389111E+02  0.96580802636E+02  0.00000000000E+00 0. -1.
         21    1    1    2  505  504 -0.28431192607E+02  0.77796342344E+02  0.12868015373E+03  0.15303328252E+03  0.00000000000E+00 0. -1.
         -1    1    1    2    0  505 -0.24241544095E+03  0.51295726341E+02  0.46120957062E+03  0.52355588583E+03  0.00000000000E+00 0.  1.
<scales pt_clust_3="301.58272" pt_clust_4="90.96927" pt_clust_5="81.31520" pt_clust_6="81.31520"></scales>
<clustering>
<clus scale="   81.315">  5  6 -1 -1</clus>
<clus scale="   90.969">  2  4  1 -1</clus>
<clus scale="  301.583">  2  3  1 -1</clus>
<clus scale="   90.969">  2  3  1 -1</clus>
</clustering>
</event>
<event>
 6    0  0.1622933E+002  0.7434488E+02  0.7546771E-02  0.1345912E+00
         21   -1    0    0  503  502  0.00000000000E+00  0.00000000000E+00  0.13525660853E+02  0.13525660853E+02  0.00000000000E+00 0.  1.
         -3   -1    0    0    0  501 -0.00000000000E+00 -0.00000000000E+00 -0.19245204447E+04  0.19245204447E+04  0.00000000000E+00 0.  1.
         21    1    1    2  503  501  0.66374816855E+02  0.43200310614E+01 -0.68304251538E+03  0.68627352914E+03  0.00000000000E+00 0.  1.
         21    1    1    2  504  502  0.57704814261E+02  0.19498519418E+02 -0.22548118109E+03  0.23356326953E+03  0.00000000000E+00 0.  1.
         21    1    1    2  505  504 -0.94548859919E+02  0.64450016128E+00 -0.29679016444E+03  0.31148724532E+03  0.00000000000E+00 0.  1.
         -3    1    1    2    0  505 -0.29530771197E+02 -0.24463050641E+02 -0.70568092299E+03  0.70672206160E+03  0.00000000000E+00 0.  1.
<scales pt_clust_3="50.66427" pt_clust_4="74.34488" pt_clust_5="14000.00000" pt_clust_6="38.34719"></scales>
<clustering>
<clus scale="   38.347">  2  6  1 -1</clus>
<clus scale="   50.664">  2  3  1 -1</clus>
<clus scale="   74.345">  1  4  2 -1</clus>
<clus scale="   74.345">  1  3  2 -1</clus>
</clustering>
</event>
<event>
 6    0  0.1622933E+002  0.1957292E+03  0.7546771E-02  0.1153393E+00
          2   -1    0    0  505    0 -0.00000000000E+00  0.00000000000E+00  0.86047518571E+02  0.86047518571E+02  0.00000000000E+00 0.  1.
         21   -1    0    0  501  502  0.00000000000E+00 -0.00000000000E+00 -0.10940088450E+04  0.10940088450E+04  0.00000000000E+00 0. -1.
         21    1    1    2  503  502  0.18698461605E+02 -0.71114111741E+02 -0.61509288433E+03  0.61947244144E+03  0.00000000000E+00 0. -1.
         21    1    1    2  504  503  0.98278899686E+02 -0.58223798285E+02 -0.13150182921E+03  0.17418807047E+03  0.00000000000E+00 0. -1.
         21    1    1    2  505  504  0.29422487935E+02 -0.40724746327E+02 -0.13460205721E+02  0.52013122361E+02  0.00000000000E+00 0. -1.
          2    1    1    2  501    0 -0.14639984923E+03  0.17006265635E+03 -0.24790640720E+03  0.33438272933E+03  0.00000000000E+00 0.  1.
<scales pt_clust_3="73.53128" pt_clust_4="42.22876" pt_clust_5="42.22876" pt_clust_6="185.08212"></scales>
<clustering>
<clus scale="   42.229">  4  5 -1 -1</clus>
<clus scale="   73.531">  2  3  1 -1</clus>
<clus scale="  185.082">  2  6  1 -1</clus>
<clus scale="   73.531">  2  3  1 -1</clus>
</clustering>
</event>
<event>
 6    0  0.1622933E+002  0.7522351E+02  0.7546771E-02  0.1343180E+00
          2   -1    0    0  505    0 -0.00000000000E+00  0.00000000000E+00  0.42151910094E+03  0.42151910094E+03  0.00000000000E+00 0. -1.
         21   -1    0    0  504  502  0.00000000000E+00 -0.00000000000E+00 -0.63160094491E+03  0.63160094491E+03  0.00000000000E+00 0.  1.
         21    1    1    2  503  502  0.89020333631E+02  0.43864258926E+02 -0.39763657322E+02  0.10691043660E+03  0.00000000000E+00 0.  1.
         21    1    1    2  504  501 -0.43751777502E+02  0.13292082192E+02 -0.54744714743E+03  0.54935350796E+03  0.00000000000E+00 0.  1.
         21    1    1    2  505  503 -0.25394081781E+02  0.24464769066E+02  0.16444002017E+03  0.16817819284E+03  0.00000000000E+00 0. -1.
          2    1    1    2  501    0 -0.19874474347E+02 -0.81621110184E+02  0.21268894060E+03  0.22867790845E+03  0.00000000000E+00 0. -1.
<scales pt_clust_3="75.22351" pt_clust_4="45.84368" pt_clust_5="35.26166" pt_clust_6="14000.00000"></scales>
<clustering>
<clus scale="   35.262">  1  5  2 -1</clus>
<clus scale="   45.844">  2  4  1 -1</clus>
<clus scale="   75.224">  2  3  1 -1</clus>
<clus scale="   45.844">  2  3  1 -1</clus>
</clustering>
</event>
<event>
 6    0  0.1856983E+002  0.1096090E+03  0.7546771E-02  0.1261296E+00
         21   -1    0    0  501  502  0.00000000000E+00  0.00000000000E+00  0.25802249946E+04  0.25802249946E+04  0.00000000000E+00 0. -1.
         -4   -1    0    0    0  501 -0.00000000000E+00 -0.00000000000E+00 -0.79847472706E+03  0.79847472706E+03  0.00000000000E+00 0.  1.
         21    1    1    2  503  502  0.35871212614E+02  0.12111988731E+02  0.24537628484E+04  0.24540549221E+04  0.00000000000E+00 0. -1.
         21    1    1    2  504  503 -0.26049763219E+02 -0.11364814948E+03  0.94677922867E+02  0.15019454425E+03  0.00000000000E+00 0.  1.
         21    1    1    2  505  504  0.90910068154E+01  0.54338018627E+02 -0.30179758462E+03  0.30678502042E+03  0.00000000000E+00 0.  1.
         -4    1    1    2    0  505 -0.18912456210E+02  0.47198142121E+02 -0.46489291917E+03  0.46766523488E+03  0.00000000000E+00 0.  1.
<scales pt_clust_3="37.86085" pt_clust_4="102.28055" pt_clust_5="37.85650" pt_clust_6="37.85650"></scales>
<clustering>
<clus scale="   37.857">  5  6 -1 -1</clus>
<clus scale="   37.861">  1  3  2 -1</clus>
<clus scale="  102.281">  1  4  2 -1</clus>
<clus scale="   37.861">  1  3  2 -1</clus>
</clustering>
</event>
<event>
 6    0  0.1622933E+002  0.9082900E+02  0.7546771E-02  0.1300856E+00
         21   -1    0    0  504  502  0.00000000000E+00  0.00000000000E+00  0.92169572236E+02  0.92169572236E+02  0.00000000000E+00 0.  1.
          1   -1    0    0  505    0 -0.00000000000E+00 -0.00000000000E+00 -0.12780079707E+04  0.12780079707E+04  0.00000000000E+00 0.  1.
         21    1    1    2  503  501  0.23902495514E+02 -0.56670083767E+02 -0.26075215118E+03  0.26790765579E+03  0.00000000000E+00 0.  1.
         21    1    1    2  504  503  0.15413087691E+02 -0.55707224925E+02  0.70169358636E+02  0.90909829349E+02  0.00000000000E+00 0.  1.
         21    1    1    2  505  502 -0.26738482557E+02 -0.20034354313E+02 -0.83216099230E+02  0.89672966792E+02  0.00000000000E+00 0.  1.
          1    1    1    2  501    0 -0.12577100648E+02  0.13241166300E+03 -0.91203950667E+03  0.92168709098E+03  0.00000000000E+00 0.  1.
<scales pt_clust_3="14000.00000" pt_clust_4="57.90678" pt_clust_5="33.41140" pt_clust_6="90.82900"></scales>
<clustering>
<clus scale="   33.411">  2  5  1 -1</clus>
<clus scale="   57.907">  1  4  2 -1</clus>
<clus scale="   90.829">  2  6  1 -1</clus>
<clus scale="   57.907">  1  3  2 -1</clus>
</clustering>
</event>
<event>
 6    0  0.1622933E+002  0.1404293E+03  0.7546771E-02  0.1212752E+00
          2   -1    0    0  503    0 -0.00000000000E+00  0.00000000000E+00  0.12069639327E+04  0.12069639327E+04  0.00000000000E+00 0.  1.
         21   -1    0    0  504  502  0.00000000000E+00 -0.00000000000E+00 -0.94349021701E+02  0.94349021701E+02  0.00000000000E+00 0. -1.
         21    1    1    2  503  505  0.12959424138E+03  0.48727792914E+02  0.24171309709E+03  0.27855751023E+03  0.00000000000E+00 0. -1.
         21    1    1    2  504  501 -0.11342872116E+03 -0.60934618554E+02  0.73774555889E+03  0.74889759793E+03  0.00000000000E+00 0.  1.
         21    1    1    2  505  502  0.20972126220E+02 -0.21751206440E+02 -0.63790069795E+02  0.70584120482E+02  0.00000000000E+00 0. -1.
          2    1    1    2  501    0 -0.37137646438E+02  0.33958032081E+02  0.19694632477E+03  0.20327372571E+03  0.00000000000E+00 0.  1.
<scales pt_clust_3="140.42932" pt_clust_4="14000.00000" pt_clust_5="30.21498" pt_clust_6="46.81067"></scales>
<clustering>
<clus scale="   30.215">  2  5  1 -1</clus>
<clus scale="   46.811">  1  6  2 -1</clus>
<clus scale="  140.429">  2  3  1 -1</clus>
<clus scale="   30.215">  2  3  1 -1</clus>
</clustering>
</event>
<event>
 6    0  0.1622933E+002  0.7555094E+02  0.7546771E-02  0.1342173E+00
          2   -1    0    0  503    0 -0.00000000000E+00  0.00000000000E+00  0.39201767732E+04  0.39201767732E+04  0.00000000000E+00 0. -1.
         21   -1    0    0  505  502  0.00000000000E+00 -0.00000000000E+00 -0.30616176665E+02  0.30616176665E+02  0.00000000000E+00 0.  1.
         21    1    1    2  503  504  0.43059090492E+02 -0.49604439433E+00  0.50478716304E+03  0.50662057923E+03  0.00000000000E+00 0.  1.
         21    1    1    2  504  502  0.28878832464E+02  0.48038444954E+02  0.94449475516E+03  0.94615644673E+03  0.00000000000E+00 0.  1.
         21    1    1    2  505  501  0.59651345907E+02 -0.45351140286E+02  0.24765054030E+02  0.78919686358E+02  0.00000000000E+00 0.  1.
          2    1    1    2  501    0 -0.13158926886E+03 -0.21912602733E+01  0.24155136243E+04  0.24190962376E+04  0.00000000000E+00 0. -1.
<scales pt_clust_3="43.06195" pt_clust_4="62.92190" pt_clust_5="14000.00000" pt_clust_6="75.55094"></scales>
<clustering>
<clus scale="   43.062">  1  3  2 -1</clus>
<clus scale="   62.922">  1  4  2 -1</clus>
<clus scale="   75.551">  1  6  2 -1</clus>
<clus scale="   75.551">  2  3  1 -1</clus>
</clustering>
</event>
<event>
 6    0  0.3987306E+002  0.1118266E+03  0.7546771E-02  0.1257224E+00
         21   -1    0    0  504  502  0.00000000000E+00  0.00000000000E+00  0.22730199497E+03  0.22730199497E+03  0.00000000000E+00 0. -1.
          1   -1    0    0  505    0 -0.00000000000E+00 -0.00000000000E+00 -0.54635995752E+04  0.54635995752E+04  0.00000000000E+00 0.  1.
         21    1    1    2  503  502  0.53698184494E+02  0.74043067161E+02 -0.26102564436E+03  0.27658679980E+03  0.00000000000E+00 0.  1.
         21    1    1    2  504  501 -0.11881310179E+02  0.43637470177E+02  0.21403641157E+03  0.21876238208E+03  0.00000000000E+00 0. -1.
         21    1    1    2  505  503 -0.63017044664E+01 -0.41286041687E+02 -0.15467549988E+03  0.16021472773E+03  0.00000000000E+00 0. -1.
          1    1    1    2  501    0 -0.35515169848E+02 -0.76394495651E+02 -0.50346328476E+04  0.50353376606E+04  0.00000000000E+00 0.  1.
<scales pt_clust_3="14000.00000" pt_clust_4="45.20903" pt_clust_5="41.76420" pt_clust_6="111.82661"></scales>
<clustering>
<clus scale="   41.764">  2  5  1 -1</clus>
<clus scale="   45.209">  1  4  2 -1</clus>
<clus scale="  111.827">  2  6  1 -1</clus>
<clus scale="   45.209">  1  3  2 -1</clus>
</clustering>
</event>
<event>
 6    0  0.1622933E+002  0.1012418E+03  0.7546771E-02  0.1277706E+00
          2   -1    0    0  503    0 -0.00000000000E+00  0.00000000000E+00  0.95822207603E+03  0.95822207603E+03  0.00000000000E+00 0.  1.
         21   -1    0    0  504  502  0.00000000000E+00 -0.00000000000E+00 -0.12121190938E+04  0.12121190938E+04  0.00000000000E+00 0. -1.
         21    1    1    2  503  502  0.21987112597E+02 -0.28907586478E+02  0.17270932736E+03  0.17648680810E+03  0.00000000000E+00 0. -1.
         21    1    1    2  504  505  0.10069320998E+03  0.16525527813E+02 -0.11947638878E+04  0.11991134072E+04  0.00000000000E+00 0. -1.
         21    1    1    2  505  501 -0.68085309403E+02  0.11319972063E+02  0.85403094121E+02  0.10980637326E+03  0.00000000000E+00 0.  1.
          2    1    1    2  501    0 -0.54595013177E+02  0.10620866023E+01  0.68275444861E+03  0.68493458125E+03  0.00000000000E+00 0.  1.
<scales pt_clust_3="36.31916" pt_clust_4="14000.00000" pt_clust_5="101.24180" pt_clust_6="42.86753"></scales>
<clustering>
<clus scale="   36.319">  1  3  2 -1</clus>
<clus scale="   42.868">  1  6  2 -1</clus>
<clus scale="  101.242">  1  5  2 -1</clus>
<clus scale="  101.242">  2  3  1 -1</clus>
</clustering>
</event>
<event>
 6    0  0.1622933E+002  0.1448977E+03  0.7546771E-02  0.1206887E+00
         21   -1    0    0  504  502  0.00000000000E+00  0.00000000000E+00  0.33226182062E+03  0.33226182062E+03  0.00000000000E+00 0.  1.
          2   -1    0    0  503    0 -0.00000000000E+00 -0.00000000000E+00 -0.80744029121E+03  0.80744029121E+03  0.00000000000E+00 0. -1.
         21    1    1    2  503  505 -0.28925427094E+02 -0.14733888939E+02 -0.26158510149E+02  0.41689752566E+02  0.00000000000E+00 0. -1.
         21    1    1    2  504  501  0.12427088727E+03  0.97829347333E+01 -0.12684149261E+03  0.17784184964E+03  0.00000000000E+00 0. -1.
         21    1    1    2  505  502  0.43146212935E+02 -0.10003364321E+02  0.28948124039E+03  0.29284987882E+03  0.00000000000E+00 0.  1.
          2    1    1    2  501    0 -0.13849167311E+03  0.14954318527E+02 -0.61165970822E+03  0.62732063080E+03  0.00000000000E+00 0. -1.
<scales pt_clust_3="32.46179" pt_clust_4="144.89770" pt_clust_5="44.23658" pt_clust_6="14000.00000"></scales>
<clustering>
<clus scale="   32.462">  2  3  1 -1</clus>
<clus scale="   44.237">  1  5  2 -1</clus>
<clus scale="  144.898">  1  4  2 -1</clus>
<clus scale="   44.237">  1  3  2 -1</clus>
</clustering>
</event>
<event>
 6    0  0.1622933E+002  0.1071787E+03  0.7546771E-02  0.1265886E+00
         21   -1    0    0  503  502  0.00000000000E+00  0.00000000000E+00  0.20708379392E+03  0.20708379392E+03  0.00000000000E+00 0. -1.
          1   -1    0    0  504    0 -0.00000000000E+00 -0.00000000000E+00 -0.17998551680E+04  0.17998551680E+04  0.00000000000E+00 0.  1.
         21    1    1    2  503  501  0.95932901460E+02 -0.54116631923E+02  0.18606875191E+03  0.21622514163E+03  0.00000000000E+00 0. -1.
         21    1    1    2  504  505  0.10194427115E+02  0.33435485876E+02 -0.33491321861E+03  0.33673241908E+03  0.00000000000E+00 0.  1.
         21    1    1    2  505  502 -0.55120700364E+02  0.30996442344E+02 -0.21894607372E+03  0.22789570914E+03  0.00000000000E+00 0.  1.
          1    1    1    2  501    0 -0.51006628212E+02 -0.10315296297E+02 -0.12249808337E+04  0.12260856921E+04  0.00000000000E+00 0.  1.
<scales pt_clust_3="14000.00000" pt_clust_4="34.95509" pt_clust_5="107.17869" pt_clust_6="46.00323"></scales>
<clustering>
<clus scale="   34.955">  2  4  1 -1</clus>
<clus scale="   46.003">  2  6  1 -1</clus>
<clus scale="  107.179">  2  5  1 -1</clus>
<clus scale="  107.179">  1  3  2 -1</clus>
</clustering>
</event>
<event>
 6    0  0.1622933E+002  0.1596334E+03  0.7546771E-02  0.1189111E+00
          3   -1    0    0  503    0 -0.00000000000E+00  0.00000000000E+00  0.22709922944E+03  0.22709922944E+03  0.00000000000E+00 0. -1.
         21   -1    0    0  505  502  0.00000000000E+00 -0.00000000000E+00 -0.66211827270E+03  0.66211827270E+03  0.00000000000E+00 0. -1.
         21    1    1    2  503  504 -0.97861770310E+00 -0.36845242741E+02  0.93491807689E+00  0.36870091905E+02  0.00000000000E+00 0. -1.
         21    1    1    2  504  502 -0.11247224416E+03 -0.48813272405E+02 -0.33240369101E+02  0.12703410333E+03  0.00000000000E+00 0. -1.
         21    1    1    2  505  501 -0.21695432452E+02 -0.71507632155E+02 -0.49342529992E+03  0.49905166050E+03  0.00000000000E+00 0. -1.
          3    1    1    2  501    0  0.13514629432E+03  0.15716614730E+03  0.90711707683E+02  0.22626164641E+03  0.00000000000E+00 0. -1.
<scales pt_clust_3="36.85824" pt_clust_4="14000.00000" pt_clust_5="75.20676" pt_clust_6="159.63337"></scales>
<clustering>
<clus scale="   36.858">  1  3  2 -1</clus>
<clus scale="   75.207">  2  5  1 -1</clus>
<clus scale="  159.633">  1  6  2 -1</clus>
<clus scale="   75.207">  2  3  1 -1</clus>
</clustering>
</event>
<event>
 6    0  0.1622933E+002  0.9941599E+02  0.7546771E-02  0.1281529E+00
         -1   -1    0    0    0  501 -0.00000000000E+00  0.00000000000E+00  0.25028456218E+03  0.25028456218E+03  0.00000000000E+00 0. -1.
         21   -1    0    0  504  502  0.00000000000E+00 -0.00000000000E+00 -0.19494219249E+04  0.19494219249E+04  0.00000000000E+00 0.  1.
         21    1    1    2  503  501  0.78289779327E+01 -0.40558168723E+02 -0.41996811377E+02  0.58906621966E+02  0.00000000000E+00 0. -1.
         21    1    1    2  504  503  0.30775755649E+02  0.39069816449E+02  0.41096096859E+02  0.64517337749E+02  0.00000000000E+00 0. -1.
         21    1    1    2  505  502 -0.97310728744E+02  0.21610128245E+02 -0.18808102735E+04  0.18834499357E+04  0.00000000000E+00 0.  1.
         -1    1    1    2    0  505  0.58705995162E+02 -0.20121775971E+02  0.18257362529E+03  0.19283259161E+03  0.00000000000E+00 0. -1.
<scales pt_clust_3="41.30688" pt_clust_4="44.36379" pt_clust_5="99.41599" pt_clust_6="14000.00000"></scales>
<clustering>
<clus scale="   41.307">  1  3  2 -1</clus>
<clus scale="   44.364">  1  4  2 -1</clus>
<clus scale="   99.416">  2  5  1 -1</clus>
<clus scale="   99.416">  2  3  1 -1</clus>
</clustering>
</event>
<event>
 6    0  0.1622933E+002  0.1124633E+03  0.7546771E-02  0.1256075E+00
          2   -1    0    0  504    0 -0.00000000000E+00  0.00000000000E+00  0.25498407330E+04  0.25498407330E+04  0.00000000000E+00 0. -1.
         21   -1    0    0  503  502  0.00000000000E+00 -0.00000000000E+00 -0.43981320982E+02  0.43981320982E+02  0.00000000000E+00 0.  1.
         21    1    1    2  503  501 -0.12693942863E+03  0.32905197623E+02  0.10023656824E+04  0.10109071826E+04  0.00000000000E+00 0. -1.
         21    1    1    2  504  505  0.63766605978E+02 -0.53100232899E+01  0.31506590039E+03  0.32149789731E+03  0.00000000000E+00 0. -1.
         21    1    1    2  505  502  0.11091463920E+03  0.11340258701E+02  0.51484819208E+02  0.12280612878E+03  0.00000000000E+00 0.  1.
          2    1    1    2  501    0 -0.47741816553E+02 -0.38935433034E+02  0.11369430100E+04  0.11386108453E+04  0.00000000000E+00 0. -1.
<scales pt_clust_3="14000.00000" pt_clust_4="54.84527" pt_clust_5="112.46325" pt_clust_6="61.60559"></scales>
<clustering>
<clus scale="   61.606">  1  6  2 -1</clus>
<clus scale="   54.845">  1  4  2 -1</clus>
<clus scale="  112.463">  2  5  1 -1</clus>
<clus scale="  112.463">  2  3  1 -1</clus>
</clustering>
</event>
<event>
 6    0  0.1622933E+002  0.9141646E+02  0.7546771E-02  0.1299457E+00
          1   -1    0    0  505    0 -0.00000000000E+00  0.00000000000E+00  0.19844222727E+03  0.19844222727E+03  0.00000000000E+00 0.  1.
         21   -1    0    0  504  502  0.00000000000E+00 -0.00000000000E+00 -0.10612059610E+03  0.10612059610E+03  0.00000000000E+00 0.  1.
         21    1    1    2  503  502 -0.17318800273E+02 -0.69078810395E+02 -0.31896591713E+02  0.78033425219E+02  0.00000000000E+00 0.  1.
         21    1    1    2  504  501  0.13056085247E+02  0.46809254337E+02  0.12079869579E+02  0.50074852997E+02  0.00000000000E+00 0. -1.
         21    1    1    2  505  503  0.34378567041E+02 -0.47624691742E+02  0.61491169601E+02  0.85036233890E+02  0.00000000000E+00 0.  1.
          1    1    1    2  501    0 -0.30115852016E+02  0.69894247800E+02  0.50647183703E+02  0.91418311269E+02  0.00000000000E+00 0.  1.
<scales pt_clust_3="78.62620" pt_clust_4="37.26562" pt_clust_5="58.73668" pt_clust_6="37.26562"></scales>
<clustering>
<clus scale="   37.266">  4  6 -1 -1</clus>
<clus scale="   58.737">  1  5  2 -1</clus>
<clus scale="   78.626">  2  3  1 -1</clus>
<clus scale="   78.626">  2  3  1 -1</clus>
</clustering>
</event>
<event>
 6    0  0.1622933E+002  0.1673751E+03  0.7546771E-02  0.1180613E+00
         21   -1    0    0  505  502  0.00000000000E+00  0.00000000000E+00  0.16670130229E+04  0.16670130229E+04  0.00000000000E+00 0. -1.
          2   -1    0    0  503    0 -0.00000000000E+00 -0.00000000000E+00 -0.19680901425E+03  0.19680901425E+03  0.00000000000E+00 0.  1.
         21    1    1    2  503  504 -0.29669449158E+02  0.17107723169E+02 -0.38909582671E+02  0.51835374302E+02  0.00000000000E+00 0.  1.
         21    1    1    2  504  502  0.12932383862E+03  0.26435439809E+02  0.31752144115E+03  0.34386531274E+03  0.00000000000E+00 0. -1.
         21    1    1    2  505  501  0.40560528809E+02  0.22807554187E+02  0.12857947145E+04  0.12866364634E+04  0.00000000000E+00 0. -1.
          2    1    1    2  501    0 -0.14021491827E+03 -0.66350717165E+02 -0.94202564361E+02  0.18148488672E+03  0.00000000000E+00 0.  1.
<scales pt_clust_3="34.24836" pt_clust_4="167.37510" pt_clust_5="46.48473" pt_clust_6="14000.00000"></scales>
<clustering>
<clus scale="   34.248">  2  3  1 -1</clus>
<clus scale="   46.485">  1  5  2 -1</clus>
<clus scale="  167.375">  1  4  2 -1</clus>
<clus scale="   46.485">  1  3  2 -1</clus>
</clustering>
</event>
<event>
 6    0  0.1622933E+002  0.1047423E+03  0.7546771E-02  0.1270628E+00
          2   -1    0    0  505    0 -0.00000000000E+00  0.00000000000E+00  0.16584870124E+03  0.16584870124E+03  0.00000000000E+00 0.  1.
         21   -1    0    0  503  502  0.00000000000E+00 -0.00000000000E+00 -0.13970228709E+04  0.13970228709E+04  0.00000000000E+00 0. -1.
         21    1    1    2  503  504 -0.10278127720E+03  0.68549365674E+01 -0.12196845959E+04  0.12240267541E+04  0.00000000000E+00 0. -1.
         21    1    1    2  504  501  0.16183329042E+03 -0.19794696796E+02 -0.18594539867E+02  0.16409631568E+03  0.00000000000E+00 0.  1.
         21    1    1    2  505  502 -0.79117771225E+02 -0.22595742156E+02 -0.56048379048E+02  0.99557069468E+02  0.00000000000E+00 0. -1.
          2    1    1    2  501    0  0.20065758004E+02  0.35535502385E+02  0.63153345201E+02  0.75191432917E+02  0.00000000000E+00 0.  1.
<scales pt_clust_3="104.74230" pt_clust_4="14000.00000" pt_clust_5="76.01763" pt_clust_6="40.80939"></scales>
<clustering>
<clus scale="   40.809">  1  6  2 -1</clus>
<clus scale="   76.018">  1  5  2 -1</clus>
<clus scale="  104.742">  2  3  1 -1</clus>
<clus scale="  104.742">  2  3  1 -1</clus>
</clustering>
</event>
<event>
 6    0  0.1622933E+002  0.1087048E+03  0.7546771E-02  0.1262987E+00
         21   -1    0    0  504  502  0.00000000000E+00  0.00000000000E+00  0.37195908864E+02  0.37195908864E+02  0.00000000000E+00 0. -1.
          1   -1    0    0  503    0 -0.00000000000E+00 -0.00000000000E+00 -0.16753361093E+04  0.16753361093E+04  0.00000000000E+00 0. -1.
         21    1    1    2  503  505  0.18022451377E+02  0.33989828856E+02 -0.30715560219E+03  0.30955561887E+03  0.00000000000E+00 0.  1.
         21    1    1    2  504  501  0.43331462233E+02 -0.69737035992E+02 -0.47294133342E+03  0.48001497337E+03  0.00000000000E+00 0. -1.
         21    1    1    2  505  502 -0.82484378044E+02  0.80118152686E+02 -0.72617500556E+02  0.13599960440E+03  0.00000000000E+00 0. -1.
          1    1    1    2  501    0  0.21130464434E+02 -0.44370945550E+02 -0.78542576424E+03  0.78696182148E+03  0.00000000000E+00 0. -1.
<scales pt_clust_3="38.47229" pt_clust_4="14000.00000" pt_clust_5="108.70480" pt_clust_6="40.10149"></scales>
<clustering>
<clus scale="   38.472">  2  3  1 -1</clus>
<clus scale="   40.101">  2  6  1 -1</clus>
<clus scale="  108.705">  1  5  2 -1</clus>
<clus scale="  108.705">  1  3  2 -1</clus>
</clustering>
</event>
<event>
 6    0  0.1622933E+002  0.8419176E+02  0.7546771E-02  0.1317560E+00
         21   -1    0    0  504  502  0.00000000000E+00  0.00000000000E+00  0.88560542973E+03  0.88560542973E+03  0.00000000000E+00 0.  1.
          3   -1    0    0  505    0 -0.00000000000E+00 -0.00000000000E+00 -0.10319167282E+04  0.10319167282E+04  0.00000000000E+00 0. -1.
         21    1    1    2  503  501  0.98269581228E+02 -0.40615170928E+02 -0.58549387015E+03  0.59507106692E+03  0.00000000000E+00 0. -1.
         21    1    1    2  504  503 -0.82652952416E+02  0.15656034384E+02  0.86242281923E+03  0.86651586315E+03  0.00000000000E+00 0.  1.
         21    1    1    2  505  502  0.11653262451E+01  0.71746017371E+02 -0.73638673790E+02  0.10281781592E+03  0.00000000000E+00 0. -1.
          3    1    1    2  501    0 -0.16781955057E+02 -0.46786880827E+02 -0.34960157374E+03  0.35311741191E+03  0.00000000000E+00 0. -1.
<scales pt_clust_3="14000.00000" pt_clust_4="84.19176" pt_clust_5="65.68828" pt_clust_6="49.70560"></scales>
<clustering>
<clus scale="   49.706">  2  6  1 -1</clus>
<clus scale="   65.688">  2  5  1 -1</clus>
<clus scale="   84.192">  1  4  2 -1</clus>
<clus scale="   84.192">  1  3  2 -1</clus>
</clustering>
</event>
<event>
 6    0  0.1622933E+002  0.1344620E+03  0.7546771E-02  0.1220981E+00
          1   -1    0    0  505    0 -0.00000000000E+00  0.00000000000E+00  0.36419416231E+04  0.36419416231E+04  0.00000000000E+00 0. -1.
         21   -1    0    0  503  502  0.00000000000E+00 -0.00000000000E+00 -0.79455574946E+01  0.79455574946E+01  0.00000000000E+00 0. -1.
         21    1    1    2  503  504  0.99953859355E+02  0.99825337394E+01  0.91702745357E+03  0.92251275090E+03  0.00000000000E+00 0. -1.
         21    1    1    2  504  501 -0.48445320366E+02  0.40933580740E+02  0.41878130825E+03  0.42355671549E+03  0.00000000000E+00 0. -1.
         21    1    1    2  505  502  0.39232692654E+02 -0.42289107867E+02  0.13573735449E+04  0.13585987315E+04  0.00000000000E+00 0. -1.
          1    1    1    2  501    0 -0.90741231643E+02 -0.86270066132E+01  0.94081375888E+03  0.94521898270E+03  0.00000000000E+00 0. -1.
<scales pt_clust_3="115.96758" pt_clust_4="56.76861" pt_clust_5="57.68512" pt_clust_6="56.76861"></scales>
<clustering>
<clus scale="   56.769">  4  6 -1 -1</clus>
<clus scale="   57.685">  1  5  2 -1</clus>
<clus scale="  115.968">  2  3  1 -1</clus>
<clus scale="  115.968">  2  3  1 -1</clus>
</clustering>
</event>
<event>
 6    0  0.1622933E+002  0.3520114E+03  0.7546771E-02  0.1061792E+00
          2   -1    0    0  503    0 -0.00000000000E+00  0.00000000000E+00  0.95201688828E+03  0.95201688828E+03  0.00000000000E+00 0.  1.
         21   -1    0    0  504  502  0.00000000000E+00 -0.00000000000E+00 -0.29787826234E+03  0.29787826234E+03  0.00000000000E+00 0. -1.
         21    1    1    2  503  505  0.17087666254E+03  0.12530445835E+02  0.35351619651E+03  0.39284799486E+03  0.00000000000E+00 0.  1.
         21    1    1    2  504  501  0.17375792556E+03  0.26697936678E+03  0.14922011440E+03  0.35176191027E+03  0.00000000000E+00 0. -1.
         21    1    1    2  505  502 -0.21563518719E+01 -0.39831284610E+02 -0.29692914535E+02  0.49727761469E+02  0.00000000000E+00 0. -1.
          2    1    1    2  501    0 -0.34247823623E+03 -0.23967852800E+03  0.18109522956E+03  0.45555748402E+03  0.00000000000E+00 0.  1.
<scales pt_clust_3="170.97633" pt_clust_4="14000.00000" pt_clust_5="39.88961" pt_clust_6="352.01140"></scales>
<clustering>
<clus scale="   39.890">  2  5  1 -1</clus>
<clus scale="  170.976">  1  3  2 -1</clus>
<clus scale="  352.011">  1  6  2 -1</clus>
<clus scale="   39.890">  2  3  1 -1</clus>
</clustering>
</event>
<event>
 6    0  0.1622933E+002  0.1106282E+03  0.7546771E-02  0.1259411E+00
          1   -1    0    0  503    0 -0.00000000000E+00  0.00000000000E+00  0.11311741217E+04  0.11311741217E+04  0.00000000000E+00 0. -1.
         21   -1    0    0  504  502  0.00000000000E+00 -0.00000000000E+00 -0.95675013570E+02  0.95675013570E+02  0.00000000000E+00 0.  1.
         21    1    1    2  503  502 -0.28948433761E+02  0.11405333592E+02  0.11759453199E+03  0.12164114191E+03  0.00000000000E+00 0. -1.
         21    1    1    2  504  505  0.47882910780E+02  0.35370160872E+01  0.64569582590E+02  0.80464368658E+02  0.00000000000E+00 0. -1.
         21    1    1    2  505  501  0.18645106831E+02  0.87985360429E+02 -0.57886638398E+02  0.10695759236E+03  0.00000000000E+00 0.  1.
          1    1    1    2  501    0 -0.37579583851E+02 -0.10292771011E+03  0.91122163195E+03  0.91778603235E+03  0.00000000000E+00 0. -1.
<scales pt_clust_3="31.11420" pt_clust_4="46.01416" pt_clust_5="110.62819" pt_clust_6="14000.00000"></scales>
<clustering>
<clus scale="   31.114">  1  3  2 -1</clus>
<clus scale="   46.014">  2  4  1 -1</clus>
<clus scale="  110.628">  2  5  1 -1</clus>
<clus scale="   46.014">  2  3  1 -1</clus>
</clustering>
</event>
<event>
 6    0  0.1622933E+002  0.7795446E+02  0.7546771E-02  0.1334959E+00
          1   -1    0    0  504    0 -0.00000000000E+00  0.00000000000E+00  0.78515642954E+03  0.78515642954E+03  0.00000000000E+00 0. -1.
         21   -1    0    0  505  502  0.00000000000E+00 -0.00000000000E+00 -0.31887648886E+03  0.31887648886E+03  0.00000000000E+00 0. -1.
         21    1    1    2  503  501 -0.10426060796E+03  0.39781242653E+02  0.24377504459E+03  0.26810276761E+03  0.00000000000E+00 0. -1.
         21    1    1    2  504  502  0.31056784924E+02  0.41806930082E+02  0.65904636543E+01  0.52495499844E+02  0.00000000000E+00 0. -1.
         21    1    1    2  505  503  0.41030393875E+02 -0.13133782076E+02 -0.27923629159E+03  0.28254007856E+03  0.00000000000E+00 0. -1.
          1    1    1    2  501    0  0.32173429157E+02 -0.68454390659E+02  0.49515072402E+03  0.50089457239E+03  0.00000000000E+00 0. -1.
<scales pt_clust_3="14000.00000" pt_clust_4="65.31618" pt_clust_5="43.08120" pt_clust_6="77.95446"></scales>
<clustering>
<clus scale="   43.081">  2  5  1 -1</clus>
<clus scale="   65.316">  2  4  1 -1</clus>
<clus scale="   77.954">  1  6  2 -1</clus>
<clus scale="   43.081">  2  3  1 -1</clus>
</clustering>
</event>
<event>
 6    0  0.1622933E+002  0.2077751E+03  0.7546771E-02  0.1143340E+00
          3   -1    0    0  503    0 -0.00000000000E+00  0.00000000000E+00  0.51613568156E+03  0.51613568156E+03  0.00000000000E+00 0.  1.
         21   -1    0    0  504  502  0.00000000000E+00 -0.00000000000E+00 -0.52493303195E+03  0.52493303195E+03  0.00000000000E+00 0.  1.
         21    1    1    2  503  505 -0.38603121084E+02 -0.21272524998E+03  0.40517877290E+03  0.45925164229E+03  0.00000000000E+00 0.  1.
         21    1    1    2  504  501 -0.34909631010E+02 -0.29641887055E+02 -0.23877323732E+03  0.24312544635E+03  0.00000000000E+00 0.  1.
         21    1    1    2  505  502  0.16443932593E+01  0.15000913288E+03 -0.16220962993E+03  0.22094661803E+03  0.00000000000E+00 0.  1.
          3    1    1    2  501    0  0.71868358834E+02  0.92358004162E+02 -0.12993256047E+02  0.11774500685E+03  0.00000000000E+00 0.  1.
<scales pt_clust_3="14000.00000" pt_clust_4="45.79655" pt_clust_5="207.77514" pt_clust_6="106.72777"></scales>
<clustering>
<clus scale="   45.797">  2  4  1 -1</clus>
<clus scale="  106.728">  2  6  1 -1</clus>
<clus scale="  207.775">  2  5  1 -1</clus>
<clus scale="   45.797">  2  3  1 -1</clus>
</clustering>
</event>
<event>
 6    0  0.1622933E+002  0.1170705E+03  0.7546771E-02  0.1248009E+00
          2   -1    0    0  504    0 -0.00000000000E+00  0.00000000000E+00  0.44965732087E+03  0.44965732087E+03  0.00000000000E+00 0.  1.
         21   -1    0    0  503  502  0.00000000000E+00 -0.00000000000E+00 -0.19638002047E+03  0.19638002047E+03  0.00000000000E+00 0.  1.
         21    1    1    2  503  501  0.12139777196E+03  0.26145777358E+01 -0.12686935372E+03  0.17561346180E+03  0.00000000000E+00 0.  1.
         21    1    1    2  504  505  0.33675356476E+02 -0.16954136205E+01  0.40476157917E+02  0.52680389339E+02  0.00000000000E+00 0. -1.
         21    1    1    2  505  502 -0.88827377562E+02 -0.79840857463E+02  0.96176903510E+02  0.15334556496E+03  0.00000000000E+00 0.  1.
          2    1    1    2  501    0 -0.66245750869E+02  0.78921693348E+02  0.24349359269E+03  0.26439792524E+03  0.00000000000E+00 0.  1.
<scales pt_clust_3="117.07054" pt_clust_4="33.71801" pt_clust_5="14000.00000" pt_clust_6="89.93808"></scales>
<clustering>
<clus scale="   33.718">  1  4  2 -1</clus>
<clus scale="   89.938">  1  6  2 -1</clus>
<clus scale="  117.071">  2  3  1 -1</clus>
<clus scale="  117.071">  2  3  1 -1</clus>
</clustering>
</event>
<event>
 6    0  0.1622933E+002  0.1239793E+03  0.7546771E-02  0.1236673E+00
         21   -1    0    0  505  502  0.00000000000E+00  0.00000000000E+00  0.12748808096E+03  0.12748808096E+03  0.00000000000E+00 0. -1.
         -1   -1    0    0    0  501 -0.00000000000E+00 -0.00000000000E+00 -0.19333279075E+04  0.19333279075E+04  0.00000000000E+00 0. -1.
         21    1    1    2  503  501  0.66964494015E+01  0.38173526118E+02 -0.18146773782E+03  0.18556023389E+03  0.00000000000E+00 0. -1.
         21    1    1    2  504  502 -0.41631372139E+02 -0.29281795434E+02  0.81335850551E+02  0.95948503244E+02  0.00000000000E+00 0. -1.
         21    1    1    2  505  503 -0.54353122761E+02 -0.59555291307E+02 -0.10865160493E+02  0.81358136588E+02  0.00000000000E+00 0. -1.
         -1    1    1    2    0  504  0.89288045498E+02  0.50663560623E+02 -0.16948427787E+04  0.16979491147E+04  0.00000000000E+00 0. -1.
<scales pt_clust_3="38.75643" pt_clust_4="50.78344" pt_clust_5="123.97931" pt_clust_6="14000.00000"></scales>
<clustering>
<clus scale="   38.756">  2  3  1 -1</clus>
<clus scale="   50.783">  1  4  2 -1</clus>
<clus scale="  123.979">  1  5  2 -1</clus>
<clus scale="   50.783">  1  3  2 -1</clus>
</clustering>
</event>
<event>
 6    0  0.1622933E+002  0.6944626E+02  0.7546771E-02  0.1361986E+00
          1   -1    0    0  504    0 -0.00000000000E+00  0.00000000000E+00  0.66016818496E+03  0.66016818496E+03  0.00000000000E+00 0. -1.
         21   -1    0    0  503  502  0.00000000000E+00 -0.00000000000E+00 -0.86175883465E+02  0.86175883465E+02  0.00000000000E+00 0.  1.
         21    1    1    2  503  501  0.59120788619E+02 -0.29586143147E+02 -0.33458847457E+02  0.74095222426E+02  0.00000000000E+00 0.  1.
         21    1    1    2  504  505  0.53879174355E+02  0.10310782729E+02  0.17859403606E+03  0.18682908603E+03  0.00000000000E+00 0. -1.
         21    1    1    2  505  502 -0.52849974118E+02  0.78881835536E+02  0.73393629066E+02  0.12000870189E+03  0.00000000000E+00 0. -1.
          1    1    1    2  501    0 -0.60149988856E+02 -0.59606475118E+02  0.35546348382E+03  0.36541105808E+03  0.00000000000E+00 0. -1.
<scales pt_clust_3="69.44626" pt_clust_4="54.85688" pt_clust_5="14000.00000" pt_clust_6="55.36165"></scales>
<clustering>
<clus scale="   54.857">  1  4  2 -1</clus>
<clus scale="   55.362">  1  6  2 -1</clus>
<clus scale="   69.446">  2  3  1 -1</clus>
<clus scale="   69.446">  2  3  1 -1</clus>
</clustering>
</event>
<event>
 6    0  0.1622933E+002  0.8042349E+02  0.7546771E-02  0.1327854E+00
          2   -1    0    0  503    0 -0.00000000000E+00  0.00000000000E+00  0.10821146503E+04  0.10821146503E+04  0.00000000000E+00 0.  1.
         21   -1    0    0  504  502  0.00000000000E+00 -0.00000000000E+00 -0.66927739056E+02  0.66927739056E+02  0.00000000000E+00 0.  1.
         21    1    1    2  503  505  0.29687479051E+02  0.49541773274E+02  0.27607567527E+03  0.28205232172E+03  0.00000000000E+00 0. -1.
         21    1    1    2  504  501 -0.28250147129E+02  0.54776202279E+02 -0.34468320519E+02  0.70615637563E+02  0.00000000000E+00 0.  1.
         21    1    1    2  505  502 -0.40024076135E+02 -0.82944863316E+01  0.46266144916E+02  0.61735575962E+02  0.00000000000E+00 0.  1.
          2    1    1    2  501    0  0.38586744213E+02 -0.96023489222E+02  0.72731341158E+03  0.73463885412E+03  0.00000000000E+00 0.  1.
<scales pt_clust_3="56.37844" pt_clust_4="80.42349" pt_clust_5="40.87451" pt_clust_6="14000.00000"></scales>
<clustering>
<clus scale="   40.875">  2  5  1 -1</clus>
<clus scale="   56.378">  1  3  2 -1</clus>
<clus scale="   80.423">  2  4  1 -1</clus>
<clus scale="   40.875">  2  3  1 -1</clus>
</clustering>
</event>
<event>
 6    0  0.1622933E+002  0.2065447E+03  0.7546771E-02  0.1144332E+00
         -1   -1    0    0    0  501 -0.00000000000E+00  0.00000000000E+00  0.29308439081E+04  0.29308439081E+04  0.00000000000E+00 0. -1.
         21   -1    0    0  503  502  0.00000000000E+00 -0.00000000000E+00 -0.24697859983E+02  0.24697859983E+02  0.00000000000E+00 0.  1.
         21    1    1    2  503  504  0.16455811535E+03 -0.11968732626E+03  0.55151201072E+03  0.58785196042E+03  0.00000000000E+00 0.  1.
         21    1    1    2  504  501  0.31643788483E+01  0.39135201222E+02  0.78843731973E+03  0.78941433000E+03  0.00000000000E+00 0. -1.
         21    1    1    2  505  502 -0.47122176853E+02  0.12427990977E+02  0.24226983073E+03  0.24712269299E+03  0.00000000000E+00 0.  1.
         -1    1    1    2    0  505 -0.12060031734E+03  0.68124134063E+02  0.13239268869E+04  0.13311527847E+04  0.00000000000E+00 0. -1.
<scales pt_clust_3="198.23947" pt_clust_4="39.26292" pt_clust_5="34.39223" pt_clust_6="34.39223"></scales>
<clustering>
<clus scale="   34.392">  5  6 -1 -1</clus>
<clus scale="   39.263">  1  4  2 -1</clus>
<clus scale="  198.239">  2  3  1 -1</clus>
<clus scale="  198.239">  2  3  1 -1</clus>
</clustering>
</event>
<event>
 6    0  0.1622933E+002  0.7366767E+02  0.7546771E-02  0.1348047E+00
         21   -1    0    0  504  502  0.00000000000E+00  0.00000000000E+00  0.39356951140E+03  0.39356951140E+03  0.00000000000E+00 0.  1.
          4   -1    0    0  503    0 -0.00000000000E+00 -0.00000000000E+00 -0.12493070699E+03  0.12493070699E+03  0.00000000000E+00 0.  1.
         21    1    1    2  503  502 -0.82716507450E+01 -0.83400178794E+02  0.72589217266E+01  0.84123135781E+02  0.00000000000E+00 0.  1.
         21    1    1    2  504  505  0.34551624835E+02  0.18792142073E+02  0.26527878253E+03  0.26817865657E+03  0.00000000000E+00 0.  1.
         21    1    1    2  505  501  0.57703308145E+02  0.41005690593E+02  0.23778426543E+02  0.74676314858E+02  0.00000000000E+00 0.  1.
          4    1    1    2  501    0 -0.83983282235E+02  0.23602346129E+02 -0.27677326393E+02  0.91522111175E+02  0.00000000000E+00 0.  1.
<scales pt_clust_3="76.74444" pt_clust_4="39.33140" pt_clust_5="73.66767" pt_clust_6="14000.00000"></scales>
<clustering>
<clus scale="   39.331">  1  4  2 -1</clus>
<clus scale="   76.744">  1  3  2 -1</clus>
<clus scale="   73.668">  1  5  2 -1</clus>
<clus scale="   39.331">  1  3  2 -1</clus>
</clustering>
</event>
<event>
 6    0  0.1622933E+002  0.6118608E+02  0.7546771E-02  0.1392921E+00
         21   -1    0    0  504  502  0.00000000000E+00  0.00000000000E+00  0.11807710219E+03  0.11807710219E+03  0.00000000000E+00 0. -1.
          2   -1    0    0  503    0 -0.00000000000E+00 -0.00000000000E+00 -0.22338181244E+04  0.22338181244E+04  0.00000000000E+00 0. -1.
         21    1    1    2  503  505 -0.49955647029E+02  0.49125347792E+02 -0.28434089244E+03  0.29284570951E+03  0.00000000000E+00 0.  1.
         21    1    1    2  504  501 -0.40306483875E+02 -0.70142728381E+02 -0.52650775233E+03  0.53268661354E+03  0.00000000000E+00 0.  1.
         21    1    1    2  505  502  0.48129774293E+02  0.37422530217E+02  0.10195301656E+03  0.11879115509E+03  0.00000000000E+00 0. -1.
          2    1    1    2  501    0  0.42132356612E+02 -0.16405149628E+02 -0.14068453940E+04  0.14075717484E+04  0.00000000000E+00 0. -1.
<scales pt_clust_3="55.90755" pt_clust_4="14000.00000" pt_clust_5="61.18608" pt_clust_6="45.21354"></scales>
<clustering>
<clus scale="   45.214">  2  6  1 -1</clus>
<clus scale="   55.908">  2  3  1 -1</clus>
<clus scale="   61.186">  1  5  2 -1</clus>
<clus scale="   61.186">  1  3  2 -1</clus>
</clustering>
</event>
<event>
 6    0  0.1622933E+002  0.1011460E+03  0.7546771E-02  0.1277904E+00
         21   -1    0    0  505  502  0.00000000000E+00  0.00000000000E+00  0.33049905917E+03  0.33049905917E+03  0.00000000000E+00 0. -1.
         -2   -1    0    0    0  501 -0.00000000000E+00 -0.00000000000E+00 -0.10080629298E+03  0.10080629298E+03  0.00000000000E+00 0. -1.
         21    1    1    2  503  502 -0.44722494477E+02  0.96938043009E+01  0.12410974022E+03  0.13227735623E+03  0.00000000000E+00 0. -1.
         21    1    1    2  504  501  0.25695426438E+02  0.33601903309E+02 -0.10552090517E+02  0.43596897368E+02  0.00000000000E+00 0. -1.
         21    1    1    2  505  504  0.29717827782E+02  0.84440257167E+02  0.85171724100E+02  0.12356184243E+03  0.00000000000E+00 0. -1.
         -2    1    1    2    0  503 -0.10690759744E+02 -0.12773596478E+03  0.30963392387E+02  0.13186925612E+03  0.00000000000E+00 0. -1.
<scales pt_clust_3="44.81456" pt_clust_4="42.30062" pt_clust_5="101.14602" pt_clust_6="14000.00000"></scales>
<clustering>
<clus scale="   42.301">  2  4  1 -1</clus>
<clus scale="   44.815">  1  3  2 -1</clus>
<clus scale="  101.146">  1  5  2 -1</clus>
<clus scale="   44.815">  1  3  2 -1</clus>
</clustering>
</event>
<event>
 6    0  0.1622933E+002  0.2176836E+03  0.7546771E-02  0.1135622E+00
          1   -1    0    0  503    0 -0.00000000000E+00  0.00000000000E+00  0.81347597610E+03  0.81347597610E+03  0.00000000000E+00 0.  1.
         21   -1    0    0  505  502  0.00000000000E+00 -0.00000000000E+00 -0.45965125288E+03  0.45965125288E+03  0.00000000000E+00 0. -1.
         21    1    1    2  503  504  0.15990691332E+02  0.37260998430E+02  0.10928771800E+03  0.11656710307E+03  0.00000000000E+00 0.  1.
         21    1    1    2  504  502 -0.12104295146E+03  0.10007189617E+03  0.30278003022E+03  0.34108873801E+03  0.00000000000E+00 0.  1.
         21    1    1    2  505  501  0.15379926675E+03 -0.16171386796E+03 -0.40609376852E+03  0.46337645427E+03  0.00000000000E+00 0. -1.
          1    1    1    2  501    0 -0.48747006622E+02  0.24380973364E+02  0.34785074352E+03  0.35209493362E+03  0.00000000000E+00 0.  1.
<scales pt_clust_3="40.54731" pt_clust_4="14000.00000" pt_clust_5="217.68360" pt_clust_6="59.24413"></scales>
<clustering>
<clus scale="   40.547">  1  3  2 -1</clus>
<clus scale="   59.244">  1  6  2 -1</clus>
<clus scale="  217.684">  2  5  1 -1</clus>
<clus scale="  217.684">  2  3  1 -1</clus>
</clustering>
</event>
<event>
 6    0  0.1622933E+002  0.1784922E+03  0.7546771E-02  0.1169270E+00
          1   -1    0    0  503    0 -0.00000000000E+00  0.00000000000E+00  0.19690392157E+04  0.19690392157E+04  0.00000000000E+00 0.  1.
         21   -1    0    0  504  502  0.00000000000E+00 -0.00000000000E+00 -0.80977127620E+02  0.80977127620E+02  0.00000000000E+00 0.  1.
         21    1    1    2  503  505  0.31472661024E+02 -0.31172865174E+02  0.54106757984E+03  0.54287788854E+03  0.00000000000E+00 0.  1.
         21    1    1    2  504  501 -0.13107647975E+03  0.13842406208E+03  0.67075778198E+02  0.20209261374E+03  0.00000000000E+00 0.  1.
         21    1    1    2  505  502  0.13056860446E+03 -0.63873312350E+02  0.43896220159E+03  0.46240217877E+03  0.00000000000E+00 0.  1.
          1    1    1    2  501    0 -0.30964785740E+02 -0.43377884557E+02  0.84095652849E+03  0.84264366231E+03  0.00000000000E+00 0.  1.
<scales pt_clust_3="44.29758" pt_clust_4="14000.00000" pt_clust_5="178.49225" pt_clust_6="62.99851"></scales>
<clustering>
<clus scale="   44.298">  1  3  2 -1</clus>
<clus scale="   62.999">  1  6  2 -1</clus>
<clus scale="  178.492">  1  5  2 -1</clus>
<clus scale="  178.492">  2  3  1 -1</clus>
</clustering>
</event>
<event>
 6    0  0.1622933E+002  0.1022316E+03  0.7546771E-02  0.1275672E+00
          2   -1    0    0  503    0 -0.00000000000E+00  0.00000000000E+00  0.11542240138E+04  0.11542240138E+04  0.00000000000E+00 0.  1.
         21   -1    0    0  505  502  0.00000000000E+00 -0.00000000000E+00 -0.74361666708E+02  0.74361666708E+02  0.00000000000E+00 0.  1.
         21    1    1    2  503  504  0.46930501228E+01  0.41428448085E+02  0.15450144054E+03  0.16002823550E+03  0.00000000000E+00 0.  1.
         21    1    1    2  504  502 -0.39675298629E+02 -0.67736299414E+02  0.12091493714E+03  0.14416226137E+03  0.00000000000E+00 0.  1.
         21    1    1    2  505  501  0.49348813245E+01 -0.53811295774E+02 -0.45201447794E+02  0.70449836687E+02  0.00000000000E+00 0.  1.
          2    1    1    2  501    0  0.30047367181E+02  0.80119147103E+02  0.84964741725E+03  0.85394534699E+03  0.00000000000E+00 0.  1.
<scales pt_clust_3="41.69342" pt_clust_4="14000.00000" pt_clust_5="53.52023" pt_clust_6="102.23159"></scales>
<clustering>
<clus scale="   41.693">  1  3  2 -1</clus>
<clus scale="   53.520">  2  5  1 -1</clus>
<clus scale="  102.232">  1  6  2 -1</clus>
<clus scale="   53.520">  2  3  1 -1</clus>
</clustering>
</event>
<event>
 6    0  0.1622933E+002  0.7888889E+02  0.7546771E-02  0.1332234E+00
         -2   -1    0    0    0  501 -0.00000000000E+00  0.00000000000E+00  0.26129385379E+03  0.26129385379E+03  0.00000000000E+00 0. -1.
         21   -1    0    0  505  502  0.00000000000E+00 -0.00000000000E+00 -0.25019717312E+03  0.25019717312E+03  0.00000000000E+00 0.  1.
         21    1    1    2  503  504  0.62072637646E+02  0.45471877405E+02  0.30959655016E+02  0.82940968271E+02  0.00000000000E+00 0. -1.
         21    1    1    2  504  501  0.63858502485E+02  0.41504803308E+00  0.13170671328E+03  0.14637191988E+03  0.00000000000E+00 0. -1.
         21    1    1    2  505  503 -0.79530862635E+02 -0.11099228971E+02 -0.19423614168E+03  0.21018094521E+03  0.00000000000E+00 0.  1.
         -2    1    1    2    0  502 -0.46400277496E+02 -0.34787696467E+02  0.42666454053E+02  0.71997193547E+02  0.00000000000E+00 0. -1.
<scales pt_clust_3="14000.00000" pt_clust_4="39.76802" pt_clust_5="78.88889" pt_clust_6="57.99284"></scales>
<clustering>
<clus scale="   57.993">  1  6  2 -1</clus>
<clus scale="   39.768">  1  4  2 -1</clus>
<clus scale="   78.889">  2  5  1 -1</clus>
<clus scale="   78.889">  2  3  1 -1</clus>
</clustering>
</event>
<event>
 6    0  0.1622933E+002  0.1555638E+03  0.7546771E-02  0.1193798E+00
          2   -1    0    0  504    0 -0.00000000000E+00  0.00000000000E+00  0.94688177118E+03  0.94688177118E+03  0.00000000000E+00 0. -1.
         21   -1    0    0  503  502  0.00000000000E+00 -0.00000000000E+00 -0.18845840844E+03  0.18845840844E+03  0.00000000000E+00 0.  1.
         21    1    1    2  503  505  0.16015523542E+03 -0.72664847383E+02 -0.11953547265E+03  0.21264667573E+03  0.00000000000E+00 0.  1.
         21    1    1    2  504  502 -0.79763863762E+02 -0.17585848514E+02  0.32928625910E+03  0.33926534816E+03  0.00000000000E+00 0.  1.
         21    1    1    2  505  501 -0.85169815799E+02  0.40926018691E+02  0.12413191814E+03  0.15600503078E+03  0.00000000000E+00 0.  1.
          2    1    1    2  501    0  0.47784441389E+01  0.49324677205E+02  0.42454065815E+03  0.42742312494E+03  0.00000000000E+00 0. -1.
<scales pt_clust_3="14000.00000" pt_clust_4="77.97677" pt_clust_5="155.56377" pt_clust_6="49.55560"></scales>
<clustering>
<clus scale="   49.556">  1  6  2 -1</clus>
<clus scale="   77.977">  1  4  2 -1</clus>
<clus scale="  155.564">  1  5  2 -1</clus>
<clus scale="  155.564">  2  3  1 -1</clus>
</clustering>
</event>
<event>
 6    0  0.1622933E+002  0.1177427E+03  0.7546771E-02  0.1246868E+00
         21   -1    0    0  504  502  0.00000000000E+00  0.00000000000E+00  0.11204916616E+04  0.11204916616E+04  0.00000000000E+00 0.  1.
          3   -1    0    0  505    0 -0.00000000000E+00 -0.00000000000E+00 -0.12436029923E+03  0.12436029923E+03  0.00000000000E+00 0.  1.
         21    1    1    2  503  501  0.74534891021E+02 -0.20311599213E+02 -0.11309804367E+02  0.78076390266E+02  0.00000000000E+00 0.  1.
         21    1    1    2  504  503 -0.88552742344E+02  0.60629286110E+02  0.10636532817E+04  0.10690536947E+04  0.00000000000E+00 0.  1.
         21    1    1    2  505  502 -0.22647585770E+02 -0.28846134464E+02 -0.10784523324E+02  0.38227196576E+02  0.00000000000E+00 0. -1.
          3    1    1    2  501    0  0.36665437093E+02 -0.11471552433E+02 -0.45427591578E+02  0.59494679334E+02  0.00000000000E+00 0.  1.
<scales pt_clust_3="34.04712" pt_clust_4="107.38882" pt_clust_5="36.67441" pt_clust_6="34.04712"></scales>
<clustering>
<clus scale="   34.047">  3  6 -1 -1</clus>
<clus scale="   36.674">  2  5  1 -1</clus>
<clus scale="  107.389">  1  4  2 -1</clus>
<clus scale="  107.389">  1  3  2 -1</clus>
</clustering>
</event>
<event>
 6    0  0.1622933E+002  0.2225395E+03  0.7546771E-02  0.1132004E+00
         21   -1    0    0  503  502  0.00000000000E+00  0.00000000000E+00  0.58198676316E+02  0.58198676316E+02  0.00000000000E+00 0. -1.
          1   -1    0    0  505    0 -0.00000000000E+00 -0.00000000000E+00 -0.11033900217E+04  0.11033900217E+04  0.00000000000E+00 0. -1.
         21    1    1    2  503  501 -0.68387851164E+02  0.13132162981E+03 -0.56305282729E+03  0.58219477407E+03  0.00000000000E+00 0. -1.
         21    1    1    2  504  502  0.40592115560E+02 -0.16231414854E+02 -0.80714035946E+02  0.91792887919E+02  0.00000000000E+00 0. -1.
         21    1    1    2  505  504  0.83525972796E+02 -0.15166812494E+03 -0.15523546641E+03  0.23254646479E+03  0.00000000000E+00 0. -1.
          1    1    1    2  501    0 -0.55730237192E+02  0.36577909986E+02 -0.24618901571E+03  0.25505457120E+03  0.00000000000E+00 0. -1.
<scales pt_clust_3="33.67384" pt_clust_4="38.68859" pt_clust_5="38.68859" pt_clust_6="214.74195"></scales>
<clustering>
<clus scale="   33.674">  3  6 -1 -1</clus>
<clus scale="   38.689">  4  5 -1 -1</clus>
<clus scale="  214.742">  2  3  1 -1</clus>
<clus scale="  222.540">  1  3  2 -1</clus>
</clustering>
</event>
<event>
 6    0  0.1622933E+002  0.1427126E+03  0.7546771E-02  0.1209725E+00
         21   -1    0    0  503  502  0.00000000000E+00  0.00000000000E+00  0.12903641077E+04  0.12903641077E+04  0.00000000000E+00 0.  1.
         -2   -1    0    0    0  501 -0.00000000000E+00 -0.00000000000E+00 -0.74424382498E+03  0.74424382498E+03  0.00000000000E+00 0. -1.
         21    1    1    2  503  504  0.13163827695E+03  0.26804278474E+02 -0.45073357099E+03  0.47032739376E+03  0.00000000000E+00 0. -1.
         21    1    1    2  504  501  0.56185170515E+01 -0.30915943940E+02 -0.87711526926E+01  0.32623556567E+02  0.00000000000E+00 0. -1.
         21    1    1    2  505  502  0.11030955105E+02 -0.11235869049E+03  0.12319297350E+04  0.12370921669E+04  0.00000000000E+00 0.  1.
         -2    1    1    2    0  505 -0.14828774911E+03  0.11647035595E+03 -0.22630472859E+03  0.29456481551E+03  0.00000000000E+00 0. -1.
<scales pt_clust_3="14000.00000" pt_clust_4="31.42234" pt_clust_5="113.01060" pt_clust_6="142.71264"></scales>
<clustering>
<clus scale="   31.422">  2  4  1 -1</clus>
<clus scale="  113.011">  1  5  2 -1</clus>
<clus scale="  142.713">  1  6  2 -1</clus>
<clus scale="  113.011">  1  3  2 -1</clus>
</clustering>
</event>
<event>
 6    0  0.1622933E+002  0.9774520E+02  0.7546771E-02  0.1285110E+00
          2   -1    0    0  504    0 -0.00000000000E+00  0.00000000000E+00  0.15279260314E+04  0.15279260314E+04  0.00000000000E+00 0. -1.
         21   -1    0    0  505  502  0.00000000000E+00 -0.00000000000E+00 -0.86081189413E+02  0.86081189413E+02  0.00000000000E+00 0.  1.
         21    1    1    2  503  502 -0.55050894079E+02 -0.90570427553E+02  0.27874771057E+03  0.29821785566E+03  0.00000000000E+00 0.  1.
         21    1    1    2  504  503  0.32233465953E+02  0.46019122195E+02  0.12646573881E+03  0.13838474998E+03  0.00000000000E+00 0. -1.
         21    1    1    2  505  501 -0.86554272786E+02 -0.42576347667E+02 -0.30487755041E+02  0.10116269434E+03  0.00000000000E+00 0.  1.
          2    1    1    2  501    0  0.10937170091E+03  0.87127653026E+02  0.10671191477E+04  0.10762419208E+04  0.00000000000E+00 0. -1.
<scales pt_clust_3="94.40136" pt_clust_4="56.18502" pt_clust_5="14000.00000" pt_clust_6="97.74520"></scales>
<clustering>
<clus scale="   56.185">  1  4  2 -1</clus>
<clus scale="   94.401">  1  3  2 -1</clus>
<clus scale="   97.745">  1  6  2 -1</clus>
<clus scale="   97.745">  2  3  1 -1</clus>
</clustering>
</event>
<event>
 6    0  0.1622933E+002  0.1193855E+03  0.7546771E-02  0.1244114E+00
         21   -1    0    0  503  502  0.00000000000E+00  0.00000000000E+00  0.16895188791E+03  0.16895188791E+03  0.00000000000E+00 0. -1.
          2   -1    0    0  504    0 -0.00000000000E+00 -0.00000000000E+00 -0.68492355492E+03  0.68492355492E+03  0.00000000000E+00 0.  1.
         21    1    1    2  503  501 -0.79442830891E+02 -0.92443034745E+02  0.12447737263E+03  0.17421680272E+03  0.00000000000E+00 0. -1.
         21    1    1    2  504  505 -0.32825123375E+02  0.31060456765E+02 -0.52961933201E+02  0.69621886411E+02  0.00000000000E+00 0. -1.
         21    1    1    2  505  502  0.26613168968E+02  0.45551280254E+02 -0.84890879257E+02  0.99948192962E+02  0.00000000000E+00 0. -1.
          2    1    1    2  501    0  0.85654785298E+02  0.15831297725E+02 -0.50259622717E+03  0.51008856074E+03  0.00000000000E+00 0.  1.
<scales pt_clust_3="119.38551" pt_clust_4="45.19116" pt_clust_5="54.66678" pt_clust_6="14000.00000"></scales>
<clustering>
<clus scale="   45.191">  2  4  1 -1</clus>
<clus scale="   54.667">  2  5  1 -1</clus>
<clus scale="  119.386">  1  3  2 -1</clus>
<clus scale="  119.386">  1  3  2 -1</clus>
</clustering>
</event>
<event>
 6    0  0.1622933E+002  0.1117732E+03  0.7546771E-02  0.1257321E+00
          1   -1    0    0  503    0 -0.00000000000E+00  0.00000000000E+00  0.88097479506E+03  0.88097479506E+03  0.00000000000E+00 0. -1.
         21   -1    0    0  504  502  0.00000000000E+00 -0.00000000000E+00 -0.73662216216E+02  0.73662216216E+02  0.00000000000E+00 0. -1.
         21    1    1    2  503  505 -0.46383472229E+02 -0.67234326845E+01  0.24177007641E+03  0.24627099076E+03  0.00000000000E+00 0. -1.
         21    1    1    2  504  501  0.79125195808E+02  0.10567969230E+03  0.29937294907E+03  0.32718978684E+03  0.00000000000E+00 0. -1.
         21    1    1    2  505  502 -0.69506319321E+02 -0.83196553146E+02 -0.35875160095E+01  0.10846965083E+03  0.00000000000E+00 0. -1.
          1    1    1    2  501    0  0.36764595742E+02 -0.15759706471E+02  0.26975706937E+03  0.27270658284E+03  0.00000000000E+00 0. -1.
<scales pt_clust_3="34.24610" pt_clust_4="14000.00000" pt_clust_5="111.77322" pt_clust_6="40.00005"></scales>
<clustering>
<clus scale="   40.000">  1  6  2 -1</clus>
<clus scale="   34.246">  1  3  2 -1</clus>
<clus scale="  111.773">  2  5  1 -1</clus>
<clus scale="  111.773">  2  3  1 -1</clus>
</clustering>
</event>
<event>
 6    0  0.1622933E+002  0.1293406E+03  0.7546771E-02  0.1228438E+00
         21   -1    0    0  501  502  0.00000000000E+00  0.00000000000E+00  0.33475228086E+03  0.33475228086E+03  0.00000000000E+00 0. -1.
          2   -1    0    0  505    0 -0.00000000000E+00 -0.00000000000E+00 -0.18887968484E+03  0.18887968484E+03  0.00000000000E+00 0. -1.
         21    1    1    2  503  504  0.10092320422E+03 -0.43015736874E+02  0.20932839067E+02  0.11168719945E+03  0.00000000000E+00 0. -1.
         21    1    1    2  504  502  0.31432393240E+02  0.17885541552E+01  0.20681390475E+03  0.20919652356E+03  0.00000000000E+00 0. -1.
         21    1    1    2  505  503  0.18383041841E+02  0.26109640473E+02 -0.26345759334E+02  0.41397446634E+02  0.00000000000E+00 0.  1.
          2    1    1    2  501    0 -0.15073863930E+03  0.15117542246E+02 -0.55528388474E+02  0.16135079606E+03  0.00000000000E+00 0. -1.
<scales pt_clust_3="129.34055" pt_clust_4="31.48324" pt_clust_5="33.12565" pt_clust_6="14000.00000"></scales>
<clustering>
<clus scale="   31.483">  1  4  2 -1</clus>
<clus scale="   33.126">  2  5  1 -1</clus>
<clus scale="  129.341">  1  3  2 -1</clus>
<clus scale="   31.483">  1  3  2 -1</clus>
</clustering>
</event>
<event>
 6    0  0.1622933E+002  0.9071162E+02  0.7546771E-02  0.1301138E+00
          1   -1    0    0  503    0 -0.00000000000E+00  0.00000000000E+00  0.16295608637E+03  0.16295608637E+03  0.00000000000E+00 0. -1.
         21   -1    0    0  504  502  0.00000000000E+00 -0.00000000000E+00 -0.17551474902E+04  0.17551474902E+04  0.00000000000E+00 0.  1.
         21    1    1    2  503  505 -0.30291501729E+02  0.23578743215E+02 -0.13540268328E+02  0.40704681241E+02  0.00000000000E+00 0.  1.
         21    1    1    2  504  501  0.77850214240E+02 -0.46190435137E+02 -0.16489494547E+04  0.16514322621E+04  0.00000000000E+00 0.  1.
         21    1    1    2  505  502  0.47765354972E+02 -0.34139382361E+02 -0.38798295416E+02  0.70372823524E+02  0.00000000000E+00 0.  1.
          1    1    1    2  501    0 -0.95324067483E+02  0.56751074283E+02  0.10909661466E+03  0.15559380966E+03  0.00000000000E+00 0. -1.
<scales pt_clust_3="38.38661" pt_clust_4="90.71162" pt_clust_5="54.65796" pt_clust_6="14000.00000"></scales>
<clustering>
<clus scale="   38.387">  1  3  2 -1</clus>
<clus scale="   54.658">  1  5  2 -1</clus>
<clus scale="   90.712">  2  4  1 -1</clus>
<clus scale="   90.712">  2  3  1 -1</clus>
</clustering>
</event>
<event>
 6    0  0.1622933E+002  0.1050903E+03  0.7546771E-02  0.1269942E+00
          2   -1    0    0  503    0 -0.00000000000E+00  0.00000000000E+00  0.48097422685E+03  0.48097422685E+03  0.00000000000E+00 0. -1.
         21   -1    0    0  501  502  0.00000000000E+00 -0.00000000000E+00 -0.56313875446E+03  0.56313875446E+03  0.00000000000E+00 0.  1.
         21    1    1    2  503  504  0.31769488882E+02 -0.26359800055E+02  0.22283413720E+03  0.22662566533E+03  0.00000000000E+00 0. -1.
         21    1    1    2  504  505  0.63426323745E+02 -0.78628369510E+02 -0.35274959930E+02  0.10700299918E+03  0.00000000000E+00 0.  1.
         21    1    1    2  505  502  0.42313769348E+02  0.76085380898E+02 -0.46323119282E+03  0.47134125457E+03  0.00000000000E+00 0.  1.
          2    1    1    2  501    0 -0.13750958198E+03  0.28902788667E+02  0.19350748793E+03  0.23914306223E+03  0.00000000000E+00 0. -1.
<scales pt_clust_3="41.28122" pt_clust_4="14000.00000" pt_clust_5="86.94215" pt_clust_6="105.09026"></scales>
<clustering>
<clus scale="   41.281">  1  3  2 -1</clus>
<clus scale="   86.942">  2  5  1 -1</clus>
<clus scale="  105.090">  1  6  2 -1</clus>
<clus scale="   86.942">  2  3  1 -1</clus>
</clustering>
</event>
<event>
 6    0  0.1622933E+002  0.2929175E+03  0.7546771E-02  0.1088836E+00
         21   -1    0    0  504  502  0.00000000000E+00  0.00000000000E+00  0.56202148148E+03  0.56202148148E+03  0.00000000000E+00 0. -1.
          1   -1    0    0  503    0 -0.00000000000E+00 -0.00000000000E+00 -0.42020520187E+03  0.42020520187E+03  0.00000000000E+00 0. -1.
         21    1    1    2  503  502 -0.10819184554E+03  0.30464034465E+03  0.40720083268E+03  0.51992666134E+03  0.00000000000E+00 0. -1.
         21    1    1    2  504  505 -0.27136617239E+02 -0.52991746137E+02  0.13138947641E+02  0.60968459870E+02  0.00000000000E+00 0.  1.
         21    1    1    2  505  501  0.60367766575E+02 -0.91246190721E+02 -0.81396891407E+02  0.13636564264E+03  0.00000000000E+00 0.  1.
          1    1    1    2  501    0  0.74960696209E+02 -0.16040240779E+03 -0.19712660930E+03  0.26496591950E+03  0.00000000000E+00 0. -1.
<scales pt_clust_3="289.74092" pt_clust_4="59.53588" pt_clust_5="33.81897" pt_clust_6="33.81897"></scales>
<clustering>
<clus scale="   33.819">  5  6 -1 -1</clus>
<clus scale="   59.536">  1  4  2 -1</clus>
<clus scale="  289.741">  1  3  2 -1</clus>
<clus scale="   59.536">  1  3  2 -1</clus>
</clustering>
</event>
<event>
 6    0  0.1622933E+002  0.1512980E+03  0.7546771E-02  0.1198887E+00
          2   -1    0    0  504    0 -0.00000000000E+00  0.00000000000E+00  0.11391966673E+04  0.11391966673E+04  0.00000000000E+00 0.  1.
         21   -1    0    0  503  502  0.00000000000E+00 -0.00000000000E+00 -0.47803709790E+02  0.47803709790E+02  0.00000000000E+00 0. -1.
         21    1    1    2  503  505  0.18028780826E+02 -0.63342931204E+02  0.59662149516E+02  0.88864705910E+02  0.00000000000E+00 0.  1.
         21    1    1    2  504  502 -0.22923779868E+02  0.19380908489E+03  0.33488369944E+03  0.38760102325E+03  0.00000000000E+00 0. -1.
         21    1    1    2  505  501  0.16401177330E+02 -0.81066504057E+02  0.33045535929E+03  0.34064867706E+03  0.00000000000E+00 0.  1.
          2    1    1    2  501    0 -0.11506178287E+02 -0.49399649634E+02  0.36639174929E+03  0.36988597091E+03  0.00000000000E+00 0.  1.
<scales pt_clust_3="65.85867" pt_clust_4="143.78066" pt_clust_5="36.88277" pt_clust_6="36.88277"></scales>
<clustering>
<clus scale="   36.883">  5  6 -1 -1</clus>
<clus scale="   65.859">  2  3  1 -1</clus>
<clus scale="  143.781">  2  4  1 -1</clus>
<clus scale="   65.859">  2  3  1 -1</clus>
</clustering>
</event>
<event>
 6    0  0.1622933E+002  0.2303493E+03  0.7546771E-02  0.1126394E+00
         21   -1    0    0  503  502  0.00000000000E+00  0.00000000000E+00  0.41855689586E+03  0.41855689586E+03  0.00000000000E+00 0. -1.
          2   -1    0    0  505    0 -0.00000000000E+00 -0.00000000000E+00 -0.12360708408E+04  0.12360708408E+04  0.00000000000E+00 0.  1.
         21    1    1    2  503  501 -0.94265859262E+02 -0.77405596415E+02 -0.46657266855E+02  0.13059318179E+03  0.00000000000E+00 0. -1.
         21    1    1    2  504  502 -0.86170602328E+02 -0.10055360294E+03  0.31797226801E+03  0.34444558785E+03  0.00000000000E+00 0. -1.
         21    1    1    2  505  504 -0.56142534400E+02  0.17012762925E+03 -0.24710705107E+03  0.30521679032E+03  0.00000000000E+00 0. -1.
          2    1    1    2  501    0  0.23657899599E+03  0.78315701004E+01 -0.84172189505E+03  0.87437217673E+03  0.00000000000E+00 0.  1.
<scales pt_clust_3="121.97409" pt_clust_4="14000.00000" pt_clust_5="175.97888" pt_clust_6="230.34933"></scales>
<clustering>
<clus scale="  121.974">  1  3  2 -1</clus>
<clus scale="  175.979">  2  5  1 -1</clus>
<clus scale="  230.349">  2  6  1 -1</clus>
<clus scale="  121.974">  1  3  2 -1</clus>
</clustering>
</event>
<event>
 6    0  0.1622933E+002  0.1766363E+03  0.7546771E-02  0.1171099E+00
         21   -1    0    0  504  502  0.00000000000E+00  0.00000000000E+00  0.85418567333E+03  0.85418567333E+03  0.00000000000E+00 0. -1.
         -3   -1    0    0    0  501 -0.00000000000E+00 -0.00000000000E+00 -0.82871377702E+02  0.82871377702E+02  0.00000000000E+00 0. -1.
         21    1    1    2  503  505 -0.36025095649E+02 -0.78970003809E+02  0.58306050936E+02  0.10456416496E+03  0.00000000000E+00 0.  1.
         21    1    1    2  504  501  0.37649095771E+02  0.11488515811E+03  0.62643521632E+03  0.63799461927E+03  0.00000000000E+00 0. -1.
         21    1    1    2  505  502  0.34986578264E+02  0.45535190553E+02  0.88126693975E+02  0.10518473477E+03  0.00000000000E+00 0. -1.
         -3    1    1    2    0  503 -0.36610578386E+02 -0.81450344857E+02 -0.15536656086E+01  0.89313532031E+02  0.00000000000E+00 0. -1.
<scales pt_clust_3="57.12335" pt_clust_4="166.86308" pt_clust_5="57.42399" pt_clust_6="57.12335"></scales>
<clustering>
<clus scale="   57.123">  3  6 -1 -1</clus>
<clus scale="   57.424">  1  5  2 -1</clus>
<clus scale="  166.863">  1  4  2 -1</clus>
<clus scale="   57.424">  1  3  2 -1</clus>
</clustering>
</event>
<event>
 6    0  0.1622933E+002  0.1206901E+03  0.7546771E-02  0.1241963E+00
          2   -1    0    0  504    0 -0.00000000000E+00  0.00000000000E+00  0.23079446714E+04  0.23079446714E+04  0.00000000000E+00 0.  1.
         21   -1    0    0  505  502  0.00000000000E+00 -0.00000000000E+00 -0.34897121482E+03  0.34897121482E+03  0.00000000000E+00 0.  1.
         21    1    1    2  503  501  0.42975108133E+02 -0.11115498827E+03  0.45110383882E+03  0.46658007323E+03  0.00000000000E+00 0.  1.
         21    1    1    2  504  502 -0.44471082473E+02 -0.15193356943E+02  0.21738347018E+03  0.22240523460E+03  0.00000000000E+00 0.  1.
         21    1    1    2  505  503 -0.27334758972E+02  0.11761808305E+03 -0.32781567221E+03  0.34934841842E+03  0.00000000000E+00 0.  1.
          2    1    1    2  501    0  0.28830733311E+02  0.87302621627E+01  0.16183018198E+04  0.16185821600E+04  0.00000000000E+00 0.  1.
<scales pt_clust_3="14000.00000" pt_clust_4="37.39539" pt_clust_5="120.69010" pt_clust_6="30.12356"></scales>
<clustering>
<clus scale="   30.124">  1  6  2 -1</clus>
<clus scale="   37.395">  1  4  2 -1</clus>
<clus scale="  120.690">  2  5  1 -1</clus>
<clus scale="  120.690">  2  3  1 -1</clus>
</clustering>
</event>
<event>
 6    0  0.1622933E+002  0.8008077E+02  0.7546771E-02  0.1328822E+00
          2   -1    0    0  504    0 -0.00000000000E+00  0.00000000000E+00  0.13871720540E+04  0.13871720540E+04  0.00000000000E+00 0.  1.
         21   -1    0    0  501  502  0.00000000000E+00 -0.00000000000E+00 -0.21030931302E+02  0.21030931302E+02  0.00000000000E+00 0. -1.
         21    1    1    2  503  502 -0.35939366036E+02 -0.63761817863E+02  0.10370494096E+03  0.12693274687E+03  0.00000000000E+00 0. -1.
         21    1    1    2  504  505 -0.17796228822E+02  0.28873479270E+02  0.25347548222E+03  0.25573463522E+03  0.00000000000E+00 0.  1.
         21    1    1    2  505  503 -0.15615859227E+02 -0.62273378467E+02  0.36540311341E+03  0.37100035581E+03  0.00000000000E+00 0. -1.
          2    1    1    2  501    0  0.69351454085E+02  0.97161717059E+02  0.64355758612E+03  0.65453524740E+03  0.00000000000E+00 0.  1.
<scales pt_clust_3="14000.00000" pt_clust_4="33.91730" pt_clust_5="57.05266" pt_clust_6="80.08077"></scales>
<clustering>
<clus scale="   33.917">  1  4  2 -1</clus>
<clus scale="   57.053">  1  5  2 -1</clus>
<clus scale="   80.081">  1  6  2 -1</clus>
<clus scale="   80.081">  2  3  1 -1</clus>
</clustering>
</event>
<event>
 6    0  0.1622933E+002  0.2046061E+03  0.7546771E-02  0.1145910E+00
         21   -1    0    0  503  502  0.00000000000E+00  0.00000000000E+00  0.12809970850E+04  0.12809970850E+04  0.00000000000E+00 0. -1.
         -3   -1    0    0    0  501 -0.00000000000E+00 -0.00000000000E+00 -0.30250198371E+02  0.30250198371E+02  0.00000000000E+00 0. -1.
         21    1    1    2  503  505 -0.60855174104E+02  0.57943695186E+02  0.42567255425E+03  0.43388702155E+03  0.00000000000E+00 0. -1.
         21    1    1    2  504  502  0.73515925129E+02 -0.82706328930E+02  0.36075975309E+03  0.37734934416E+03  0.00000000000E+00 0. -1.
         21    1    1    2  505  501 -0.83832110277E+02  0.56638950321E+02  0.19569606826E+03  0.22030148556E+03  0.00000000000E+00 0.  1.
         -3    1    1    2    0  504  0.71171359252E+02 -0.31876316578E+02  0.26861851101E+03  0.27970943208E+03  0.00000000000E+00 0. -1.
<scales pt_clust_3="80.48816" pt_clust_4="33.00407" pt_clust_5="80.48816" pt_clust_6="188.70410"></scales>
<clustering>
<clus scale="   33.004">  4  6 -1 -1</clus>
<clus scale="   80.488">  3  5 -1 -1</clus>
<clus scale="  188.704">  1  4  2 -1</clus>
<clus scale="  188.704">  1  3  2 -1</clus>
</clustering>
</event>
<event>
 6    0  0.1622933E+002  0.1063768E+03  0.7546771E-02  0.1267430E+00
         -3   -1    0    0    0  501 -0.00000000000E+00  0.00000000000E+00  0.57836810327E+03  0.57836810327E+03  0.00000000000E+00 0.  1.
         21   -1    0    0  504  502  0.00000000000E+00 -0.00000000000E+00 -0.73885406392E+03  0.73885406392E+03  0.00000000000E+00 0. -1.
         21    1    1    2  503  502  0.55853047585E+02 -0.30101153523E+02 -0.67698641697E+03  0.67995312421E+03  0.00000000000E+00 0. -1.
         21    1    1    2  504  501  0.35290467657E+02  0.91432418313E+02  0.75958995276E+02  0.12399626280E+03  0.00000000000E+00 0. -1.
         21    1    1    2  505  503 -0.66056000539E+02  0.44781688356E+02  0.24948118293E+02  0.83613416540E+02  0.00000000000E+00 0. -1.
         -3    1    1    2    0  505 -0.25087514703E+02 -0.10611295315E+03  0.41559334274E+03  0.42965936363E+03  0.00000000000E+00 0.  1.
<scales pt_clust_3="63.44795" pt_clust_4="106.37681" pt_clust_5="49.24139" pt_clust_6="14000.00000"></scales>
<clustering>
<clus scale="   63.448">  2  3  1 -1</clus>
<clus scale="   49.241">  2  5  1 -1</clus>
<clus scale="  106.377">  2  4  1 -1</clus>
<clus scale="   63.448">  2  3  1 -1</clus>
</clustering>
</event>
<event>
 6    0  0.1622933E+002  0.9116998E+02  0.7546771E-02  0.1300043E+00
         21   -1    0    0  504  502  0.00000000000E+00  0.00000000000E+00  0.54948119954E+02  0.54948119954E+02  0.00000000000E+00 0.  1.
          2   -1    0    0  505    0 -0.00000000000E+00 -0.00000000000E+00 -0.13811965186E+04  0.13811965186E+04  0.00000000000E+00 0.  1.
         21    1    1    2  503  502  0.37361146356E+02 -0.10797436202E+03 -0.22836146780E+02  0.11651526814E+03  0.00000000000E+00 0.  1.
         21    1    1    2  504  501 -0.30746983818E+02  0.18075787558E+02 -0.63904469334E+02  0.73183962113E+02  0.00000000000E+00 0. -1.
         21    1    1    2  505  503 -0.34069617112E+02  0.80557453969E+00 -0.21254969820E+03  0.21526440014E+03  0.00000000000E+00 0. -1.
          2    1    1    2  501    0  0.27455454574E+02  0.89092999923E+02 -0.10269580843E+04  0.10311810081E+04  0.00000000000E+00 0.  1.
<scales pt_clust_3="14000.00000" pt_clust_4="37.42794" pt_clust_5="34.07914" pt_clust_6="91.16998"></scales>
<clustering>
<clus scale="   34.079">  2  5  1 -1</clus>
<clus scale="   37.428">  1  4  2 -1</clus>
<clus scale="   91.170">  2  6  1 -1</clus>
<clus scale="   37.428">  1  3  2 -1</clus>
</clustering>
</event>
<event>
 6    0  0.1949760E+002  0.1134443E+03  0.7546771E-02  0.1254321E+00
          1   -1    0    0  504    0 -0.00000000000E+00  0.00000000000E+00  0.16052566524E+04  0.16052566524E+04  0.00000000000E+00 0.  1.
         21   -1    0    0  505  502  0.00000000000E+00 -0.00000000000E+00 -0.47097329084E+03  0.47097329084E+03  0.00000000000E+00 0. -1.
         21    1    1    2  503  501  0.22467820494E+02  0.66671628117E+02  0.57227811345E+02  0.90691407227E+02  0.00000000000E+00 0. -1.
         21    1    1    2  504  502  0.37318135857E+02  0.11691088488E+02  0.12505992827E+03  0.13103171552E+03  0.00000000000E+00 0. -1.
         21    1    1    2  505  503  0.39465518203E+02  0.42644973955E+02 -0.44499728142E+03  0.44877466662E+03  0.00000000000E+00 0. -1.
          1    1    1    2  501    0 -0.99251474553E+02 -0.12100769056E+03  0.13969929033E+04  0.14057321538E+04  0.00000000000E+00 0.  1.
<scales pt_clust_3="14000.00000" pt_clust_4="39.10658" pt_clust_5="58.14778" pt_clust_6="113.44430"></scales>
<clustering>
<clus scale="   39.107">  1  4  2 -1</clus>
<clus scale="   58.148">  2  5  1 -1</clus>
<clus scale="  113.444">  1  6  2 -1</clus>
<clus scale="   58.148">  2  3  1 -1</clus>
</clustering>
</event>
<event>
 6    0  0.1622933E+002  0.1402659E+03  0.7546771E-02  0.1212972E+00
          2   -1    0    0  504    0 -0.00000000000E+00  0.00000000000E+00  0.37683925983E+03  0.37683925983E+03  0.00000000000E+00 0. -1.
         21   -1    0    0  505  502  0.00000000000E+00 -0.00000000000E+00 -0.22624755325E+04  0.22624755325E+04  0.00000000000E+00 0. -1.
         21    1    1    2  503  502 -0.92643427426E+02  0.10835104961E+03 -0.21684931272E+04  0.21731739915E+04  0.00000000000E+00 0. -1.
         21    1    1    2  504  503 -0.79959575916E+02 -0.92179207281E+02  0.67686985915E+02  0.13954235234E+03  0.00000000000E+00 0. -1.
         21    1    1    2  505  501  0.12418829103E+03  0.52586588382E+02  0.54905939936E+02  0.14561161749E+03  0.00000000000E+00 0. -1.
          2    1    1    2  501    0  0.48414712312E+02 -0.68758430712E+02  0.16026392868E+03  0.18098683101E+03  0.00000000000E+00 0. -1.
<scales pt_clust_3="140.26589" pt_clust_4="138.40140" pt_clust_5="14000.00000" pt_clust_6="84.09344"></scales>
<clustering>
<clus scale="   84.093">  1  6  2 -1</clus>
<clus scale="  138.401">  1  4  2 -1</clus>
<clus scale="  140.266">  2  3  1 -1</clus>
<clus scale="  140.266">  2  3  1 -1</clus>
</clustering>
</event>
<event>
 6    0  0.1622933E+002  0.1304342E+03  0.7546771E-02  0.1226813E+00
          2   -1    0    0  504    0 -0.00000000000E+00  0.00000000000E+00  0.53763008429E+03  0.53763008429E+03  0.00000000000E+00 0.  1.
         21   -1    0    0  503  502  0.00000000000E+00 -0.00000000000E+00 -0.29733632513E+03  0.29733632513E+03  0.00000000000E+00 0. -1.
         21    1    1    2  503  501  0.25297396360E+02  0.30744261245E+02 -0.44138290398E+02  0.59442043550E+02  0.00000000000E+00 0.  1.
         21    1    1    2  504  505 -0.14540137048E+02 -0.13152192745E+03  0.48861160733E+03  0.50621214506E+03  0.00000000000E+00 0.  1.
         21    1    1    2  505  502 -0.56998867587E+02  0.92208989253E+02 -0.19238929443E+03  0.22082800823E+03  0.00000000000E+00 0. -1.
          2    1    1    2  501    0  0.46241608275E+02  0.85686769515E+01 -0.11790263333E+02  0.48484212585E+02  0.00000000000E+00 0.  1.
<scales pt_clust_3="39.64716" pt_clust_4="14000.00000" pt_clust_5="130.43425" pt_clust_6="92.30424"></scales>
<clustering>
<clus scale="   39.647">  3  6 -1 -1</clus>
<clus scale="   92.304">  2  3  1 -1</clus>
<clus scale="  130.434">  2  5  1 -1</clus>
<clus scale="   92.304">  2  3  1 -1</clus>
</clustering>
</event>
<event>
 6    0  0.1622933E+002  0.5157352E+03  0.7546771E-02  0.1009751E+00
          2   -1    0    0  504    0 -0.00000000000E+00  0.00000000000E+00  0.37927902102E+03  0.37927902102E+03  0.00000000000E+00 0. -1.
         21   -1    0    0  503  502  0.00000000000E+00 -0.00000000000E+00 -0.13833747901E+04  0.13833747901E+04  0.00000000000E+00 0. -1.
         21    1    1    2  503  505 -0.11717013210E+03  0.38426936797E+02 -0.13289289073E+03  0.18128979490E+03  0.00000000000E+00 0. -1.
         21    1    1    2  504  502  0.18386461396E+03 -0.12915744455E+03 -0.78958793265E+02  0.23816450781E+03  0.00000000000E+00 0. -1.
         21    1    1    2  505  501 -0.36771550707E+03 -0.17590687168E+03 -0.84445858276E+03  0.93769303061E+03  0.00000000000E+00 0. -1.
          2    1    1    2  501    0  0.30102102521E+03  0.26663737943E+03  0.52214497719E+02  0.40550647776E+03  0.00000000000E+00 0. -1.
<scales pt_clust_3="113.90874" pt_clust_4="224.69500" pt_clust_5="113.90874" pt_clust_6="472.32506"></scales>
<clustering>
<clus scale="  113.909">  3  5 -1 -1</clus>
<clus scale="  224.695">  1  4  2 -1</clus>
<clus scale="  472.325">  1  6  2 -1</clus>
<clus scale="  515.735">  2  3  1 -1</clus>
</clustering>
</event>
<event>
 6    0  0.1622933E+002  0.1639402E+03  0.7546771E-02  0.1184319E+00
         21   -1    0    0  505  502  0.00000000000E+00  0.00000000000E+00  0.26860661182E+03  0.26860661182E+03  0.00000000000E+00 0.  1.
         -1   -1    0    0    0  501 -0.00000000000E+00 -0.00000000000E+00 -0.12535116556E+03  0.12535116556E+03  0.00000000000E+00 0.  1.
         21    1    1    2  503  502  0.95757310328E+02 -0.77265836671E+02  0.42594102366E+02  0.13020648814E+03  0.00000000000E+00 0.  1.
         21    1    1    2  504  501 -0.13530104778E+02  0.27989435086E+02 -0.14485982958E+02  0.34297462209E+02  0.00000000000E+00 0.  1.
         21    1    1    2  505  504 -0.13621873343E+03  0.42868655979E+02  0.94769966072E+02  0.17139023156E+03  0.00000000000E+00 0.  1.
         -1    1    1    2    0  503  0.53991527884E+02  0.64077456070E+01  0.20377360784E+02  0.58063595476E+02  0.00000000000E+00 0.  1.
<scales pt_clust_3="43.79417" pt_clust_4="31.08814" pt_clust_5="151.13493" pt_clust_6="43.79417"></scales>
<clustering>
<clus scale="   31.088">  2  4  1 -1</clus>
<clus scale="   43.794">  3  6 -1 -1</clus>
<clus scale="  151.135">  1  5  2 -1</clus>
<clus scale="  151.135">  1  3  2 -1</clus>
</clustering>
</event>
<event>
 6    0  0.1622933E+002  0.7334558E+02  0.7546771E-02  0.1349072E+00
         21   -1    0    0  504  502  0.00000000000E+00  0.00000000000E+00  0.31487788059E+02  0.31487788059E+02  0.00000000000E+00 0.  1.
          2   -1    0    0  505    0 -0.00000000000E+00 -0.00000000000E+00 -0.38763021212E+04  0.38763021212E+04  0.00000000000E+00 0. -1.
         21    1    1    2  503  501 -0.19600571719E+02  0.87366049396E+02 -0.45681379039E+03  0.46550601295E+03  0.00000000000E+00 0. -1.
         21    1    1    2  504  503 -0.37729671631E+02 -0.24578805795E+02  0.37519920379E+01  0.45185431944E+02  0.00000000000E+00 0.  1.
         21    1    1    2  505  502 -0.19211775262E+02 -0.51184101206E+02 -0.34026364228E+03  0.34462769881E+03  0.00000000000E+00 0. -1.
          2    1    1    2  501    0  0.76542018612E+02 -0.11603142396E+02 -0.30514888925E+04  0.30524707655E+04  0.00000000000E+00 0. -1.
<scales pt_clust_3="14000.00000" pt_clust_4="45.02939" pt_clust_5="66.46585" pt_clust_6="73.34558"></scales>
<clustering>
<clus scale="   45.029">  1  4  2 -1</clus>
<clus scale="   66.466">  1  5  2 -1</clus>
<clus scale="   73.346">  2  6  1 -1</clus>
<clus scale="   45.029">  1  3  2 -1</clus>
</clustering>
</event>
<event>
 6    0  0.1622933E+002  0.1262283E+03  0.7546771E-02  0.1233162E+00
          2   -1    0    0  505    0 -0.00000000000E+00  0.00000000000E+00  0.33033823486E+04  0.33033823486E+04  0.00000000000E+00 0. -1.
         21   -1    0    0  503  502  0.00000000000E+00 -0.00000000000E+00 -0.62738702032E+02  0.62738702032E+02  0.00000000000E+00 0. -1.
         21    1    1    2  503  504 -0.37276239171E+02 -0.25836192652E+02 -0.42788238839E+02  0.62352708365E+02  0.00000000000E+00 0. -1.
         21    1    1    2  504  501  0.40236973067E+02 -0.11005562565E+03  0.10533742595E+04  0.10598719665E+04  0.00000000000E+00 0. -1.
         21    1    1    2  505  502 -0.56258164505E+02 -0.29029745062E+01  0.18366461579E+03  0.19210960264E+03  0.00000000000E+00 0. -1.
          2    1    1    2  501    0  0.53297430609E+02  0.13879479281E+03  0.20463930101E+04  0.20517867732E+04  0.00000000000E+00 0. -1.
<scales pt_clust_3="45.35446" pt_clust_4="14000.00000" pt_clust_5="73.02132" pt_clust_6="126.22827"></scales>
<clustering>
<clus scale="   45.354">  2  3  1 -1</clus>
<clus scale="   73.021">  2  5  1 -1</clus>
<clus scale="  126.228">  1  6  2 -1</clus>
<clus scale="   45.354">  2  3  1 -1</clus>
</clustering>
</event>
<event>
 6    0  0.1622933E+002  0.8125537E+02  0.7546771E-02  0.1325526E+00
          4   -1    0    0  504    0 -0.00000000000E+00  0.00000000000E+00  0.67284563505E+03  0.67284563505E+03  0.00000000000E+00 0. -1.
         21   -1    0    0  505  502  0.00000000000E+00 -0.00000000000E+00 -0.65071649648E+02  0.65071649648E+02  0.00000000000E+00 0. -1.
         21    1    1    2  503  502 -0.51303918312E+02 -0.48760087319E+02  0.18297123579E+03  0.19618387109E+03  0.00000000000E+00 0. -1.
         21    1    1    2  504  503  0.66276198777E+01  0.33435958707E+02  0.68331059889E+02  0.76361131641E+02  0.00000000000E+00 0. -1.
         21    1    1    2  505  501 -0.66249887331E+02  0.42636421815E+02 -0.11914196306E+02  0.79679734626E+02  0.00000000000E+00 0. -1.
          4    1    1    2  501    0  0.11092618576E+03 -0.27312293203E+02  0.36838588603E+03  0.38569254734E+03  0.00000000000E+00 0. -1.
<scales pt_clust_3="62.30051" pt_clust_4="34.08649" pt_clust_5="14000.00000" pt_clust_6="81.25537"></scales>
<clustering>
<clus scale="   34.086">  1  4  2 -1</clus>
<clus scale="   62.301">  1  3  2 -1</clus>
<clus scale="   81.255">  1  6  2 -1</clus>
<clus scale="   81.255">  2  3  1 -1</clus>
</clustering>
</event>
<event>
 6    0  0.1622933E+002  0.9802889E+02  0.7546771E-02  0.1284496E+00
         21   -1    0    0  503  502  0.00000000000E+00  0.00000000000E+00  0.21269819871E+03  0.21269819871E+03  0.00000000000E+00 0.  1.
         -1   -1    0    0    0  501 -0.00000000000E+00 -0.00000000000E+00 -0.14576897577E+03  0.14576897577E+03  0.00000000000E+00 0.  1.
         21    1    1    2  503  504  0.11032085801E+02  0.31753431703E+02  0.98137547332E+02  0.10373507381E+03  0.00000000000E+00 0.  1.
         21    1    1    2  504  505  0.55718475081E+02  0.78147758682E+02  0.27970994566E+02  0.99969981441E+02  0.00000000000E+00 0.  1.
         21    1    1    2  505  501 -0.34617673755E+02 -0.18847189290E+02 -0.40310003245E+02  0.56378153942E+02  0.00000000000E+00 0.  1.
         -1    1    1    2    0  502 -0.32132887126E+02 -0.91054001096E+02 -0.18869315705E+02  0.98383965288E+02  0.00000000000E+00 0.  1.
<scales pt_clust_3="33.61528" pt_clust_4="98.02889" pt_clust_5="37.66285" pt_clust_6="14000.00000"></scales>
<clustering>
<clus scale="   33.615">  1  3  2 -1</clus>
<clus scale="   37.663">  2  5  1 -1</clus>
<clus scale="   98.029">  2  4  1 -1</clus>
<clus scale="   33.615">  1  3  2 -1</clus>
</clustering>
</event>
<event>
 6    0  0.1622933E+002  0.7819451E+02  0.7546771E-02  0.1334255E+00
         21   -1    0    0  501  502  0.00000000000E+00  0.00000000000E+00  0.13298072120E+04  0.13298072120E+04  0.00000000000E+00 0.  1.
          2   -1    0    0  505    0 -0.00000000000E+00 -0.00000000000E+00 -0.99545471455E+03  0.99545471455E+03  0.00000000000E+00 0. -1.
         21    1    1    2  503  504 -0.69926660854E+02  0.81918920058E+01 -0.30453916393E+03  0.31257150760E+03  0.00000000000E+00 0. -1.
         21    1    1    2  504  502  0.33492729438E+02  0.70677074792E+02  0.13193765298E+04  0.13216926418E+04  0.00000000000E+00 0.  1.
         21    1    1    2  505  503  0.38496165439E+02 -0.19681513520E+01 -0.14589616729E+03  0.15090235254E+03  0.00000000000E+00 0. -1.
          2    1    1    2  501    0 -0.20622340237E+01 -0.76900815446E+02 -0.53458870120E+03  0.54009542460E+03  0.00000000000E+00 0. -1.
<scales pt_clust_3="56.40126" pt_clust_4="78.19451" pt_clust_5="38.54644" pt_clust_6="14000.00000"></scales>
<clustering>
<clus scale="   38.546">  2  5  1 -1</clus>
<clus scale="   56.401">  2  3  1 -1</clus>
<clus scale="   78.195">  1  4  2 -1</clus>
<clus scale="   78.195">  1  3  2 -1</clus>
</clustering>
</event>
<event>
 6    0  0.1622933E+002  0.1097756E+03  0.7546771E-02  0.1260986E+00
         21   -1    0    0  501  502  0.00000000000E+00  0.00000000000E+00  0.62979353654E+02  0.62979353654E+02  0.00000000000E+00 0.  1.
          1   -1    0    0  503    0 -0.00000000000E+00 -0.00000000000E+00 -0.13574164690E+04  0.13574164690E+04  0.00000000000E+00 0.  1.
         21    1    1    2  503  504 -0.30420789106E+02 -0.35552760945E+02 -0.99304142404E+03  0.99414319546E+03  0.00000000000E+00 0.  1.
         21    1    1    2  504  505 -0.71730194175E+02 -0.60315647427E+02 -0.20233964897E+03  0.22298998100E+03  0.00000000000E+00 0.  1.
         21    1    1    2  505  502 -0.64621414292E+01  0.59833865459E+02 -0.17285064962E+02  0.62614887993E+02  0.00000000000E+00 0.  1.
          1    1    1    2  501    0  0.10861312471E+03  0.36034542913E+02 -0.81770977340E+02  0.14064775817E+03  0.00000000000E+00 0.  1.
<scales pt_clust_3="46.79127" pt_clust_4="14000.00000" pt_clust_5="56.78249" pt_clust_6="109.77561"></scales>
<clustering>
<clus scale="   46.791">  2  3  1 -1</clus>
<clus scale="   56.782">  1  5  2 -1</clus>
<clus scale="  109.776">  1  6  2 -1</clus>
<clus scale="   56.782">  1  3  2 -1</clus>
</clustering>
</event>
<event>
 6    0  0.1622933E+002  0.2449258E+03  0.7546771E-02  0.1116554E+00
         21   -1    0    0  504  502  0.00000000000E+00  0.00000000000E+00  0.67589333473E+02  0.67589333473E+02  0.00000000000E+00 0. -1.
          2   -1    0    0  505    0 -0.00000000000E+00 -0.00000000000E+00 -0.12406742316E+04  0.12406742316E+04  0.00000000000E+00 0. -1.
         21    1    1    2  503  501  0.14882664167E+03 -0.99447111995E+02 -0.15513604679E+03  0.23686766425E+03  0.00000000000E+00 0. -1.
         21    1    1    2  504  503  0.49744791757E+02 -0.24029769425E+02 -0.11704257943E+03  0.12942542070E+03  0.00000000000E+00 0. -1.
         21    1    1    2  505  502 -0.20706948109E+02 -0.30302407963E+02 -0.17952233821E+03  0.18323559574E+03  0.00000000000E+00 0. -1.
          2    1    1    2  501    0 -0.17786448532E+03  0.15377928938E+03 -0.72138393373E+03  0.75873488441E+03  0.00000000000E+00 0. -1.
<scales pt_clust_3="40.68906" pt_clust_4="40.68906" pt_clust_5="36.70168" pt_clust_6="233.61589"></scales>
<clustering>
<clus scale="   36.702">  2  5  1 -1</clus>
<clus scale="   40.689">  3  4 -1 -1</clus>
<clus scale="  233.616">  2  6  1 -1</clus>
<clus scale="  244.926">  1  3  2 -1</clus>
</clustering>
</event>
<event>
 6    0  0.1622933E+002  0.1016550E+03  0.7546771E-02  0.1276854E+00
          1   -1    0    0  503    0 -0.00000000000E+00  0.00000000000E+00  0.48517911576E+03  0.48517911576E+03  0.00000000000E+00 0.  1.
         21   -1    0    0  501  502  0.00000000000E+00 -0.00000000000E+00 -0.42208691246E+03  0.42208691246E+03  0.00000000000E+00 0.  1.
         21    1    1    2  503  505  0.81840073968E+00 -0.34569439788E+02  0.47838547662E+02  0.59027473176E+02  0.00000000000E+00 0.  1.
         21    1    1    2  504  502  0.31208103062E+02  0.97915180877E+02 -0.39898250264E+03  0.41200529821E+03  0.00000000000E+00 0.  1.
         21    1    1    2  505  504 -0.60450755595E+02 -0.59321465138E+00  0.12424726406E+03  0.13817390630E+03  0.00000000000E+00 0. -1.
          1    1    1    2  501    0  0.28424251793E+02 -0.62752526437E+02  0.28998889422E+03  0.29805935052E+03  0.00000000000E+00 0.  1.
<scales pt_clust_3="34.57913" pt_clust_4="14000.00000" pt_clust_5="61.21663" pt_clust_6="101.65504"></scales>
<clustering>
<clus scale="   34.579">  1  3  2 -1</clus>
<clus scale="   61.217">  1  5  2 -1</clus>
<clus scale="  101.655">  1  6  2 -1</clus>
<clus scale="  101.655">  2  3  1 -1</clus>
</clustering>
</event>
<event>
 6    0  0.1622933E+002  0.8044955E+02  0.7546771E-02  0.1327780E+00
          1   -1    0    0  504    0 -0.00000000000E+00  0.00000000000E+00  0.28127547791E+03  0.28127547791E+03  0.00000000000E+00 0. -1.
         21   -1    0    0  503  502  0.00000000000E+00 -0.00000000000E+00 -0.68955317892E+03  0.68955317892E+03  0.00000000000E+00 0. -1.
         21    1    1    2  503  501 -0.31010824650E+02  0.11483567952E+02 -0.24793000788E+02  0.41330817394E+02  0.00000000000E+00 0. -1.
         21    1    1    2  504  505 -0.45180661113E+02 -0.56345741423E+02  0.33489113806E+02  0.79609393030E+02  0.00000000000E+00 0.  1.
         21    1    1    2  505  502 -0.22720029681E+02 -0.67951163855E+02 -0.60506246133E+03  0.60928986741E+03  0.00000000000E+00 0. -1.
          1    1    1    2  501    0  0.98911515444E+02  0.11281333733E+03  0.18808864731E+03  0.24059857899E+03  0.00000000000E+00 0. -1.
<scales pt_clust_3="33.06877" pt_clust_4="72.59792" pt_clust_5="80.44955" pt_clust_6="14000.00000"></scales>
<clustering>
<clus scale="   33.069">  2  3  1 -1</clus>
<clus scale="   72.598">  1  4  2 -1</clus>
<clus scale="   80.450">  2  5  1 -1</clus>
<clus scale="   33.069">  2  3  1 -1</clus>
</clustering>
</event>
<event>
 6    0  0.1622933E+002  0.9506608E+02  0.7546771E-02  0.1291027E+00
         21   -1    0    0  504  502  0.00000000000E+00  0.00000000000E+00  0.97730672140E+03  0.97730672140E+03  0.00000000000E+00 0. -1.
          2   -1    0    0  503    0 -0.00000000000E+00 -0.00000000000E+00 -0.90604951745E+03  0.90604951745E+03  0.00000000000E+00 0.  1.
         21    1    1    2  503  502 -0.84200754113E+02 -0.29311544412E+02 -0.11311712108E+03  0.14402922172E+03  0.00000000000E+00 0. -1.
         21    1    1    2  504  505 -0.24129125517E+02 -0.20960975580E+02  0.95401705075E+03  0.95455230884E+03  0.00000000000E+00 0. -1.
         21    1    1    2  505  501  0.35563017116E+02 -0.14900159604E+02 -0.86784402999E+02  0.94964601545E+02  0.00000000000E+00 0. -1.
          2    1    1    2  501    0  0.72766862514E+02  0.65172679596E+02 -0.68285832272E+03  0.68981010674E+03  0.00000000000E+00 0.  1.
<scales pt_clust_3="95.06608" pt_clust_4="31.96212" pt_clust_5="36.40137" pt_clust_6="14000.00000"></scales>
<clustering>
<clus scale="   31.962">  1  4  2 -1</clus>
<clus scale="   36.401">  1  5  2 -1</clus>
<clus scale="   95.066">  1  3  2 -1</clus>
<clus scale="   31.962">  1  3  2 -1</clus>
</clustering>
</event>
<event>
 6    0  0.1622933E+002  0.6323800E+02  0.7546771E-02  0.1384725E+00
          2   -1    0    0  503    0 -0.00000000000E+00  0.00000000000E+00  0.25432159964E+04  0.25432159964E+04  0.00000000000E+00 0. -1.
         21   -1    0    0  504  502  0.00000000000E+00 -0.00000000000E+00 -0.13136938775E+03  0.13136938775E+03  0.00000000000E+00 0.  1.
         21    1    1    2  503  505 -0.53648297348E+02 -0.51193581574E+02  0.23433657398E+03  0.24578965093E+03  0.00000000000E+00 0.  1.
         21    1    1    2  504  501  0.43365489508E+02  0.47692167356E+02  0.23178834575E+03  0.24058459164E+03  0.00000000000E+00 0.  1.
         21    1    1    2  505  502  0.15659541610E-01 -0.59139815256E+02 -0.11351476540E+03  0.12799656228E+03  0.00000000000E+00 0.  1.
          2    1    1    2  501    0  0.10267148298E+02  0.62641229475E+02  0.20592364543E+04  0.20602145792E+04  0.00000000000E+00 0. -1.
<scales pt_clust_3="14000.00000" pt_clust_4="49.18036" pt_clust_5="59.13982" pt_clust_6="63.23800"></scales>
<clustering>
<clus scale="   59.140">  2  5  1 -1</clus>
<clus scale="   49.180">  2  4  1 -1</clus>
<clus scale="   63.238">  1  6  2 -1</clus>
<clus scale="   59.140">  2  3  1 -1</clus>
</clustering>
</event>
<event>
 6    0  0.1622933E+002  0.1020554E+03  0.7546771E-02  0.1276032E+00
         -2   -1    0    0    0  501 -0.00000000000E+00  0.00000000000E+00  0.10512109508E+04  0.10512109508E+04  0.00000000000E+00 0. -1.
         21   -1    0    0  505  502  0.00000000000E+00 -0.00000000000E+00 -0.39467878310E+02  0.39467878310E+02  0.00000000000E+00 0. -1.
         21    1    1    2  503  502 -0.69344780090E+02  0.73343987667E+02  0.21342010285E+03  0.23608511041E+03  0.00000000000E+00 0. -1.
         21    1    1    2  504  501 -0.36085133896E+02 -0.33350848178E+02  0.28192714736E+03  0.28617709968E+03  0.00000000000E+00 0. -1.
         21    1    1    2  505  504 -0.31567599209E+02 -0.82427814804E+02  0.13865450906E+03  0.16436523616E+03  0.00000000000E+00 0. -1.
         -2    1    1    2    0  503  0.13699751319E+03  0.42434675315E+02  0.37774131322E+03  0.40405138288E+03  0.00000000000E+00 0. -1.
<scales pt_clust_3="14000.00000" pt_clust_4="49.13671" pt_clust_5="97.06087" pt_clust_6="102.05537"></scales>
<clustering>
<clus scale="   49.137">  1  4  2 -1</clus>
<clus scale="   97.061">  2  5  1 -1</clus>
<clus scale="  102.055">  1  6  2 -1</clus>
<clus scale="   97.061">  2  3  1 -1</clus>
</clustering>
</event>
<event>
 6    0  0.1622933E+002  0.1268737E+03  0.7546771E-02  0.1232170E+00
         21   -1    0    0  505  502  0.00000000000E+00  0.00000000000E+00  0.25754670087E+03  0.25754670087E+03  0.00000000000E+00 0.  1.
          1   -1    0    0  503    0 -0.00000000000E+00 -0.00000000000E+00 -0.29875522837E+04  0.29875522837E+04  0.00000000000E+00 0. -1.
         21    1    1    2  503  502 -0.12743686649E+03  0.71385575334E+02 -0.32334927902E+03  0.35481095184E+03  0.00000000000E+00 0. -1.
         21    1    1    2  504  501  0.48338589662E+02 -0.60885841552E+00 -0.25926890404E+03  0.26373728322E+03  0.00000000000E+00 0.  1.
         21    1    1    2  505  504  0.92836685709E+01  0.34558921060E+02  0.23656255394E+03  0.23925373028E+03  0.00000000000E+00 0.  1.
          1    1    1    2  501    0  0.69814608256E+02 -0.10533563798E+03 -0.23839499537E+04  0.23872970192E+04  0.00000000000E+00 0. -1.
<scales pt_clust_3="126.87373" pt_clust_4="49.50638" pt_clust_5="35.78415" pt_clust_6="14000.00000"></scales>
<clustering>
<clus scale="   35.784">  1  5  2 -1</clus>
<clus scale="   49.506">  1  4  2 -1</clus>
<clus scale="  126.874">  1  3  2 -1</clus>
<clus scale="   35.784">  1  3  2 -1</clus>
</clustering>
</event>
<event>
 6    0  0.1622933E+002  0.1822946E+03  0.7546771E-02  0.1165601E+00
         21   -1    0    0  501  502  0.00000000000E+00  0.00000000000E+00  0.33762513467E+03  0.33762513467E+03  0.00000000000E+00 0. -1.
          2   -1    0    0  504    0 -0.00000000000E+00 -0.00000000000E+00 -0.22174177069E+04  0.22174177069E+04  0.00000000000E+00 0.  1.
         21    1    1    2  503  505  0.12246334269E+03 -0.11754485922E+03 -0.13043732172E+04  0.13153720212E+04  0.00000000000E+00 0.  1.
         21    1    1    2  504  503 -0.10425071859E+02 -0.32007044026E+02 -0.54291285659E+03  0.54395542358E+03  0.00000000000E+00 0.  1.
         21    1    1    2  505  502 -0.44465952868E+02 -0.30706586644E+02  0.30360589406E+03  0.30837745432E+03  0.00000000000E+00 0. -1.
          2    1    1    2  501    0 -0.67572317966E+02  0.18025848989E+03 -0.33611239249E+03  0.38733794252E+03  0.00000000000E+00 0.  1.
<scales pt_clust_3="14000.00000" pt_clust_4="33.66204" pt_clust_5="54.07625" pt_clust_6="182.29463"></scales>
<clustering>
<clus scale="   33.662">  2  4  1 -1</clus>
<clus scale="   54.076">  1  5  2 -1</clus>
<clus scale="  182.295">  1  6  2 -1</clus>
<clus scale="   54.076">  1  3  2 -1</clus>
</clustering>
</event>
<event>
 6    0  0.1622933E+002  0.1003361E+03  0.7546771E-02  0.1279591E+00
         21   -1    0    0  501  502  0.00000000000E+00  0.00000000000E+00  0.17316664309E+03  0.17316664309E+03  0.00000000000E+00 0. -1.
          1   -1    0    0  504    0 -0.00000000000E+00 -0.00000000000E+00 -0.80273166067E+03  0.80273166067E+03  0.00000000000E+00 0. -1.
         21    1    1    2  503  502  0.28021194889E+01 -0.70584849223E+02  0.14346649876E+03  0.15991469313E+03  0.00000000000E+00 0. -1.
         21    1    1    2  504  505  0.16066768744E+02  0.40323234053E+02 -0.64997801520E+02  0.78158930807E+02  0.00000000000E+00 0. -1.
         21    1    1    2  505  503 -0.88115560366E+02 -0.34538336260E+02 -0.20319125614E+03  0.22415158983E+03  0.00000000000E+00 0.  1.
          1    1    1    2  501    0  0.69246672133E+02  0.64799951430E+02 -0.50484245867E+03  0.51367309000E+03  0.00000000000E+00 0. -1.
<scales pt_clust_3="70.19469" pt_clust_4="43.40627" pt_clust_5="14000.00000" pt_clust_6="100.33613"></scales>
<clustering>
<clus scale="   43.406">  2  4  1 -1</clus>
<clus scale="   70.195">  1  3  2 -1</clus>
<clus scale="  100.336">  2  6  1 -1</clus>
<clus scale="   70.195">  1  3  2 -1</clus>
</clustering>
</event>
<event>
 6    0  0.1622933E+002  0.7790568E+02  0.7546771E-02  0.1335102E+00
         21   -1    0    0  501  502  0.00000000000E+00  0.00000000000E+00  0.18001879635E+03  0.18001879635E+03  0.00000000000E+00 0.  1.
          1   -1    0    0  504    0 -0.00000000000E+00 -0.00000000000E+00 -0.10188125690E+04  0.10188125690E+04  0.00000000000E+00 0. -1.
         21    1    1    2  503  505 -0.10696718036E+02 -0.60661145260E+02 -0.11421552604E+03  0.12976663943E+03  0.00000000000E+00 0.  1.
         21    1    1    2  504  503 -0.35610513909E+02  0.16320637764E+02 -0.49872592286E+03  0.50026194943E+03  0.00000000000E+00 0.  1.
         21    1    1    2  505  502 -0.55640756253E+02  0.54439577924E+02  0.15551797209E+03  0.17391204974E+03  0.00000000000E+00 0.  1.
          1    1    1    2  501    0  0.10194798820E+03 -0.10099070428E+02 -0.38137029588E+03  0.39489072679E+03  0.00000000000E+00 0. -1.
<scales pt_clust_3="59.93913" pt_clust_4="39.17234" pt_clust_5="77.90568" pt_clust_6="14000.00000"></scales>
<clustering>
<clus scale="   39.172">  2  4  1 -1</clus>
<clus scale="   59.939">  2  3  1 -1</clus>
<clus scale="   77.906">  1  5  2 -1</clus>
<clus scale="   77.906">  1  3  2 -1</clus>
</clustering>
</event>
<event>
 6    0  0.1622933E+002  0.1256529E+03  0.7546771E-02  0.1234052E+00
         -1   -1    0    0    0  501 -0.00000000000E+00  0.00000000000E+00  0.17461343630E+03  0.17461343630E+03  0.00000000000E+00 0.  1.
         21   -1    0    0  505  502  0.00000000000E+00 -0.00000000000E+00 -0.56798898659E+03  0.56798898659E+03  0.00000000000E+00 0. -1.
         21    1    1    2  503  501 -0.68416073960E+02  0.73777898652E+02  0.21883581032E+02  0.10297003751E+03  0.00000000000E+00 0.  1.
         21    1    1    2  504  502  0.17811863670E+02 -0.36932138142E+02  0.61822683507E+01  0.41466441336E+02  0.00000000000E+00 0.  1.
         21    1    1    2  505  503 -0.37107511074E+02  0.83566466586E+01 -0.48126994769E+03  0.48277071522E+03  0.00000000000E+00 0. -1.
         -1    1    1    2    0  504  0.87711721364E+02 -0.45202407169E+02  0.59828548017E+02  0.11539522883E+03  0.00000000000E+00 0.  1.
<scales pt_clust_3="115.85257" pt_clust_4="31.36107" pt_clust_5="38.03684" pt_clust_6="31.36107"></scales>
<clustering>
<clus scale="   31.361">  4  6 -1 -1</clus>
<clus scale="   38.037">  2  5  1 -1</clus>
<clus scale="  115.853">  1  3  2 -1</clus>
<clus scale="   38.037">  2  3  1 -1</clus>
</clustering>
</event>
<event>
 6    0  0.1622933E+002  0.1758787E+03  0.7546771E-02  0.1171852E+00
         21   -1    0    0  503  502  0.00000000000E+00  0.00000000000E+00  0.83267205982E+03  0.83267205982E+03  0.00000000000E+00 0. -1.
          2   -1    0    0  504    0 -0.00000000000E+00 -0.00000000000E+00 -0.56602033286E+03  0.56602033286E+03  0.00000000000E+00 0.  1.
         21    1    1    2  503  505  0.21247145467E+02 -0.89320264684E+02  0.68984275270E+03  0.69592569598E+03  0.00000000000E+00 0. -1.
         21    1    1    2  504  502  0.10669924970E+02 -0.32159024275E+02 -0.10963330124E+03  0.11474977509E+03  0.00000000000E+00 0. -1.
         21    1    1    2  505  501  0.31715078483E+02 -0.93409903246E+02  0.85363133909E+02  0.13045351992E+03  0.00000000000E+00 0.  1.
          2    1    1    2  501    0 -0.63632148920E+02  0.21488919220E+03 -0.39892085841E+03  0.45756340170E+03  0.00000000000E+00 0.  1.
<scales pt_clust_3="92.03881" pt_clust_4="33.88289" pt_clust_5="175.87875" pt_clust_6="14000.00000"></scales>
<clustering>
<clus scale="   33.883">  2  4  1 -1</clus>
<clus scale="   92.039">  1  3  2 -1</clus>
<clus scale="  175.879">  1  5  2 -1</clus>
<clus scale="   92.039">  1  3  2 -1</clus>
</clustering>
</event>
<event>
 6    0  0.1622933E+002  0.2337924E+03  0.7546771E-02  0.1123999E+00
          4   -1    0    0  504    0 -0.00000000000E+00  0.00000000000E+00  0.56837158861E+03  0.56837158861E+03  0.00000000000E+00 0. -1.
         21   -1    0    0  503  502  0.00000000000E+00 -0.00000000000E+00 -0.14379537424E+03  0.14379537424E+03  0.00000000000E+00 0. -1.
         21    1    1    2  503  505 -0.11968082037E+02 -0.54078171265E+02 -0.27321555131E+02  0.61758812891E+02  0.00000000000E+00 0. -1.
         21    1    1    2  504  502  0.23662393122E+03  0.29095533412E+02  0.22992670872E+03  0.33121552843E+03  0.00000000000E+00 0. -1.
         21    1    1    2  505  501 -0.12600133139E+03  0.45239824751E+01  0.99571198181E+02  0.16065872350E+03  0.00000000000E+00 0. -1.
          4    1    1    2  501    0 -0.98654517786E+02  0.20458655377E+02  0.12239986260E+03  0.15853389803E+03  0.00000000000E+00 0. -1.
<scales pt_clust_3="55.38667" pt_clust_4="230.52218" pt_clust_5="34.83333" pt_clust_6="34.83333"></scales>
<clustering>
<clus scale="   34.833">  5  6 -1 -1</clus>
<clus scale="   55.387">  2  3  1 -1</clus>
<clus scale="  230.522">  2  4  1 -1</clus>
<clus scale="   55.387">  2  3  1 -1</clus>
</clustering>
</event>
<event>
 6    0  0.1622933E+002  0.6704240E+02  0.7546771E-02  0.1370449E+00
         21   -1    0    0  504  502  0.00000000000E+00  0.00000000000E+00  0.30098958494E+03  0.30098958494E+03  0.00000000000E+00 0.  1.
          1   -1    0    0  502    0 -0.00000000000E+00 -0.00000000000E+00 -0.15007720003E+04  0.15007720003E+04  0.00000000000E+00 0. -1.
         21    1    1    2  503  501 -0.22931319243E+02  0.77623898088E+02 -0.18463287888E+03  0.20159517584E+03  0.00000000000E+00 0.  1.
         21    1    1    2  504  505 -0.31265569966E+02  0.52671632376E+02  0.28146367249E+03  0.28805144619E+03  0.00000000000E+00 0.  1.
         21    1    1    2  505  503  0.56861266681E+02 -0.64566220368E+02 -0.26955322333E+03  0.28295042087E+03  0.00000000000E+00 0.  1.
          1    1    1    2  501    0 -0.26643774708E+01 -0.65729310095E+02 -0.10270599857E+04  0.10291645424E+04  0.00000000000E+00 0. -1.
<scales pt_clust_3="14000.00000" pt_clust_4="61.25224" pt_clust_5="61.37390" pt_clust_6="67.04240"></scales>
<clustering>
<clus scale="   61.252">  1  4  2 -1</clus>
<clus scale="   61.374">  1  5  2 -1</clus>
<clus scale="   67.042">  2  6  1 -1</clus>
<clus scale="   61.252">  1  3  2 -1</clus>
</clustering>
</event>
<event>
 6    0  0.1622933E+002  0.1508131E+03  0.7546771E-02  0.1199477E+00
         21   -1    0    0  501  502  0.00000000000E+00  0.00000000000E+00  0.37421166180E+03  0.37421166180E+03  0.00000000000E+00 0. -1.
          1   -1    0    0  505    0 -0.00000000000E+00 -0.00000000000E+00 -0.30886791913E+03  0.30886791913E+03  0.00000000000E+00 0.  1.
         21    1    1    2  503  504 -0.71199000246E+01 -0.42430403217E+02 -0.58672893743E+02  0.72756721708E+02  0.00000000000E+00 0. -1.
         21    1    1    2  504  502 -0.14556111005E+03 -0.16034354868E+02  0.28514865170E+03  0.32055403735E+03  0.00000000000E+00 0. -1.
         21    1    1    2  505  503 -0.40364739331E+02  0.13880447374E+02 -0.26976438398E+02  0.50494625746E+02  0.00000000000E+00 0.  1.
          1    1    1    2  501    0  0.19304574940E+03  0.44584310711E+02 -0.13415557688E+03  0.23927419613E+03  0.00000000000E+00 0.  1.
<scales pt_clust_3="42.56919" pt_clust_4="150.81313" pt_clust_5="42.68465" pt_clust_6="14000.00000"></scales>
<clustering>
<clus scale="   42.685">  2  5  1 -1</clus>
<clus scale="   42.569">  2  3  1 -1</clus>
<clus scale="  150.813">  1  4  2 -1</clus>
<clus scale="  150.813">  1  3  2 -1</clus>
</clustering>
</event>
<event>
 6    0  0.1622933E+002  0.1131981E+03  0.7546771E-02  0.1254759E+00
         21   -1    0    0  503  502  0.00000000000E+00  0.00000000000E+00  0.83576092678E+02  0.83576092678E+02  0.00000000000E+00 0.  1.
          2   -1    0    0  504    0 -0.00000000000E+00 -0.00000000000E+00 -0.42766417322E+04  0.42766417322E+04  0.00000000000E+00 0.  1.
         21    1    1    2  503  501  0.44591148016E+02 -0.44233261737E+02  0.65307017055E+02  0.90608820773E+02  0.00000000000E+00 0.  1.
         21    1    1    2  504  505 -0.30408768433E+02  0.10941584366E+02 -0.12846702278E+03  0.13246957164E+03  0.00000000000E+00 0. -1.
         21    1    1    2  505  502  0.10604749692E+03  0.50052307965E+02 -0.24820080598E+04  0.24847767131E+04  0.00000000000E+00 0. -1.
          2    1    1    2  501    0 -0.12022987650E+03 -0.16760630595E+02 -0.16478975739E+04  0.16523627193E+04  0.00000000000E+00 0.  1.
<scales pt_clust_3="62.71948" pt_clust_4="32.31736" pt_clust_5="113.19813" pt_clust_6="14000.00000"></scales>
<clustering>
<clus scale="   32.317">  2  4  1 -1</clus>
<clus scale="   62.719">  1  3  2 -1</clus>
<clus scale="  113.198">  2  5  1 -1</clus>
<clus scale="   62.719">  1  3  2 -1</clus>
</clustering>
</event>
<event>
 6    0  0.1622933E+002  0.1028093E+03  0.7546771E-02  0.1274497E+00
         21   -1    0    0  501  502  0.00000000000E+00  0.00000000000E+00  0.22182172845E+03  0.22182172845E+03  0.00000000000E+00 0.  1.
          2   -1    0    0  503    0 -0.00000000000E+00 -0.00000000000E+00 -0.66680988087E+03  0.66680988087E+03  0.00000000000E+00 0.  1.
         21    1    1    2  503  504  0.37002133751E+02  0.18463879676E+02 -0.80742180717E+02  0.90715888916E+02  0.00000000000E+00 0. -1.
         21    1    1    2  504  505 -0.45956065105E+02  0.53519959524E+02 -0.16916011654E+03  0.18327981617E+03  0.00000000000E+00 0.  1.
         21    1    1    2  505  502 -0.44359888551E+02 -0.94957964721E+02  0.19439683720E+03  0.22085050394E+03  0.00000000000E+00 0.  1.
          2    1    1    2  501    0  0.53313819904E+02  0.22974125520E+02 -0.38948269237E+03  0.39378540030E+03  0.00000000000E+00 0.  1.
<scales pt_clust_3="41.35303" pt_clust_4="68.56821" pt_clust_5="14000.00000" pt_clust_6="102.80931"></scales>
<clustering>
<clus scale="   41.353">  2  3  1 -1</clus>
<clus scale="   68.568">  2  4  1 -1</clus>
<clus scale="  102.809">  2  6  1 -1</clus>
<clus scale="  102.809">  1  3  2 -1</clus>
</clustering>
</event>
<event>
 6    0  0.1622933E+002  0.1016330E+03  0.7546771E-02  0.1276899E+00
         21   -1    0    0  503  502  0.00000000000E+00  0.00000000000E+00  0.94369306515E+03  0.94369306515E+03  0.00000000000E+00 0.  1.
          2   -1    0    0  504    0 -0.00000000000E+00 -0.00000000000E+00 -0.33736137763E+03  0.33736137763E+03  0.00000000000E+00 0.  1.
         21    1    1    2  503  501 -0.92261576138E+02 -0.47507682517E+02  0.34020879743E+01  0.10383040274E+03  0.00000000000E+00 0.  1.
         21    1    1    2  504  505  0.46613180268E+02  0.11593208609E+03 -0.22063692105E+02  0.12688515937E+03  0.00000000000E+00 0. -1.
         21    1    1    2  505  502  0.38248415897E+02 -0.13203775623E+02  0.83351797087E+03  0.83449954391E+03  0.00000000000E+00 0.  1.
          2    1    1    2  501    0  0.73999799730E+01 -0.55220627948E+02 -0.20852467922E+03  0.21583933677E+03  0.00000000000E+00 0.  1.
<scales pt_clust_3="14000.00000" pt_clust_4="101.63305" pt_clust_5="40.46333" pt_clust_6="56.33291"></scales>
<clustering>
<clus scale="   40.463">  1  5  2 -1</clus>
<clus scale="   56.333">  2  6  1 -1</clus>
<clus scale="  101.633">  2  4  1 -1</clus>
<clus scale="   40.463">  1  3  2 -1</clus>
</clustering>
</event>
<event>
 6    0  0.1622933E+002  0.9367985E+02  0.7546771E-02  0.1294177E+00
         21   -1    0    0  501  502  0.00000000000E+00  0.00000000000E+00  0.86467444301E+03  0.86467444301E+03  0.00000000000E+00 0.  1.
          1   -1    0    0  504    0 -0.00000000000E+00 -0.00000000000E+00 -0.15486633485E+04  0.15486633485E+04  0.00000000000E+00 0. -1.
         21    1    1    2  503  502 -0.20187235606E+01  0.93717132780E+02  0.84924786048E+03  0.85440558563E+03  0.00000000000E+00 0.  1.
         21    1    1    2  504  505  0.20481324959E+02  0.22592234863E+02 -0.26936267114E+03  0.27108327567E+03  0.00000000000E+00 0. -1.
         21    1    1    2  505  503 -0.91594714067E+02 -0.71139669200E+02 -0.10636458270E+04  0.10699499472E+04  0.00000000000E+00 0. -1.
          1    1    1    2  501    0  0.73132112668E+02 -0.45169698443E+02 -0.20022826780E+03  0.21789898299E+03  0.00000000000E+00 0. -1.
<scales pt_clust_3="93.67985" pt_clust_4="30.49416" pt_clust_5="14000.00000" pt_clust_6="87.00345"></scales>
<clustering>
<clus scale="   30.494">  2  4  1 -1</clus>
<clus scale="   87.003">  2  6  1 -1</clus>
<clus scale="   93.680">  1  3  2 -1</clus>
<clus scale="   93.680">  1  3  2 -1</clus>
</clustering>
</event>
<event>
 6    0  0.1622933E+002  0.1886864E+03  0.7546771E-02  0.1159652E+00
          3   -1    0    0  504    0 -0.00000000000E+00  0.00000000000E+00  0.13412296645E+03  0.13412296645E+03  0.00000000000E+00 0. -1.
         21   -1    0    0  505  502  0.00000000000E+00 -0.00000000000E+00 -0.75957664839E+03  0.75957664839E+03  0.00000000000E+00 0.  1.
         21    1    1    2  503  502 -0.98933699626E+02 -0.16704441741E+03 -0.48469327694E+03  0.52212956919E+03  0.00000000000E+00 0.  1.
         21    1    1    2  504  503 -0.37399310610E+02 -0.39644519172E+02 -0.33557145276E+02  0.64003736872E+02  0.00000000000E+00 0.  1.
         21    1    1    2  505  501  0.14087768096E+03  0.11564394489E+03 -0.11590211999E+03  0.21599385269E+03  0.00000000000E+00 0. -1.
          3    1    1    2  501    0 -0.45446707277E+01  0.91044991693E+02  0.86988602751E+01  0.91572456090E+02  0.00000000000E+00 0. -1.
<scales pt_clust_3="14000.00000" pt_clust_4="54.50134" pt_clust_5="188.68635" pt_clust_6="77.05443"></scales>
<clustering>
<clus scale="   54.501">  1  4  2 -1</clus>
<clus scale="   77.054">  1  6  2 -1</clus>
<clus scale="  188.686">  1  5  2 -1</clus>
<clus scale="  188.686">  2  3  1 -1</clus>
</clustering>
</event>
<event>
 6    0  0.1622933E+002  0.9296549E+02  0.7546771E-02  0.1295825E+00
         21   -1    0    0  504  502  0.00000000000E+00  0.00000000000E+00  0.40140560276E+03  0.40140560276E+03  0.00000000000E+00 0. -1.
         -1   -1    0    0    0  501 -0.00000000000E+00 -0.00000000000E+00 -0.68348380551E+03  0.68348380551E+03  0.00000000000E+00 0.  1.
         21    1    1    2  503  501  0.42748516367E+02  0.96524468525E+01 -0.25128778045E+02  0.50517926204E+02  0.00000000000E+00 0.  1.
         21    1    1    2  504  503 -0.48598489570E+02  0.32069107111E+02  0.37030372113E+03  0.37485342029E+03  0.00000000000E+00 0. -1.
         21    1    1    2  505  502 -0.71062109771E+02  0.20640087296E+02 -0.10806924993E+03  0.13097633156E+03  0.00000000000E+00 0.  1.
         -1    1    1    2    0  505  0.76912082974E+02 -0.62361641259E+02 -0.51918389591E+03  0.52854173022E+03  0.00000000000E+00 0.  1.
<scales pt_clust_3="43.82471" pt_clust_4="58.11890" pt_clust_5="92.96549" pt_clust_6="14000.00000"></scales>
<clustering>
<clus scale="   43.825">  2  3  1 -1</clus>
<clus scale="   58.119">  1  4  2 -1</clus>
<clus scale="   92.965">  1  5  2 -1</clus>
<clus scale="   58.119">  1  3  2 -1</clus>
</clustering>
</event>
<event>
 6    0  0.1622933E+002  0.9681864E+02  0.7546771E-02  0.1287132E+00
         21   -1    0    0  504  502  0.00000000000E+00  0.00000000000E+00  0.10187163020E+03  0.10187163020E+03  0.00000000000E+00 0.  1.
          1   -1    0    0  505    0 -0.00000000000E+00 -0.00000000000E+00 -0.19424122650E+04  0.19424122650E+04  0.00000000000E+00 0. -1.
         21    1    1    2  503  502 -0.31604728855E+02 -0.10398317469E+02  0.84994883889E+02  0.91274937302E+02  0.00000000000E+00 0.  1.
         21    1    1    2  504  501 -0.72858442593E+02 -0.37026613489E+02 -0.14024714222E+03  0.16232246814E+03  0.00000000000E+00 0. -1.
         21    1    1    2  505  503  0.59666670505E+02 -0.14248629390E+02 -0.92254350707E+03  0.92458080093E+03  0.00000000000E+00 0. -1.
          1    1    1    2  501    0  0.44796500943E+02  0.61673560348E+02 -0.86274486942E+03  0.86610568884E+03  0.00000000000E+00 0. -1.
<scales pt_clust_3="33.27137" pt_clust_4="14000.00000" pt_clust_5="59.25808" pt_clust_6="96.81864"></scales>
<clustering>
<clus scale="   33.271">  1  3  2 -1</clus>
<clus scale="   59.258">  2  5  1 -1</clus>
<clus scale="   96.819">  2  6  1 -1</clus>
<clus scale="   33.271">  1  3  2 -1</clus>
</clustering>
</event>
<event>
 6    0  0.1622933E+002  0.1322103E+03  0.7546771E-02  0.1224212E+00
          2   -1    0    0  503    0 -0.00000000000E+00  0.00000000000E+00  0.48507363039E+03  0.48507363039E+03  0.00000000000E+00 0.  1.
         21   -1    0    0  504  502  0.00000000000E+00 -0.00000000000E+00 -0.81677866991E+03  0.81677866991E+03  0.00000000000E+00 0. -1.
         21    1    1    2  503  505  0.96816764614E+01  0.35711892482E+02 -0.10147610897E+01  0.37014914073E+02  0.00000000000E+00 0. -1.
         21    1    1    2  504  501  0.73826995727E+00  0.13276234777E+03 -0.77383798227E+03  0.78514432357E+03  0.00000000000E+00 0. -1.
         21    1    1    2  505  502  0.18272288665E+02 -0.69529030804E+02  0.11377056383E+03  0.13458047351E+03  0.00000000000E+00 0.  1.
          2    1    1    2  501    0 -0.28692235084E+02 -0.98945209447E+02  0.32937714001E+03  0.34511258915E+03  0.00000000000E+00 0.  1.
<scales pt_clust_3="37.00100" pt_clust_4="132.21026" pt_clust_5="63.55103" pt_clust_6="14000.00000"></scales>
<clustering>
<clus scale="   37.001">  1  3  2 -1</clus>
<clus scale="   63.551">  1  5  2 -1</clus>
<clus scale="  132.210">  2  4  1 -1</clus>
<clus scale="  132.210">  2  3  1 -1</clus>
</clustering>
</event>
<event>
 6    0  0.1622933E+002  0.1366455E+03  0.7546771E-02  0.1217915E+00
          3   -1    0    0  503    0 -0.00000000000E+00  0.00000000000E+00  0.19021646199E+04  0.19021646199E+04  0.00000000000E+00 0.  1.
         21   -1    0    0  505  502  0.00000000000E+00 -0.00000000000E+00 -0.12032789263E+03  0.12032789263E+03  0.00000000000E+00 0.  1.
         21    1    1    2  503  502 -0.20719894889E+02 -0.24966003276E+02 -0.10294090747E+03  0.10793259839E+03  0.00000000000E+00 0.  1.
         21    1    1    2  504  501  0.13832617730E+03  0.57298699092E+02  0.89964881003E+03  0.91202261684E+03  0.00000000000E+00 0.  1.
         21    1    1    2  505  504  0.13363874434E+02 -0.29325409559E+02  0.59348203538E+02  0.67533562389E+02  0.00000000000E+00 0.  1.
          3    1    1    2  501    0 -0.13097015684E+03 -0.30072862566E+01  0.92578062118E+03  0.93500373492E+03  0.00000000000E+00 0.  1.
<scales pt_clust_3="52.27883" pt_clust_4="136.64547" pt_clust_5="32.22690" pt_clust_6="14000.00000"></scales>
<clustering>
<clus scale="   32.227">  2  5  1 -1</clus>
<clus scale="   52.279">  2  3  1 -1</clus>
<clus scale="  136.645">  2  4  1 -1</clus>
<clus scale="   32.227">  2  3  1 -1</clus>
</clustering>
</event>
<event>
 6    0  0.1622933E+002  0.3089792E+03  0.7546771E-02  0.1080836E+00
          2   -1    0    0  503    0 -0.00000000000E+00  0.00000000000E+00  0.10486693754E+04  0.10486693754E+04  0.00000000000E+00 0.  1.
         21   -1    0    0  501  502  0.00000000000E+00 -0.00000000000E+00 -0.23371127228E+03  0.23371127228E+03  0.00000000000E+00 0. -1.
         21    1    1    2  503  505  0.35151779830E+01 -0.27521665505E+03  0.45489034510E+03  0.53167827655E+03  0.00000000000E+00 0. -1.
         21    1    1    2  504  502  0.41684931169E+02  0.22209089463E+02 -0.33826828874E+02  0.58095881894E+02  0.00000000000E+00 0. -1.
         21    1    1    2  505  504  0.66568321915E+02 -0.11658884655E+03 -0.90030425353E+01  0.13455614217E+03  0.00000000000E+00 0. -1.
          2    1    1    2  501    0 -0.11176843107E+03  0.36959641213E+03  0.40289762939E+03  0.55805034702E+03  0.00000000000E+00 0.  1.
<scales pt_clust_3="308.97919" pt_clust_4="47.23216" pt_clust_5="135.98626" pt_clust_6="14000.00000"></scales>
<clustering>
<clus scale="   47.232">  2  4  1 -1</clus>
<clus scale="  135.986">  2  5  1 -1</clus>
<clus scale="  308.979">  1  3  2 -1</clus>
<clus scale="   47.232">  2  3  1 -1</clus>
</clustering>
</event>
<event>
 6    0  0.1622933E+002  0.2025130E+03  0.7546771E-02  0.1147636E+00
         21   -1    0    0  505  502  0.00000000000E+00  0.00000000000E+00  0.12052407967E+04  0.12052407967E+04  0.00000000000E+00 0.  1.
          1   -1    0    0  503    0 -0.00000000000E+00 -0.00000000000E+00 -0.10798601203E+04  0.10798601203E+04  0.00000000000E+00 0.  1.
         21    1    1    2  503  502  0.32482806520E+02 -0.11615655793E+03 -0.17885553375E+03  0.21572385270E+03  0.00000000000E+00 0.  1.
         21    1    1    2  504  501 -0.16024615958E+02  0.17165708762E+03 -0.82723311179E+02  0.19122261964E+03  0.00000000000E+00 0. -1.
         21    1    1    2  505  504 -0.11051107662E+03  0.60306896602E+02  0.11215366998E+04  0.11285806080E+04  0.00000000000E+00 0.  1.
          1    1    1    2  501    0  0.94052886059E+02 -0.11580742629E+03 -0.73457717846E+03  0.74957383658E+03  0.00000000000E+00 0.  1.
<scales pt_clust_3="120.61293" pt_clust_4="14000.00000" pt_clust_5="125.55992" pt_clust_6="202.51298"></scales>
<clustering>
<clus scale="  120.613">  2  3  1 -1</clus>
<clus scale="  125.560">  1  5  2 -1</clus>
<clus scale="  202.513">  2  6  1 -1</clus>
<clus scale="  125.560">  1  3  2 -1</clus>
</clustering>
</event>
<event>
 6    0  0.1622933E+002  0.1222721E+03  0.7546771E-02  0.1239395E+00
         21   -1    0    0  505  502  0.00000000000E+00  0.00000000000E+00  0.11788958915E+03  0.11788958915E+03  0.00000000000E+00 0. -1.
          1   -1    0    0  504    0 -0.00000000000E+00 -0.00000000000E+00 -0.14419106149E+04  0.14419106149E+04  0.00000000000E+00 0. -1.
         21    1    1    2  503  502  0.10237523986E+03 -0.19442180101E+02 -0.64590836376E+02  0.12259960949E+03  0.00000000000E+00 0. -1.
         21    1    1    2  504  503 -0.26124628624E+02 -0.51618586468E+02 -0.35735789194E+03  0.36201054905E+03  0.00000000000E+00 0.  1.
         21    1    1    2  505  501  0.27384519990E+02  0.23609560742E+02  0.79335060614E+02  0.87185865461E+02  0.00000000000E+00 0. -1.
          1    1    1    2  501    0 -0.10363513122E+03  0.47451205827E+02 -0.98140735806E+03  0.98800418006E+03  0.00000000000E+00 0. -1.
<scales pt_clust_3="122.27209" pt_clust_4="55.61488" pt_clust_5="36.15693" pt_clust_6="14000.00000"></scales>
<clustering>
<clus scale="   36.157">  1  5  2 -1</clus>
<clus scale="   55.615">  2  4  1 -1</clus>
<clus scale="  122.272">  1  3  2 -1</clus>
<clus scale="   36.157">  1  3  2 -1</clus>
</clustering>
</event>
<event>
 6    0  0.1622933E+002  0.2226547E+03  0.7546771E-02  0.1131919E+00
         21   -1    0    0  505  502  0.00000000000E+00  0.00000000000E+00  0.44198648399E+02  0.44198648399E+02  0.00000000000E+00 0.  1.
          2   -1    0    0  504    0 -0.00000000000E+00 -0.00000000000E+00 -0.35962561081E+04  0.35962561081E+04  0.00000000000E+00 0. -1.
         21    1    1    2  503  502  0.12116483113E+01 -0.51495849813E+02  0.84715214888E+01  0.52202081529E+02  0.00000000000E+00 0.  1.
         21    1    1    2  504  503 -0.10099520130E+02 -0.19444191946E+03 -0.14258271382E+04  0.14390596543E+04  0.00000000000E+00 0.  1.
         21    1    1    2  505  501  0.62903876378E+01  0.96820055817E+02 -0.10091186279E+04  0.10137722117E+04  0.00000000000E+00 0.  1.
          2    1    1    2  501    0  0.25974841810E+01  0.14911771346E+03 -0.11255832151E+04  0.11354208090E+04  0.00000000000E+00 0. -1.
<scales pt_clust_3="51.51010" pt_clust_4="219.22774" pt_clust_5="31.38691" pt_clust_6="31.38691"></scales>
<clustering>
<clus scale="   31.387">  5  6 -1 -1</clus>
<clus scale="   51.510">  1  3  2 -1</clus>
<clus scale="  219.228">  2  4  1 -1</clus>
<clus scale="   51.510">  1  3  2 -1</clus>
</clustering>
</event>
<event>
 6    0  0.1622933E+002  0.9786908E+02  0.7546771E-02  0.1284842E+00
         21   -1    0    0  505  502  0.00000000000E+00  0.00000000000E+00  0.13742486853E+03  0.13742486853E+03  0.00000000000E+00 0. -1.
          2   -1    0    0  503    0 -0.00000000000E+00 -0.00000000000E+00 -0.11924018806E+04  0.11924018806E+04  0.00000000000E+00 0. -1.
         21    1    1    2  503  504 -0.40701610775E+02  0.14341982804E+02 -0.78352291387E+02  0.89450517920E+02  0.00000000000E+00 0. -1.
         21    1    1    2  504  502 -0.54970288637E+02  0.58178350328E+02  0.11535626726E+03  0.14040484848E+03  0.00000000000E+00 0. -1.
         21    1    1    2  505  501  0.38862560413E+02 -0.85605012258E+00 -0.24452428295E+03  0.24759474222E+03  0.00000000000E+00 0. -1.
          2    1    1    2  501    0  0.56809338999E+02 -0.71664283009E+02 -0.84745670496E+03  0.85237664048E+03  0.00000000000E+00 0. -1.
<scales pt_clust_3="43.15453" pt_clust_4="80.47424" pt_clust_5="36.31329" pt_clust_6="36.31329"></scales>
<clustering>
<clus scale="   36.313">  5  6 -1 -1</clus>
<clus scale="   43.155">  2  3  1 -1</clus>
<clus scale="   80.474">  1  4  2 -1</clus>
<clus scale="   80.474">  1  3  2 -1</clus>
</clustering>
</event>
<event>
 6    0  0.1622933E+002  0.1216503E+03  0.7546771E-02  0.1240399E+00
         21   -1    0    0  501  502  0.00000000000E+00  0.00000000000E+00  0.55056417579E+03  0.55056417579E+03  0.00000000000E+00 0.  1.
          2   -1    0    0  505    0 -0.00000000000E+00 -0.00000000000E+00 -0.12798704793E+03  0.12798704793E+03  0.00000000000E+00 0.  1.
         21    1    1    2  503  502 -0.94548750431E+02  0.19168437860E+02  0.39799451869E+03  0.40951988002E+03  0.00000000000E+00 0.  1.
         21    1    1    2  504  503  0.56097518989E+02  0.16751028098E+02 -0.18951247452E+02  0.61535992386E+02  0.00000000000E+00 0.  1.
         21    1    1    2  505  504  0.52315204390E+02  0.34323611753E+02 -0.56617490375E+02  0.84383239749E+02  0.00000000000E+00 0.  1.
          2    1    1    2  501    0 -0.13863972948E+02 -0.70243077711E+02  0.10015134699E+03  0.12311211158E+03  0.00000000000E+00 0.  1.
<scales pt_clust_3="116.52873" pt_clust_4="33.78438" pt_clust_5="33.78438" pt_clust_6="71.59818"></scales>
<clustering>
<clus scale="   33.784">  4  5 -1 -1</clus>
<clus scale="   71.598">  1  6  2 -1</clus>
<clus scale="  116.529">  1  3  2 -1</clus>
<clus scale="   71.598">  1  3  2 -1</clus>
</clustering>
</event>
<event>
 6    0  0.1622933E+002  0.9973502E+02  0.7546771E-02  0.1280854E+00
         -3   -1    0    0    0  501 -0.00000000000E+00  0.00000000000E+00  0.13278355419E+04  0.13278355419E+04  0.00000000000E+00 0.  1.
         21   -1    0    0  501  502  0.00000000000E+00 -0.00000000000E+00 -0.51994761686E+03  0.51994761686E+03  0.00000000000E+00 0. -1.
         21    1    1    2  503  505 -0.30362920758E+02  0.49098270001E+02  0.84483775917E+02  0.10232328898E+03  0.00000000000E+00 0. -1.
         21    1    1    2  504  503 -0.72546920474E+02  0.26250128263E+02  0.21156612127E+03  0.22519402428E+03  0.00000000000E+00 0. -1.
         21    1    1    2  505  502  0.30142179156E+02 -0.49306149652E+02 -0.50108104488E+03  0.50440247907E+03  0.00000000000E+00 0. -1.
         -3    1    1    2    0  504  0.72767662076E+02 -0.26042248611E+02  0.10129190727E+04  0.10158633664E+04  0.00000000000E+00 0.  1.
<scales pt_clust_3="50.09826" pt_clust_4="50.09826" pt_clust_5="57.78968" pt_clust_6="81.19631"></scales>
<clustering>
<clus scale="   50.098">  3  4 -1 -1</clus>
<clus scale="   57.790">  2  5  1 -1</clus>
<clus scale="   81.196">  1  6  2 -1</clus>
<clus scale="   57.790">  2  3  1 -1</clus>
</clustering>
</event>
<event>
 6    0  0.1622933E+002  0.1708975E+03  0.7546771E-02  0.1176915E+00
         -1   -1    0    0    0  501 -0.00000000000E+00  0.00000000000E+00  0.10774104863E+04  0.10774104863E+04  0.00000000000E+00 0. -1.
         21   -1    0    0  505  502  0.00000000000E+00 -0.00000000000E+00 -0.19442933540E+03  0.19442933540E+03  0.00000000000E+00 0.  1.
         21    1    1    2  503  502  0.91010740705E+02  0.15532546793E+03 -0.10298010155E+03  0.20739782358E+03  0.00000000000E+00 0.  1.
         21    1    1    2  504  501  0.45773232503E+02 -0.18975794069E+02  0.46367002854E+03  0.46631015960E+03  0.00000000000E+00 0. -1.
         21    1    1    2  505  504  0.31750263543E+02 -0.11636039965E+03  0.19092214582E+03  0.22582977573E+03  0.00000000000E+00 0. -1.
         -1    1    1    2    0  503 -0.16853423675E+03 -0.19989274211E+02  0.33136907805E+03  0.37230206275E+03  0.00000000000E+00 0. -1.
<scales pt_clust_3="14000.00000" pt_clust_4="49.55068" pt_clust_5="131.61919" pt_clust_6="170.89747"></scales>
<clustering>
<clus scale="   49.551">  1  4  2 -1</clus>
<clus scale="  131.619">  1  5  2 -1</clus>
<clus scale="  170.897">  1  6  2 -1</clus>
<clus scale="  170.897">  2  3  1 -1</clus>
</clustering>
</event>
<event>
 6    0  0.1622933E+002  0.3348837E+03  0.7546771E-02  0.1068996E+00
          2   -1    0    0  504    0 -0.00000000000E+00  0.00000000000E+00  0.86437277446E+03  0.86437277446E+03  0.00000000000E+00 0. -1.
         21   -1    0    0  503  502  0.00000000000E+00 -0.00000000000E+00 -0.22232023516E+03  0.22232023516E+03  0.00000000000E+00 0. -1.
         21    1    1    2  503  501  0.60313134447E+02 -0.13131490801E+02 -0.20633798445E+02  0.65083514623E+02  0.00000000000E+00 0.  1.
         21    1    1    2  504  505  0.61652874639E+02 -0.32688421573E+02  0.11367012286E+03  0.13338105820E+03  0.00000000000E+00 0.  1.
         21    1    1    2  505  502 -0.31574293326E+03  0.20662123582E+03  0.50845420781E+03  0.63317581794E+03  0.00000000000E+00 0. -1.
          2    1    1    2  501    0  0.19377692417E+03 -0.16080132344E+03  0.40562007076E+02  0.25505261885E+03  0.00000000000E+00 0. -1.
<scales pt_clust_3="42.23146" pt_clust_4="69.78259" pt_clust_5="323.83859" pt_clust_6="42.23146"></scales>
<clustering>
<clus scale="   42.231">  3  6 -1 -1</clus>
<clus scale="   69.783">  1  4  2 -1</clus>
<clus scale="  323.839">  1  5  2 -1</clus>
<clus scale="  334.884">  2  3  1 -1</clus>
</clustering>
</event>
<event>
 6    0  0.1622933E+002  0.6611230E+02  0.7546771E-02  0.1373836E+00
         -2   -1    0    0    0  501 -0.00000000000E+00  0.00000000000E+00  0.86111568958E+02  0.86111568958E+02  0.00000000000E+00 0. -1.
         21   -1    0    0  503  502  0.00000000000E+00 -0.00000000000E+00 -0.11767631943E+04  0.11767631943E+04  0.00000000000E+00 0. -1.
         21    1    1    2  503  501 -0.10783677973E+03  0.27713155764E+02 -0.45726257112E+02  0.12036478162E+03  0.00000000000E+00 0. -1.
         21    1    1    2  504  505  0.41298085909E+02 -0.26521388915E+02 -0.28773657933E+02  0.56893227721E+02  0.00000000000E+00 0. -1.
         21    1    1    2  505  502  0.56835811157E+02 -0.31495723013E+02 -0.10423662378E+04  0.10443896130E+04  0.00000000000E+00 0. -1.
         -2    1    1    2    0  504  0.97028826629E+01  0.30303956164E+02  0.26214527551E+02  0.41227140889E+02  0.00000000000E+00 0. -1.
<scales pt_clust_3="14000.00000" pt_clust_4="47.59765" pt_clust_5="66.11230" pt_clust_6="31.81942"></scales>
<clustering>
<clus scale="   31.819">  1  6  2 -1</clus>
<clus scale="   47.598">  1  4  2 -1</clus>
<clus scale="   66.112">  2  5  1 -1</clus>
<clus scale="   66.112">  2  3  1 -1</clus>
</clustering>
</event>
<event>
 6    0  0.1622933E+002  0.7655283E+02  0.7546771E-02  0.1339129E+00
         21   -1    0    0  504  502  0.00000000000E+00  0.00000000000E+00  0.44667114699E+02  0.44667114699E+02  0.00000000000E+00 0.  1.
          2   -1    0    0  505    0 -0.00000000000E+00 -0.00000000000E+00 -0.65783923459E+03  0.65783923459E+03  0.00000000000E+00 0. -1.
         21    1    1    2  503  502 -0.38767968280E+01 -0.45009849631E+02 -0.94138462490E+02  0.10441726982E+03  0.00000000000E+00 0.  1.
         21    1    1    2  504  501  0.66494939220E+02  0.36299309418E+01 -0.38998654059E+02  0.77172847290E+02  0.00000000000E+00 0.  1.
         21    1    1    2  505  503  0.38319559992E+02  0.46720785319E+01 -0.35061402343E+03  0.35273277480E+03  0.00000000000E+00 0. -1.
          2    1    1    2  501    0 -0.10093770238E+03  0.36707840157E+02 -0.12942097991E+03  0.16818345737E+03  0.00000000000E+00 0. -1.
<scales pt_clust_3="44.32703" pt_clust_4="14000.00000" pt_clust_5="38.60333" pt_clust_6="76.55283"></scales>
<clustering>
<clus scale="   38.603">  2  5  1 -1</clus>
<clus scale="   44.327">  2  3  1 -1</clus>
<clus scale="   76.553">  2  6  1 -1</clus>
<clus scale="   76.553">  1  3  2 -1</clus>
</clustering>
</event>
<event>
 6    0  0.1622933E+002  0.1446955E+03  0.7546771E-02  0.1207147E+00
         21   -1    0    0  504  502  0.00000000000E+00  0.00000000000E+00  0.60358667044E+02  0.60358667044E+02  0.00000000000E+00 0. -1.
          3   -1    0    0  502    0 -0.00000000000E+00 -0.00000000000E+00 -0.20401338053E+04  0.20401338053E+04  0.00000000000E+00 0.  1.
         21    1    1    2  503  501 -0.94247419960E+02  0.62998509186E+02 -0.12168735068E+04  0.12221425939E+04  0.00000000000E+00 0.  1.
         21    1    1    2  504  505  0.57507960001E+02 -0.87804268135E+01  0.32822308790E+02  0.66794949755E+02  0.00000000000E+00 0. -1.
         21    1    1    2  505  503  0.87066024743E+02 -0.46903823253E+02 -0.37706351243E+03  0.38981707724E+03  0.00000000000E+00 0. -1.
          3    1    1    2  501    0 -0.50326564783E+02 -0.73142591191E+01 -0.41866042788E+03  0.42173785149E+03  0.00000000000E+00 0.  1.
<scales pt_clust_3="38.87766" pt_clust_4="58.17440" pt_clust_5="132.54239" pt_clust_6="38.87766"></scales>
<clustering>
<clus scale="   38.878">  3  6 -1 -1</clus>
<clus scale="   58.174">  1  4  2 -1</clus>
<clus scale="  132.542">  1  5  2 -1</clus>
<clus scale="   58.174">  1  3  2 -1</clus>
</clustering>
</event>
<event>
 6    0  0.1622933E+002  0.1177364E+03  0.7546771E-02  0.1246879E+00
          2   -1    0    0  505    0 -0.00000000000E+00  0.00000000000E+00  0.16226779207E+04  0.16226779207E+04  0.00000000000E+00 0.  1.
         21   -1    0    0  501  502  0.00000000000E+00 -0.00000000000E+00 -0.34230889600E+02  0.34230889600E+02  0.00000000000E+00 0.  1.
         21    1    1    2  503  504 -0.57678373278E+02  0.13469610360E+02  0.64879507291E+03  0.65149310954E+03  0.00000000000E+00 0.  1.
         21    1    1    2  504  502 -0.53076636511E+02  0.97490155484E+02  0.11325076085E+03  0.15857867005E+03  0.00000000000E+00 0.  1.
         21    1    1    2  505  503  0.29776684475E+02  0.16002133029E+02  0.17767699512E+03  0.18086413076E+03  0.00000000000E+00 0. -1.
          2    1    1    2  501    0  0.80978325314E+02 -0.12696189887E+03  0.64872420224E+03  0.66597289998E+03  0.00000000000E+00 0.  1.
<scales pt_clust_3="48.85749" pt_clust_4="117.73637" pt_clust_5="33.80413" pt_clust_6="14000.00000"></scales>
<clustering>
<clus scale="   33.804">  1  5  2 -1</clus>
<clus scale="   48.857">  1  3  2 -1</clus>
<clus scale="  117.736">  2  4  1 -1</clus>
<clus scale="  117.736">  2  3  1 -1</clus>
</clustering>
</event>
<event>
 6    0  0.1622933E+002  0.9064088E+02  0.7546771E-02  0.1301307E+00
         21   -1    0    0  504  502  0.00000000000E+00  0.00000000000E+00  0.18340813378E+02  0.18340813378E+02  0.00000000000E+00 0. -1.
          2   -1    0    0  503    0 -0.00000000000E+00 -0.00000000000E+00 -0.37898964210E+04  0.37898964210E+04  0.00000000000E+00 0.  1.
         21    1    1    2  503  505  0.51940143903E+01  0.34075046662E+02 -0.25532590498E+04  0.25534917000E+04  0.00000000000E+00 0.  1.
         21    1    1    2  504  501  0.85538146417E+02 -0.10348300407E+03 -0.60961860316E+03  0.62422780132E+03  0.00000000000E+00 0. -1.
         21    1    1    2  505  502 -0.30641681297E+02  0.73082184474E+02 -0.16806690747E+03  0.18581281900E+03  0.00000000000E+00 0. -1.
          2    1    1    2  501    0 -0.60090479510E+02 -0.36742270659E+01 -0.44061104724E+03  0.44470491410E+03  0.00000000000E+00 0.  1.
<scales pt_clust_3="34.46863" pt_clust_4="90.64088" pt_clust_5="14000.00000" pt_clust_6="58.85169"></scales>
<clustering>
<clus scale="   34.469">  2  3  1 -1</clus>
<clus scale="   58.852">  2  6  1 -1</clus>
<clus scale="   90.641">  2  4  1 -1</clus>
<clus scale="   90.641">  1  3  2 -1</clus>
</clustering>
</event>
<event>
 6    0  0.1622933E+002  0.8716926E+02  0.7546771E-02  0.1309855E+00
          1   -1    0    0  504    0 -0.00000000000E+00  0.00000000000E+00  0.10922334688E+04  0.10922334688E+04  0.00000000000E+00 0.  1.
         21   -1    0    0  505  502  0.00000000000E+00 -0.00000000000E+00 -0.79310766823E+02  0.79310766823E+02  0.00000000000E+00 0.  1.
         21    1    1    2  503  502  0.44771764003E+02  0.22670640815E+02 -0.49177970474E+02  0.70263373011E+02  0.00000000000E+00 0.  1.
         21    1    1    2  504  503  0.77710683108E+01 -0.61731776623E+02  0.91091885586E+02  0.11031288849E+03  0.00000000000E+00 0. -1.
         21    1    1    2  505  501  0.38665544138E+02  0.72029799786E+02  0.23972765794E+03  0.25328376644E+03  0.00000000000E+00 0.  1.
          1    1    1    2  501    0 -0.91208376452E+02 -0.32968663978E+02  0.73128112889E+03  0.73768420765E+03  0.00000000000E+00 0.  1.
<scales pt_clust_3="50.18435" pt_clust_4="58.69885" pt_clust_5="87.16926" pt_clust_6="14000.00000"></scales>
<clustering>
<clus scale="   50.184">  2  3  1 -1</clus>
<clus scale="   58.699">  2  4  1 -1</clus>
<clus scale="   87.169">  2  5  1 -1</clus>
<clus scale="   50.184">  2  3  1 -1</clus>
</clustering>
</event>
<event>
 6    0  0.1622933E+002  0.1945379E+03  0.7546771E-02  0.1154431E+00
         21   -1    0    0  504  502  0.00000000000E+00  0.00000000000E+00  0.15347805994E+03  0.15347805994E+03  0.00000000000E+00 0.  1.
         -2   -1    0    0    0  501 -0.00000000000E+00 -0.00000000000E+00 -0.10731198206E+04  0.10731198206E+04  0.00000000000E+00 0. -1.
         21    1    1    2  503  501  0.29428734820E+02 -0.38589094060E+02 -0.35851443170E+03  0.36178414331E+03  0.00000000000E+00 0. -1.
         21    1    1    2  504  503  0.63282501769E+02 -0.39266509675E+02 -0.99002805983E+02  0.12388740616E+03  0.00000000000E+00 0. -1.
         21    1    1    2  505  502 -0.49351007952E+02  0.20168848856E+03  0.48906948664E+02  0.21332055230E+03  0.00000000000E+00 0.  1.
         -2    1    1    2    0  505 -0.43360228637E+02 -0.12383288483E+03 -0.51103147168E+03  0.52760577882E+03  0.00000000000E+00 0. -1.
<scales pt_clust_3="48.53008" pt_clust_4="81.60873" pt_clust_5="14000.00000" pt_clust_6="194.53787"></scales>
<clustering>
<clus scale="   48.530">  2  3  1 -1</clus>
<clus scale="   81.609">  2  4  1 -1</clus>
<clus scale="  194.538">  2  6  1 -1</clus>
<clus scale="  194.538">  1  3  2 -1</clus>
</clustering>
</event>
<event>
 6    0  0.1622933E+002  0.9370676E+02  0.7546771E-02  0.1294116E+00
          1   -1    0    0  505    0 -0.00000000000E+00  0.00000000000E+00  0.96589593266E+03  0.96589593266E+03  0.00000000000E+00 0.  1.
         21   -1    0    0  503  502  0.00000000000E+00 -0.00000000000E+00 -0.27337025358E+03  0.27337025358E+03  0.00000000000E+00 0.  1.
         21    1    1    2  503  504  0.93972684811E+01 -0.48003457524E+02 -0.22592321372E+03  0.23115782289E+03  0.00000000000E+00 0.  1.
         21    1    1    2  504  501  0.87631782896E+01 -0.54351729978E+02  0.28859040817E+02  0.62159054708E+02  0.00000000000E+00 0.  1.
         21    1    1    2  505  502 -0.60600409932E+02  0.15464176055E+03  0.23424566646E+03  0.28715416773E+03  0.00000000000E+00 0.  1.
          1    1    1    2  501    0  0.42439963161E+02 -0.52286573046E+02  0.65534418552E+03  0.65879514091E+03  0.00000000000E+00 0.  1.
<scales pt_clust_3="48.91463" pt_clust_4="14000.00000" pt_clust_5="93.70676" pt_clust_6="69.01083"></scales>
<clustering>
<clus scale="   48.915">  2  3  1 -1</clus>
<clus scale="   69.011">  1  6  2 -1</clus>
<clus scale="   93.707">  1  5  2 -1</clus>
<clus scale="   48.915">  2  3  1 -1</clus>
</clustering>
</event>
<event>
 6    0  0.1622933E+002  0.1211161E+03  0.7546771E-02  0.1241267E+00
          2   -1    0    0  505    0 -0.00000000000E+00  0.00000000000E+00  0.99002745431E+03  0.99002745431E+03  0.00000000000E+00 0. -1.
         21   -1    0    0  503  502  0.00000000000E+00 -0.00000000000E+00 -0.16010487677E+03  0.16010487677E+03  0.00000000000E+00 0.  1.
         21    1    1    2  503  504 -0.11130647388E+02  0.11040915046E+03 -0.12895641475E+03  0.17012885917E+03  0.00000000000E+00 0.  1.
         21    1    1    2  504  501 -0.36534252136E+02 -0.52030274658E+02  0.38530193470E+03  0.39051182050E+03  0.00000000000E+00 0. -1.
         21    1    1    2  505  502  0.48240243152E+02  0.23399885549E+02  0.19946758703E+03  0.20654780071E+03  0.00000000000E+00 0.  1.
          2    1    1    2  501    0 -0.57534362780E+00 -0.81778761350E+02  0.37410947055E+03  0.38294385070E+03  0.00000000000E+00 0. -1.
<scales pt_clust_3="111.45899" pt_clust_4="41.78562" pt_clust_5="53.61600" pt_clust_6="41.78562"></scales>
<clustering>
<clus scale="   41.786">  4  6 -1 -1</clus>
<clus scale="   53.616">  1  5  2 -1</clus>
<clus scale="  111.459">  2  3  1 -1</clus>
<clus scale="  111.459">  2  3  1 -1</clus>
</clustering>
</event>
<event>
 6    0  0.1622933E+002  0.1613526E+03  0.7546771E-02  0.1187178E+00
          1   -1    0    0  503    0 -0.00000000000E+00  0.00000000000E+00  0.22892374622E+04  0.22892374622E+04  0.00000000000E+00 0.  1.
         21   -1    0    0  504  502  0.00000000000E+00 -0.00000000000E+00 -0.78284472093E+02  0.78284472093E+02  0.00000000000E+00 0. -1.
         21    1    1    2  503  505  0.68848934220E+02  0.10984439473E+03  0.42419290545E+03  0.44356012877E+03  0.00000000000E+00 0. -1.
         21    1    1    2  504  501 -0.31582261911E+02 -0.41954139368E+02  0.37474769324E+03  0.37840906790E+03  0.00000000000E+00 0.  1.
         21    1    1    2  505  502  0.19264240704E+02  0.28295473169E+02 -0.60128915002E+02  0.69189819996E+02  0.00000000000E+00 0. -1.
          1    1    1    2  501    0 -0.56530913013E+02 -0.96185728532E+02  0.14721413064E+04  0.14763629176E+04  0.00000000000E+00 0.  1.
<scales pt_clust_3="153.95158" pt_clust_4="33.14167" pt_clust_5="34.23076" pt_clust_6="33.14167"></scales>
<clustering>
<clus scale="   33.142">  4  6 -1 -1</clus>
<clus scale="   34.231">  2  5  1 -1</clus>
<clus scale="  153.952">  2  3  1 -1</clus>
<clus scale="   34.231">  2  3  1 -1</clus>
</clustering>
</event>
<event>
 6    0  0.1622933E+002  0.1156269E+03  0.7546771E-02  0.1250491E+00
         -1   -1    0    0    0  501 -0.00000000000E+00  0.00000000000E+00  0.11270489964E+04  0.11270489964E+04  0.00000000000E+00 0.  1.
         21   -1    0    0  503  502  0.00000000000E+00 -0.00000000000E+00 -0.11492192785E+04  0.11492192785E+04  0.00000000000E+00 0. -1.
         21    1    1    2  503  504 -0.17340557735E+02  0.10312278103E+03 -0.10781981134E+04  0.10832572061E+04  0.00000000000E+00 0. -1.
         21    1    1    2  504  505  0.86355059890E+02 -0.13275853987E+03  0.90554616955E+02  0.18243400157E+03  0.00000000000E+00 0.  1.
         21    1    1    2  505  501 -0.98126849438E+02 -0.83659710218E+02  0.21244180629E+03  0.24851427877E+03  0.00000000000E+00 0.  1.
         -1    1    1    2    0  502  0.29112347284E+02  0.11329546905E+03  0.75303140807E+03  0.76206278849E+03  0.00000000000E+00 0.  1.
<scales pt_clust_3="104.57056" pt_clust_4="98.11959" pt_clust_5="115.62686" pt_clust_6="14000.00000"></scales>
<clustering>
<clus scale="  104.571">  2  3  1 -1</clus>
<clus scale="   98.120">  2  4  1 -1</clus>
<clus scale="  115.627">  2  5  1 -1</clus>
<clus scale="  104.571">  2  3  1 -1</clus>
</clustering>
</event>
<event>
 6    0  0.1622933E+002  0.1644256E+03  0.7546771E-02  0.1183789E+00
         21   -1    0    0  505  502  0.00000000000E+00  0.00000000000E+00  0.81755230001E+03  0.81755230001E+03  0.00000000000E+00 0.  1.
         -1   -1    0    0    0  501 -0.00000000000E+00 -0.00000000000E+00 -0.37348473610E+03  0.37348473610E+03  0.00000000000E+00 0. -1.
         21    1    1    2  503  501  0.15448688965E+02  0.28403709205E+02  0.98032404704E+01  0.33786627695E+02  0.00000000000E+00 0. -1.
         21    1    1    2  504  502  0.14393278909E+03  0.76226575046E+02  0.74090214717E+03  0.75859286195E+03  0.00000000000E+00 0.  1.
         21    1    1    2  505  503  0.35423732835E+02 -0.53339746734E+01 -0.36885164543E+02  0.51417968621E+02  0.00000000000E+00 0. -1.
         -1    1    1    2    0  504 -0.19480521089E+03 -0.99296309577E+02 -0.26975265919E+03  0.34723957785E+03  0.00000000000E+00 0. -1.
<scales pt_clust_3="32.33315" pt_clust_4="14000.00000" pt_clust_5="37.35716" pt_clust_6="164.42562"></scales>
<clustering>
<clus scale="   32.333">  2  3  1 -1</clus>
<clus scale="   37.357">  2  5  1 -1</clus>
<clus scale="  164.426">  2  6  1 -1</clus>
<clus scale="  164.426">  1  3  2 -1</clus>
</clustering>
</event>
<event>
 6    0  0.1622933E+002  0.9690921E+02  0.7546771E-02  0.1286933E+00
         21   -1    0    0  503  502  0.00000000000E+00  0.00000000000E+00  0.15901462718E+03  0.15901462718E+03  0.00000000000E+00 0. -1.
         -1   -1    0    0    0  501 -0.00000000000E+00 -0.00000000000E+00 -0.69842828706E+03  0.69842828706E+03  0.00000000000E+00 0. -1.
         21    1    1    2  503  505  0.43322596505E+02 -0.13340885234E+02  0.11890609658E+03  0.12725363016E+03  0.00000000000E+00 0. -1.
         21    1    1    2  504  501 -0.57761306483E+02  0.13450111432E+02 -0.40121741125E+03  0.40557697804E+03  0.00000000000E+00 0. -1.
         21    1    1    2  505  504  0.77172292553E+02  0.69867642083E+02 -0.13025114934E+03  0.16674055311E+03  0.00000000000E+00 0. -1.
         -1    1    1    2    0  502 -0.62733582575E+02 -0.69976868281E+02 -0.12685119588E+03  0.15787175293E+03  0.00000000000E+00 0. -1.
<scales pt_clust_3="45.33020" pt_clust_4="56.56396" pt_clust_5="14000.00000" pt_clust_6="96.90921"></scales>
<clustering>
<clus scale="   45.330">  1  3  2 -1</clus>
<clus scale="   56.564">  2  4  1 -1</clus>
<clus scale="   96.909">  1  6  2 -1</clus>
<clus scale="   45.330">  1  3  2 -1</clus>
</clustering>
</event>
<event>
 6    0  0.1622933E+002  0.1353862E+03  0.7546771E-02  0.1219676E+00
          2   -1    0    0  505    0 -0.00000000000E+00  0.00000000000E+00  0.35001296259E+04  0.35001296259E+04  0.00000000000E+00 0. -1.
         21   -1    0    0  503  502  0.00000000000E+00 -0.00000000000E+00 -0.10223594498E+02  0.10223594498E+02  0.00000000000E+00 0.  1.
         21    1    1    2  503  501  0.42794489922E+01 -0.13290383922E+03  0.71055129628E+03  0.72288649787E+03  0.00000000000E+00 0.  1.
         21    1    1    2  504  502  0.61294272140E+02  0.66135882853E+02  0.12206256896E+04  0.12239518034E+04  0.00000000000E+00 0. -1.
         21    1    1    2  505  504  0.52125511475E+01  0.45676150509E+02  0.45478751462E+03  0.45710520109E+03  0.00000000000E+00 0. -1.
          2    1    1    2  501    0 -0.70786272279E+02  0.21091805862E+02  0.11039415309E+04  0.11064097180E+04  0.00000000000E+00 0. -1.
<scales pt_clust_3="127.71551" pt_clust_4="32.07688" pt_clust_5="32.07688" pt_clust_6="73.86177"></scales>
<clustering>
<clus scale="   32.077">  4  5 -1 -1</clus>
<clus scale="   73.862">  1  6  2 -1</clus>
<clus scale="  127.716">  2  3  1 -1</clus>
<clus scale="  127.716">  2  3  1 -1</clus>
</clustering>
</event>
<event>
 6    0  0.1622933E+002  0.1687086E+03  0.7546771E-02  0.1179201E+00
         -2   -1    0    0    0  501 -0.00000000000E+00  0.00000000000E+00  0.17894437780E+03  0.17894437780E+03  0.00000000000E+00 0.  1.
         21   -1    0    0  505  502  0.00000000000E+00 -0.00000000000E+00 -0.36376883328E+03  0.36376883328E+03  0.00000000000E+00 0.  1.
         21    1    1    2  503  501  0.49766445698E+02 -0.45464358032E+02 -0.79340676196E+01  0.67872353706E+02  0.00000000000E+00 0.  1.
         21    1    1    2  504  502 -0.28163729238E+02 -0.34775604977E+02  0.27925272597E+02  0.52748072910E+02  0.00000000000E+00 0. -1.
         21    1    1    2  505  503  0.10553565009E+03  0.12053377837E+03 -0.23589028820E+03  0.28514977334E+03  0.00000000000E+00 0.  1.
         -2    1    1    2    0  504 -0.12713836655E+03 -0.40293815362E+02  0.31074627736E+02  0.13694301112E+03  0.00000000000E+00 0.  1.
<scales pt_clust_3="67.40702" pt_clust_4="30.36257" pt_clust_5="160.35903" pt_clust_6="30.36257"></scales>
<clustering>
<clus scale="   30.363">  4  6 -1 -1</clus>
<clus scale="   67.407">  1  3  2 -1</clus>
<clus scale="  160.359">  2  5  1 -1</clus>
<clus scale="  160.359">  2  3  1 -1</clus>
</clustering>
</event>
<event>
 6    0  0.1622933E+002  0.1351607E+03  0.7546771E-02  0.1219993E+00
         21   -1    0    0  503  502  0.00000000000E+00  0.00000000000E+00  0.78153814478E+02  0.78153814478E+02  0.00000000000E+00 0.  1.
          2   -1    0    0  505    0 -0.00000000000E+00 -0.00000000000E+00 -0.26506546133E+04  0.26506546133E+04  0.00000000000E+00 0.  1.
         21    1    1    2  503  501  0.95771585917E+02  0.16874781744E+03 -0.95033594097E+03  0.96994145352E+03  0.00000000000E+00 0.  1.
         21    1    1    2  504  502  0.18905468646E+01 -0.13263978135E+03 -0.63021793555E+01  0.13280287357E+03  0.00000000000E+00 0.  1.
         21    1    1    2  505  504 -0.88729804581E+02 -0.89603285046E+02 -0.10281823362E+04  0.10358864047E+04  0.00000000000E+00 0.  1.
          2    1    1    2  501    0 -0.89323282014E+01  0.53495248958E+02 -0.58768034233E+03  0.59017769604E+03  0.00000000000E+00 0.  1.
<scales pt_clust_3="14000.00000" pt_clust_4="135.16073" pt_clust_5="112.39861" pt_clust_6="54.23586"></scales>
<clustering>
<clus scale="   54.236">  2  6  1 -1</clus>
<clus scale="  112.399">  2  5  1 -1</clus>
<clus scale="  135.161">  1  4  2 -1</clus>
<clus scale="  135.161">  1  3  2 -1</clus>
</clustering>
</event>
<event>
 6    0  0.1622933E+002  0.1626876E+03  0.7546771E-02  0.1185695E+00
          1   -1    0    0  503    0 -0.00000000000E+00  0.00000000000E+00  0.26149097375E+04  0.26149097375E+04  0.00000000000E+00 0. -1.
         21   -1    0    0  504  502  0.00000000000E+00 -0.00000000000E+00 -0.14809551532E+02  0.14809551532E+02  0.00000000000E+00 0. -1.
         21    1    1    2  503  505 -0.13608382382E+03  0.17327224436E+02  0.99236264393E+03  0.10017997090E+04  0.00000000000E+00 0. -1.
         21    1    1    2  504  501  0.11232367323E+03 -0.62775802344E+01  0.11251368527E+04  0.11307470773E+04  0.00000000000E+00 0. -1.
         21    1    1    2  505  502 -0.39646373080E+02  0.67276988176E+01  0.83537065004E+02  0.92712124662E+02  0.00000000000E+00 0. -1.
          1    1    1    2  501    0  0.63406523671E+02 -0.17777343020E+02  0.39906362440E+03  0.40446037814E+03  0.00000000000E+00 0. -1.
<scales pt_clust_3="155.73104" pt_clust_4="36.00848" pt_clust_5="40.21314" pt_clust_6="36.00848"></scales>
<clustering>
<clus scale="   36.008">  4  6 -1 -1</clus>
<clus scale="   40.213">  2  5  1 -1</clus>
<clus scale="  155.731">  1  3  2 -1</clus>
<clus scale="   40.213">  2  3  1 -1</clus>
</clustering>
</event>
<event>
 6    0  0.1622933E+002  0.7718646E+02  0.7546771E-02  0.1337231E+00
          2   -1    0    0  504    0 -0.00000000000E+00  0.00000000000E+00  0.49323495062E+03  0.49323495062E+03  0.00000000000E+00 0. -1.
         21   -1    0    0  503  502  0.00000000000E+00 -0.00000000000E+00 -0.13328750536E+03  0.13328750536E+03  0.00000000000E+00 0. -1.
         21    1    1    2  503  501 -0.27321648748E+02  0.13087844411E+02  0.19612680933E+02  0.36089076118E+02  0.00000000000E+00 0. -1.
         21    1    1    2  504  505 -0.19528495599E+02  0.79412579542E+02 -0.64057895567E+02  0.10388038272E+03  0.00000000000E+00 0. -1.
         21    1    1    2  505  502  0.74971078644E+02 -0.20160833903E+02  0.29649356298E+01  0.77691136560E+02  0.00000000000E+00 0. -1.
          2    1    1    2  501    0 -0.28120934297E+02 -0.72339590051E+02  0.40142772426E+03  0.40886186058E+03  0.00000000000E+00 0. -1.
<scales pt_clust_3="30.29462" pt_clust_4="14000.00000" pt_clust_5="68.75570" pt_clust_6="77.18646"></scales>
<clustering>
<clus scale="   30.295">  2  3  1 -1</clus>
<clus scale="   68.756">  2  5  1 -1</clus>
<clus scale="   77.186">  1  6  2 -1</clus>
<clus scale="   30.295">  2  3  1 -1</clus>
</clustering>
</event>
<event>
 6    0  0.1622933E+002  0.1136152E+03  0.7546771E-02  0.1254018E+00
         21   -1    0    0  504  502  0.00000000000E+00  0.00000000000E+00  0.12122608982E+04  0.12122608982E+04  0.00000000000E+00 0. -1.
          2   -1    0    0  505    0 -0.00000000000E+00 -0.00000000000E+00 -0.12559777142E+04  0.12559777142E+04  0.00000000000E+00 0. -1.
         21    1    1    2  503  501  0.14398977574E+03 -0.69915686722E+01 -0.59837865290E+03  0.61549894378E+03  0.00000000000E+00 0. -1.
         21    1    1    2  504  503 -0.59945258917E+02  0.27516113932E+01  0.11763631009E+04  0.11778926736E+04  0.00000000000E+00 0. -1.
         21    1    1    2  505  502 -0.42125922389E+02  0.82296409046E+02 -0.69702956715E+02  0.11578339455E+03  0.00000000000E+00 0. -1.
          2    1    1    2  501    0 -0.41918594433E+02 -0.78056451767E+02 -0.55199830719E+03  0.55906360046E+03  0.00000000000E+00 0. -1.
<scales pt_clust_3="14000.00000" pt_clust_4="60.00838" pt_clust_5="113.61521" pt_clust_6="91.37026"></scales>
<clustering>
<clus scale="   60.008">  1  4  2 -1</clus>
<clus scale="   91.370">  2  6  1 -1</clus>
<clus scale="  113.615">  1  5  2 -1</clus>
<clus scale="   60.008">  1  3  2 -1</clus>
</clustering>
</event>
<event>
 6    0  0.1622933E+002  0.1100105E+03  0.7546771E-02  0.1260551E+00
          2   -1    0    0  503    0 -0.00000000000E+00  0.00000000000E+00  0.22753710763E+04  0.22753710763E+04  0.00000000000E+00 0. -1.
         21   -1    0    0  505  502  0.00000000000E+00 -0.00000000000E+00 -0.10093656746E+03  0.10093656746E+03  0.00000000000E+00 0. -1.
         21    1    1    2  503  502  0.20677541632E+01 -0.49793770524E+02  0.61141879484E+03  0.61344652405E+03  0.00000000000E+00 0.  1.
         21    1    1    2  504  501 -0.54774226254E+02  0.83951733033E+02  0.24872115166E+03  0.26816099758E+03  0.00000000000E+00 0. -1.
         21    1    1    2  505  504 -0.34581240813E+02  0.41432432901E+00 -0.85256374961E+02  0.92003713796E+02  0.00000000000E+00 0. -1.
          2    1    1    2  501    0  0.87287712904E+02 -0.34572286838E+02  0.13995509373E+04  0.14026964083E+04  0.00000000000E+00 0. -1.
<scales pt_clust_3="49.76577" pt_clust_4="14000.00000" pt_clust_5="34.58372" pt_clust_6="110.01046"></scales>
<clustering>
<clus scale="   34.584">  2  5  1 -1</clus>
<clus scale="   49.766">  1  3  2 -1</clus>
<clus scale="  110.010">  1  6  2 -1</clus>
<clus scale="   34.584">  2  3  1 -1</clus>
</clustering>
</event>
<event>
 6    0  0.1622933E+002  0.1312591E+03  0.7546771E-02  0.1225599E+00
         21   -1    0    0  504  502  0.00000000000E+00  0.00000000000E+00  0.57164582616E+03  0.57164582616E+03  0.00000000000E+00 0. -1.
         -4   -1    0    0    0  501 -0.00000000000E+00 -0.00000000000E+00 -0.11948739025E+04  0.11948739025E+04  0.00000000000E+00 0.  1.
         21    1    1    2  503  501  0.47707528445E+02 -0.18206599638E+00 -0.65315428605E+02  0.80883537462E+02  0.00000000000E+00 0. -1.
         21    1    1    2  504  503 -0.12586907089E+03 -0.39018049823E+02  0.54716266100E+03  0.56280761261E+03  0.00000000000E+00 0. -1.
         21    1    1    2  505  502  0.78221575591E+02  0.89784477622E+02 -0.43988710070E+03  0.45571979183E+03  0.00000000000E+00 0.  1.
         -4    1    1    2    0  505 -0.60033146623E-01 -0.50584361803E+02 -0.66518820803E+03  0.66710878676E+03  0.00000000000E+00 0.  1.
<scales pt_clust_3="47.70788" pt_clust_4="131.25907" pt_clust_5="14000.00000" pt_clust_6="58.04257"></scales>
<clustering>
<clus scale="   47.708">  2  3  1 -1</clus>
<clus scale="   58.043">  2  6  1 -1</clus>
<clus scale="  131.259">  1  4  2 -1</clus>
<clus scale="  131.259">  1  3  2 -1</clus>
</clustering>
</event>
<event>
 6    0  0.1622933E+002  0.1048887E+03  0.7546771E-02  0.1270339E+00
         21   -1    0    0  505  502  0.00000000000E+00  0.00000000000E+00  0.22171060045E+03  0.22171060045E+03  0.00000000000E+00 0.  1.
          2   -1    0    0  504    0 -0.00000000000E+00 -0.00000000000E+00 -0.23599186043E+03  0.23599186043E+03  0.00000000000E+00 0.  1.
         21    1    1    2  503  501  0.20167850419E+02 -0.86114234471E+02  0.11902905655E+02  0.89241709599E+02  0.00000000000E+00 0.  1.
         21    1    1    2  504  502 -0.43796965843E+01  0.12179888852E+03 -0.74733084718E+02  0.14296567748E+03  0.00000000000E+00 0.  1.
         21    1    1    2  505  503  0.30146644550E+02 -0.17455803213E+02  0.12759879271E+03  0.13226857958E+03  0.00000000000E+00 0.  1.
          2    1    1    2  501    0 -0.45934798385E+02 -0.18228850831E+02 -0.79049873626E+02  0.93226494226E+02  0.00000000000E+00 0.  1.
<scales pt_clust_3="14000.00000" pt_clust_4="104.88870" pt_clust_5="34.83569" pt_clust_6="47.79940"></scales>
<clustering>
<clus scale="   34.836">  1  5  2 -1</clus>
<clus scale="   47.799">  2  6  1 -1</clus>
<clus scale="  104.889">  2  4  1 -1</clus>
<clus scale="   34.836">  1  3  2 -1</clus>
</clustering>
</event>
<event>
 6    0  0.1622933E+002  0.7540929E+02  0.7546771E-02  0.1342608E+00
         21   -1    0    0  503  502  0.00000000000E+00  0.00000000000E+00  0.28993929968E+03  0.28993929968E+03  0.00000000000E+00 0. -1.
          1   -1    0    0  505    0 -0.00000000000E+00 -0.00000000000E+00 -0.64633223706E+03  0.64633223706E+03  0.00000000000E+00 0. -1.
         21    1    1    2  503  504 -0.46730115952E+02 -0.34773120058E+02  0.24074612554E+03  0.24769249197E+03  0.00000000000E+00 0. -1.
         21    1    1    2  504  501  0.69323701477E+02 -0.19328348075E+02 -0.10005825046E+03  0.12325183208E+03  0.00000000000E+00 0.  1.
         21    1    1    2  505  502 -0.17430729343E+02  0.95923651503E+02 -0.38510494789E+02  0.10482478453E+03  0.00000000000E+00 0.  1.
          1    1    1    2  501    0 -0.51628561808E+01 -0.41822183370E+02 -0.45857031766E+03  0.46050242816E+03  0.00000000000E+00 0. -1.
<scales pt_clust_3="58.79234" pt_clust_4="14000.00000" pt_clust_5="75.40929" pt_clust_6="42.13965"></scales>
<clustering>
<clus scale="   42.140">  2  6  1 -1</clus>
<clus scale="   58.792">  1  3  2 -1</clus>
<clus scale="   75.409">  1  5  2 -1</clus>
<clus scale="   58.792">  1  3  2 -1</clus>
</clustering>
</event>
<event>
 6    0  0.1622933E+002  0.2042088E+03  0.7546771E-02  0.1146236E+00
         21   -1    0    0  504  502  0.00000000000E+00  0.00000000000E+00  0.13064050237E+04  0.13064050237E+04  0.00000000000E+00 0. -1.
          4   -1    0    0  505    0 -0.00000000000E+00 -0.00000000000E+00 -0.40952169326E+02  0.40952169326E+02  0.00000000000E+00 0. -1.
         21    1    1    2  503  502  0.10049482810E+03 -0.17748416311E+03  0.53318585985E+03  0.57086513273E+03  0.00000000000E+00 0. -1.
         21    1    1    2  504  501 -0.62449115335E+02  0.71837630519E+02  0.36926268874E+03  0.38133380451E+03  0.00000000000E+00 0. -1.
         21    1    1    2  505  503 -0.30716787124E+02  0.34866943335E+01  0.19128721323E+02  0.36353624690E+02  0.00000000000E+00 0. -1.
          4    1    1    2  501    0 -0.73289256389E+01  0.10215983826E+03  0.34387558447E+03  0.35880463110E+03  0.00000000000E+00 0. -1.
<scales pt_clust_3="193.92424" pt_clust_4="62.60356" pt_clust_5="30.91404" pt_clust_6="62.60356"></scales>
<clustering>
<clus scale="   30.914">  2  5  1 -1</clus>
<clus scale="   62.604">  4  6 -1 -1</clus>
<clus scale="  193.924">  2  3  1 -1</clus>
<clus scale="  204.209">  1  3  2 -1</clus>
</clustering>
</event>
<event>
 6    0  0.1622933E+002  0.1094459E+03  0.7546771E-02  0.1261599E+00
          2   -1    0    0  503    0 -0.00000000000E+00  0.00000000000E+00  0.11819744920E+04  0.11819744920E+04  0.00000000000E+00 0.  1.
         21   -1    0    0  505  502  0.00000000000E+00 -0.00000000000E+00 -0.23552455223E+02  0.23552455223E+02  0.00000000000E+00 0.  1.
         21    1    1    2  503  504 -0.20911765198E+02 -0.52314830169E+02  0.26240578675E+03  0.26838580495E+03  0.00000000000E+00 0.  1.
         21    1    1    2  504  502  0.35617447507E+02 -0.83032417115E+02  0.51895390703E+03  0.52676004260E+03  0.00000000000E+00 0.  1.
         21    1    1    2  505  501 -0.29854711082E+02  0.81495535130E+02  0.12494430599E+03  0.15213121185E+03  0.00000000000E+00 0.  1.
          2    1    1    2  501    0  0.15149028773E+02  0.53851712155E+02  0.25211803697E+03  0.25824988778E+03  0.00000000000E+00 0.  1.
<scales pt_clust_3="44.66207" pt_clust_4="44.66207" pt_clust_5="93.69947" pt_clust_6="55.94193"></scales>
<clustering>
<clus scale="   44.662">  3  4 -1 -1</clus>
<clus scale="   55.942">  1  6  2 -1</clus>
<clus scale="   93.699">  2  5  1 -1</clus>
<clus scale="   93.699">  2  3  1 -1</clus>
</clustering>
</event>
<event>
 6    0  0.1622933E+002  0.9319931E+02  0.7546771E-02  0.1295284E+00
          3   -1    0    0  503    0 -0.00000000000E+00  0.00000000000E+00  0.24067231777E+04  0.24067231777E+04  0.00000000000E+00 0. -1.
         21   -1    0    0  501  502  0.00000000000E+00 -0.00000000000E+00 -0.49574637312E+03  0.49574637312E+03  0.00000000000E+00 0. -1.
         21    1    1    2  503  504  0.22756647088E+02  0.27318834469E+02  0.14761920046E+03  0.15184074568E+03  0.00000000000E+00 0. -1.
         21    1    1    2  504  505 -0.58451839056E+02  0.39120972373E+02  0.72023609129E+03  0.72366227977E+03  0.00000000000E+00 0. -1.
         21    1    1    2  505  502 -0.57836742026E+02  0.12990509570E+02 -0.48767263373E+03  0.49126208866E+03  0.00000000000E+00 0. -1.
          3    1    1    2  501    0  0.93531933993E+02 -0.79430316411E+02  0.15307941466E+04  0.15357044368E+04  0.00000000000E+00 0. -1.
<scales pt_clust_3="35.55536" pt_clust_4="93.19931" pt_clust_5="59.26478" pt_clust_6="14000.00000"></scales>
<clustering>
<clus scale="   35.555">  1  3  2 -1</clus>
<clus scale="   59.265">  2  5  1 -1</clus>
<clus scale="   93.199">  1  4  2 -1</clus>
<clus scale="   59.265">  2  3  1 -1</clus>
</clustering>
</event>
<event>
 6    0  0.1622933E+002  0.1987394E+03  0.7546771E-02  0.1150807E+00
         21   -1    0    0  503  502  0.00000000000E+00  0.00000000000E+00  0.45674622792E+03  0.45674622792E+03  0.00000000000E+00 0. -1.
          2   -1    0    0  505    0 -0.00000000000E+00 -0.00000000000E+00 -0.28276572867E+03  0.28276572867E+03  0.00000000000E+00 0. -1.
         21    1    1    2  503  504 -0.53637223528E+02 -0.19036511732E+03 -0.82885762220E+02  0.21444318413E+03  0.00000000000E+00 0. -1.
         21    1    1    2  504  501 -0.52930109717E+02 -0.33882692007E+00 -0.42141023763E+02  0.67657794836E+02  0.00000000000E+00 0. -1.
         21    1    1    2  505  502  0.12300432716E+03  0.15915843581E+03  0.34494577472E+03  0.39931073074E+03  0.00000000000E+00 0. -1.
          2    1    1    2  501    0 -0.16436993911E+02  0.31545508435E+02 -0.45938489487E+02  0.58100246880E+02  0.00000000000E+00 0. -1.
<scales pt_clust_3="198.73943" pt_clust_4="57.29081" pt_clust_5="14000.00000" pt_clust_6="35.57097"></scales>
<clustering>
<clus scale="   35.571">  2  6  1 -1</clus>
<clus scale="   57.291">  2  4  1 -1</clus>
<clus scale="  198.739">  2  3  1 -1</clus>
<clus scale="  198.739">  1  3  2 -1</clus>
</clustering>
</event>
<event>
 6    0  0.1622933E+002  0.8733520E+02  0.7546771E-02  0.1309436E+00
          2   -1    0    0  505    0 -0.00000000000E+00  0.00000000000E+00  0.28682191062E+04  0.28682191062E+04  0.00000000000E+00 0. -1.
         21   -1    0    0  503  502  0.00000000000E+00 -0.00000000000E+00 -0.48576936057E+02  0.48576936057E+02  0.00000000000E+00 0. -1.
         21    1    1    2  503  501  0.35023046278E+02 -0.20439681981E+02  0.26613545195E+03  0.26920711944E+03  0.00000000000E+00 0.  1.
         21    1    1    2  504  502  0.27329179409E+02  0.29740229091E+02 -0.31586035135E+02  0.51274193208E+02  0.00000000000E+00 0. -1.
         21    1    1    2  505  504 -0.12631516910E+03  0.37795748098E+02  0.92803037031E+03  0.93734967261E+03  0.00000000000E+00 0. -1.
          2    1    1    2  501    0  0.63962943413E+02 -0.47096295207E+02  0.16570623830E+04  0.16589650570E+04  0.00000000000E+00 0. -1.
<scales pt_clust_3="43.24173" pt_clust_4="40.39016" pt_clust_5="14000.00000" pt_clust_6="87.33520"></scales>
<clustering>
<clus scale="   40.390">  2  4  1 -1</clus>
<clus scale="   43.242">  2  3  1 -1</clus>
<clus scale="   87.335">  1  6  2 -1</clus>
<clus scale="   40.390">  2  3  1 -1</clus>
</clustering>
</event>
<event>
 6    0  0.1622933E+002  0.1909682E+03  0.7546771E-02  0.1157591E+00
         21   -1    0    0  503  502  0.00000000000E+00  0.00000000000E+00  0.16052881027E+03  0.16052881027E+03  0.00000000000E+00 0. -1.
          3   -1    0    0  504    0 -0.00000000000E+00 -0.00000000000E+00 -0.13510964271E+04  0.13510964271E+04  0.00000000000E+00 0. -1.
         21    1    1    2  503  505  0.19691669177E+03  0.30871715999E+02  0.74467860015E+02  0.21277854338E+03  0.00000000000E+00 0. -1.
         21    1    1    2  504  502 -0.29349470202E+02  0.36843562185E+02 -0.14779151415E+03  0.15511663718E+03  0.00000000000E+00 0. -1.
         21    1    1    2  505  501 -0.93097227381E+02  0.15128785836E+02 -0.83482160726E+03  0.84013278109E+03  0.00000000000E+00 0. -1.
          3    1    1    2  501    0 -0.74469994189E+02 -0.82844064020E+02 -0.28242235541E+03  0.30359727570E+03  0.00000000000E+00 0. -1.
<scales pt_clust_3="190.96816" pt_clust_4="47.10456" pt_clust_5="14000.00000" pt_clust_6="110.08156"></scales>
<clustering>
<clus scale="   47.105">  2  4  1 -1</clus>
<clus scale="  110.082">  2  6  1 -1</clus>
<clus scale="  190.968">  1  3  2 -1</clus>
<clus scale="  190.968">  1  3  2 -1</clus>
</clustering>
</event>
<event>
 6    0  0.1622933E+002  0.8221660E+02  0.7546771E-02  0.1322876E+00
         21   -1    0    0  504  502  0.00000000000E+00  0.00000000000E+00  0.18089505135E+04  0.18089505135E+04  0.00000000000E+00 0. -1.
          3   -1    0    0  505    0 -0.00000000000E+00 -0.00000000000E+00 -0.40508481214E+02  0.40508481214E+02  0.00000000000E+00 0. -1.
         21    1    1    2  503  502  0.11842342625E+03 -0.25464092274E+02  0.14259664043E+04  0.14311019230E+04  0.00000000000E+00 0. -1.
         21    1    1    2  504  501 -0.33191312138E+02 -0.51894236034E+00  0.18229929070E+03  0.18529696137E+03  0.00000000000E+00 0. -1.
         21    1    1    2  505  503 -0.44258417101E+02 -0.21670963740E+02 -0.11189347461E+02  0.50533549749E+02  0.00000000000E+00 0. -1.
          3    1    1    2  501    0 -0.40973697015E+02  0.47653998374E+02  0.17136568480E+03  0.18252656063E+03  0.00000000000E+00 0. -1.
<scales pt_clust_3="82.21660" pt_clust_4="33.19537" pt_clust_5="49.64308" pt_clust_6="14000.00000"></scales>
<clustering>
<clus scale="   33.195">  1  4  2 -1</clus>
<clus scale="   49.643">  2  5  1 -1</clus>
<clus scale="   82.217">  1  3  2 -1</clus>
<clus scale="   33.195">  1  3  2 -1</clus>
</clustering>
</event>
<event>
 6    0  0.1622933E+002  0.9123652E+02  0.7546771E-02  0.1299885E+00
          1   -1    0    0  504    0 -0.00000000000E+00  0.00000000000E+00  0.15463446877E+04  0.15463446877E+04  0.00000000000E+00 0. -1.
         21   -1    0    0  505  502  0.00000000000E+00 -0.00000000000E+00 -0.10771992573E+04  0.10771992573E+04  0.00000000000E+00 0. -1.
         21    1    1    2  503  502 -0.67816727861E+02 -0.12439776096E+02 -0.10694372244E+04  0.10716575169E+04  0.00000000000E+00 0. -1.
         21    1    1    2  504  503 -0.56057547332E+02 -0.33964367713E+01  0.27027655015E+03  0.27604962951E+03  0.00000000000E+00 0. -1.
         21    1    1    2  505  501  0.44730066237E+02 -0.22512537930E+02  0.41482024364E+03  0.41783181751E+03  0.00000000000E+00 0. -1.
          1    1    1    2  501    0  0.79144208956E+02  0.38348750798E+02  0.85348586107E+03  0.85800498108E+03  0.00000000000E+00 0. -1.
<scales pt_clust_3="68.99683" pt_clust_4="56.16035" pt_clust_5="45.04514" pt_clust_6="45.04514"></scales>
<clustering>
<clus scale="   45.045">  5  6 -1 -1</clus>
<clus scale="   56.160">  1  4  2 -1</clus>
<clus scale="   68.997">  2  3  1 -1</clus>
<clus scale="   68.997">  2  3  1 -1</clus>
</clustering>
</event>
<event>
 6    0  0.1622933E+002  0.1016381E+03  0.7546771E-02  0.1276888E+00
          2   -1    0    0  503    0 -0.00000000000E+00  0.00000000000E+00  0.14952051943E+04  0.14952051943E+04  0.00000000000E+00 0.  1.
         21   -1    0    0  505  502  0.00000000000E+00 -0.00000000000E+00 -0.12536168455E+03  0.12536168455E+03  0.00000000000E+00 0. -1.
         21    1    1    2  503  504  0.31529655684E+02  0.14509261110E+02  0.11622281749E+03  0.12129460479E+03  0.00000000000E+00 0. -1.
         21    1    1    2  504  502  0.24215235497E+02  0.98648848011E+02 -0.97436435001E+02  0.14075450867E+03  0.00000000000E+00 0. -1.
         21    1    1    2  505  501 -0.28314536255E+02 -0.10006966120E+03  0.81637696888E+03  0.82297448647E+03  0.00000000000E+00 0.  1.
          2    1    1    2  501    0 -0.27430354926E+02 -0.13088447919E+02  0.53468015841E+03  0.53554327896E+03  0.00000000000E+00 0.  1.
<scales pt_clust_3="30.94885" pt_clust_4="101.63815" pt_clust_5="14000.00000" pt_clust_6="30.39296"></scales>
<clustering>
<clus scale="   30.393">  1  6  2 -1</clus>
<clus scale="   30.949">  1  3  2 -1</clus>
<clus scale="  101.638">  2  4  1 -1</clus>
<clus scale="  101.638">  2  3  1 -1</clus>
</clustering>
</event>
<event>
 6    0  0.1622933E+002  0.1821197E+03  0.7546771E-02  0.1165767E+00
         21   -1    0    0  503  502  0.00000000000E+00  0.00000000000E+00  0.68999624732E+02  0.68999624732E+02  0.00000000000E+00 0.  1.
          3   -1    0    0  504    0 -0.00000000000E+00 -0.00000000000E+00 -0.91056626997E+03  0.91056626997E+03  0.00000000000E+00 0.  1.
         21    1    1    2  503  501 -0.37692437681E+02  0.27506681414E+02 -0.64893094872E+02  0.79927787050E+02  0.00000000000E+00 0. -1.
         21    1    1    2  504  505 -0.24384266028E+02 -0.32946799459E+02 -0.13153336585E+03  0.13777195054E+03  0.00000000000E+00 0.  1.
         21    1    1    2  505  502  0.65706595700E+01 -0.18668468660E+03 -0.19890821809E+03  0.27287144409E+03  0.00000000000E+00 0.  1.
          3    1    1    2  501    0  0.55506044139E+02  0.19212480465E+03 -0.44623196644E+03  0.48899471302E+03  0.00000000000E+00 0.  1.
<scales pt_clust_3="46.84407" pt_clust_4="40.98883" pt_clust_5="182.11968" pt_clust_6="14000.00000"></scales>
<clustering>
<clus scale="   40.989">  2  4  1 -1</clus>
<clus scale="   46.844">  1  3  2 -1</clus>
<clus scale="  182.120">  1  5  2 -1</clus>
<clus scale="   46.844">  1  3  2 -1</clus>
</clustering>
</event>
<event>
 6    0  0.1622933E+002  0.1617835E+03  0.7546771E-02  0.1186698E+00
         21   -1    0    0  504  502  0.00000000000E+00  0.00000000000E+00  0.20290233236E+03  0.20290233236E+03  0.00000000000E+00 0. -1.
          2   -1    0    0  505    0 -0.00000000000E+00 -0.00000000000E+00 -0.12128722041E+04  0.12128722041E+04  0.00000000000E+00 0. -1.
         21    1    1    2  503  502 -0.56261542183E+02  0.71464845169E+01 -0.15876416838E+03  0.16858972249E+03  0.00000000000E+00 0. -1.
         21    1    1    2  504  501 -0.15699808829E+03 -0.33030862832E+02  0.14771324108E+03  0.21807943327E+03  0.00000000000E+00 0. -1.
         21    1    1    2  505  503  0.34000379714E+02 -0.21128201221E+02 -0.40429145922E+03  0.40626839737E+03  0.00000000000E+00 0. -1.
          2    1    1    2  501    0  0.17925925076E+03  0.47012579535E+02 -0.59462748519E+03  0.62283698329E+03  0.00000000000E+00 0. -1.
<scales pt_clust_3="49.45361" pt_clust_4="161.78348" pt_clust_5="40.03032" pt_clust_6="14000.00000"></scales>
<clustering>
<clus scale="   40.030">  2  5  1 -1</clus>
<clus scale="   49.454">  2  3  1 -1</clus>
<clus scale="  161.783">  1  4  2 -1</clus>
<clus scale="  161.783">  1  3  2 -1</clus>
</clustering>
</event>
<event>
 6    0  0.1622933E+002  0.1204375E+03  0.7546771E-02  0.1242377E+00
          1   -1    0    0  503    0 -0.00000000000E+00  0.00000000000E+00  0.65648122660E+03  0.65648122660E+03  0.00000000000E+00 0.  1.
         21   -1    0    0  505  502  0.00000000000E+00 -0.00000000000E+00 -0.63136503191E+02  0.63136503191E+02  0.00000000000E+00 0.  1.
         21    1    1    2  503  504 -0.41409832739E+02 -0.13568715309E+02  0.41395374994E+03  0.41624102558E+03  0.00000000000E+00 0.  1.
         21    1    1    2  504  502  0.69738483645E+02 -0.95427872104E+02  0.12300754748E+03  0.17058954133E+03  0.00000000000E+00 0.  1.
         21    1    1    2  505  501  0.13260118650E+01  0.48031045467E+02  0.62181321738E+01  0.48450023775E+02  0.00000000000E+00 0.  1.
          1    1    1    2  501    0 -0.29654662771E+02  0.60965541947E+02  0.50165293816E+02  0.84337139106E+02  0.00000000000E+00 0.  1.
<scales pt_clust_3="43.57619" pt_clust_4="112.84782" pt_clust_5="35.42426" pt_clust_6="35.42426"></scales>
<clustering>
<clus scale="   35.424">  5  6 -1 -1</clus>
<clus scale="   43.576">  1  3  2 -1</clus>
<clus scale="  112.848">  1  4  2 -1</clus>
<clus scale="  120.438">  2  3  1 -1</clus>
</clustering>
</event>
<event>
 6    0  0.1622933E+002  0.6599400E+02  0.7546771E-02  0.1374271E+00
          1   -1    0    0  503    0 -0.00000000000E+00  0.00000000000E+00  0.52754846118E+03  0.52754846118E+03  0.00000000000E+00 0.  1.
         21   -1    0    0  505  502  0.00000000000E+00 -0.00000000000E+00 -0.17258763723E+03  0.17258763723E+03  0.00000000000E+00 0.  1.
         21    1    1    2  503  504  0.36804548379E+02 -0.57384745594E+02  0.24096351048E+03  0.25042163882E+03  0.00000000000E+00 0.  1.
         21    1    1    2  504  502  0.13065762246E+02  0.62870203924E+02 -0.12488666809E+03  0.14042811881E+03  0.00000000000E+00 0.  1.
         21    1    1    2  505  501 -0.81043985093E+02 -0.40750020323E+02  0.30575439572E+02  0.95726428853E+02  0.00000000000E+00 0.  1.
          1    1    1    2  501    0  0.31173674469E+02  0.35264561992E+02  0.20830854200E+03  0.21355991193E+03  0.00000000000E+00 0.  1.
<scales pt_clust_3="14000.00000" pt_clust_4="65.21912" pt_clust_5="65.99400" pt_clust_6="47.06790"></scales>
<clustering>
<clus scale="   47.068">  1  6  2 -1</clus>
<clus scale="   65.219">  2  4  1 -1</clus>
<clus scale="   65.994">  2  5  1 -1</clus>
<clus scale="   65.219">  2  3  1 -1</clus>
</clustering>
</event>
<event>
 6    0  0.1622933E+002  0.1453155E+03  0.7546771E-02  0.1206350E+00
          2   -1    0    0  505    0 -0.00000000000E+00  0.00000000000E+00  0.42571277404E+03  0.42571277404E+03  0.00000000000E+00 0. -1.
         21   -1    0    0  503  502  0.00000000000E+00 -0.00000000000E+00 -0.24411676274E+03  0.24411676274E+03  0.00000000000E+00 0.  1.
         21    1    1    2  503  501  0.32794668412E+02 -0.21881659456E+02  0.29294813447E+02  0.49117037692E+02  0.00000000000E+00 0.  1.
         21    1    1    2  504  502 -0.11284983530E+03  0.59090994250E+02 -0.18784136730E+03  0.22696081203E+03  0.00000000000E+00 0.  1.
         21    1    1    2  505  504 -0.22826556968E+02  0.45828796099E+02  0.37416535898E+02  0.63413937061E+02  0.00000000000E+00 0.  1.
          2    1    1    2  501    0  0.10288172386E+03 -0.83038130893E+02  0.30272602926E+03  0.33033775000E+03  0.00000000000E+00 0. -1.
<scales pt_clust_3="35.94057" pt_clust_4="129.55592" pt_clust_5="51.19893" pt_clust_6="35.94057"></scales>
<clustering>
<clus scale="   35.941">  3  6 -1 -1</clus>
<clus scale="   51.199">  1  5  2 -1</clus>
<clus scale="  129.556">  2  4  1 -1</clus>
<clus scale="  129.556">  2  3  1 -1</clus>
</clustering>
</event>
<event>
 6    0  0.1622933E+002  0.1217461E+03  0.7546771E-02  0.1240244E+00
          2   -1    0    0  505    0 -0.00000000000E+00  0.00000000000E+00  0.20820524494E+04  0.20820524494E+04  0.00000000000E+00 0. -1.
         21   -1    0    0  504  502  0.00000000000E+00 -0.00000000000E+00 -0.50230508577E+02  0.50230508577E+02  0.00000000000E+00 0. -1.
         21    1    1    2  503  501  0.50062413897E+02  0.10963706475E+03  0.96225073285E+03  0.96976956238E+03  0.00000000000E+00 0.  1.
         21    1    1    2  504  503 -0.29593083384E+02 -0.13041782805E+03  0.69775107999E+02  0.15084139403E+03  0.00000000000E+00 0. -1.
         21    1    1    2  505  502  0.50664131522E+02  0.67774473803E+01  0.14386267842E+03  0.15267369865E+03  0.00000000000E+00 0. -1.
          2    1    1    2  501    0 -0.71133462035E+02  0.14003315921E+02  0.85593342152E+03  0.85899830288E+03  0.00000000000E+00 0. -1.
<scales pt_clust_3="14000.00000" pt_clust_4="121.74614" pt_clust_5="51.11544" pt_clust_6="70.88225"></scales>
<clustering>
<clus scale="   51.115">  2  5  1 -1</clus>
<clus scale="   70.882">  1  6  2 -1</clus>
<clus scale="  121.746">  2  4  1 -1</clus>
<clus scale="   51.115">  2  3  1 -1</clus>
</clustering>
</event>
<event>
 6    0  0.1622933E+002  0.6837198E+02  0.7546771E-02  0.1365718E+00
         21   -1    0    0  503  502  0.00000000000E+00  0.00000000000E+00  0.24115766342E+03  0.24115766342E+03  0.00000000000E+00 0.  1.
          1   -1    0    0  504    0 -0.00000000000E+00 -0.00000000000E+00 -0.62867163545E+03  0.62867163545E+03  0.00000000000E+00 0.  1.
         21    1    1    2  503  501  0.31229169173E+02  0.20854234491E+02  0.19927941192E+03  0.20278669611E+03  0.00000000000E+00 0.  1.
         21    1    1    2  504  505  0.22706918439E+02  0.60847291445E+02 -0.41537436900E+03  0.42042105495E+03  0.00000000000E+00 0.  1.
         21    1    1    2  505  502 -0.99524052121E+02 -0.78312142388E+02 -0.97986061001E+02  0.16012213072E+03  0.00000000000E+00 0.  1.
          1    1    1    2  501    0  0.45587964508E+02 -0.33893835475E+01 -0.73432953959E+02  0.86499417084E+02  0.00000000000E+00 0.  1.
<scales pt_clust_3="37.55210" pt_clust_4="14000.00000" pt_clust_5="68.37198" pt_clust_6="50.67281"></scales>
<clustering>
<clus scale="   37.552">  1  3  2 -1</clus>
<clus scale="   50.673">  1  6  2 -1</clus>
<clus scale="   68.372">  1  5  2 -1</clus>
<clus scale="   37.552">  1  3  2 -1</clus>
</clustering>
</event>
<event>
 6    0  0.1622933E+002  0.8043068E+02  0.7546771E-02  0.1327834E+00
         -1   -1    0    0    0  501 -0.00000000000E+00  0.00000000000E+00  0.32025002863E+03  0.32025002863E+03  0.00000000000E+00 0.  1.
         21   -1    0    0  503  502  0.00000000000E+00 -0.00000000000E+00 -0.11240078243E+04  0.11240078243E+04  0.00000000000E+00 0. -1.
         21    1    1    2  503  501  0.39324405295E+01 -0.30042550892E+02  0.10435694232E+02  0.32045634129E+02  0.00000000000E+00 0. -1.
         21    1    1    2  504  505  0.10882569609E+03  0.16198689263E+02  0.13394524081E+03  0.17334000461E+03  0.00000000000E+00 0.  1.
         21    1    1    2  505  502 -0.48745851596E+02  0.45896065501E+01 -0.10857321202E+04  0.10868355254E+04  0.00000000000E+00 0. -1.
         -1    1    1    2    0  504 -0.64012285022E+02  0.92542550785E+01  0.13759338953E+03  0.15203668870E+03  0.00000000000E+00 0.  1.
<scales pt_clust_3="30.29883" pt_clust_4="80.43068" pt_clust_5="48.94905" pt_clust_6="14000.00000"></scales>
<clustering>
<clus scale="   30.299">  1  3  2 -1</clus>
<clus scale="   48.949">  2  5  1 -1</clus>
<clus scale="   80.431">  2  4  1 -1</clus>
<clus scale="   48.949">  2  3  1 -1</clus>
</clustering>
</event>
<event>
 6    0  0.1622933E+002  0.8550050E+02  0.7546771E-02  0.1314129E+00
          2   -1    0    0  503    0 -0.00000000000E+00  0.00000000000E+00  0.60493832087E+03  0.60493832087E+03  0.00000000000E+00 0.  1.
         21   -1    0    0  505  502  0.00000000000E+00 -0.00000000000E+00 -0.83011626314E+03  0.83011626314E+03  0.00000000000E+00 0. -1.
         21    1    1    2  503  504  0.72598332108E+00  0.34341402722E+02  0.12616852761E+02  0.36592949680E+02  0.00000000000E+00 0. -1.
         21    1    1    2  504  502  0.74281282918E+01 -0.47392320818E+02  0.24013643170E+03  0.24488102212E+03  0.00000000000E+00 0.  1.
         21    1    1    2  505  501 -0.33830962009E+02 -0.78458907715E+02 -0.80677013879E+03  0.81128194300E+03  0.00000000000E+00 0. -1.
          2    1    1    2  501    0  0.25676850396E+02  0.91509825811E+02  0.32883891206E+03  0.34229866922E+03  0.00000000000E+00 0.  1.
<scales pt_clust_3="34.34908" pt_clust_4="33.93429" pt_clust_5="85.50050" pt_clust_6="14000.00000"></scales>
<clustering>
<clus scale="   34.349">  1  3  2 -1</clus>
<clus scale="   33.934">  1  4  2 -1</clus>
<clus scale="   85.501">  2  5  1 -1</clus>
<clus scale="   85.501">  2  3  1 -1</clus>
</clustering>
</event>
<event>
 6    0  0.1622933E+002  0.1478886E+03  0.7546771E-02  0.1203092E+00
         21   -1    0    0  504  502  0.00000000000E+00  0.00000000000E+00  0.31906335301E+03  0.31906335301E+03  0.00000000000E+00 0. -1.
          2   -1    0    0  505    0 -0.00000000000E+00 -0.00000000000E+00 -0.52568266839E+03  0.52568266839E+03  0.00000000000E+00 0. -1.
         21    1    1    2  503  501 -0.51765543571E+02  0.23462467205E+02 -0.11583173422E+03  0.12902383316E+03  0.00000000000E+00 0. -1.
         21    1    1    2  504  503 -0.57051807557E+02  0.30998896803E+01 -0.68827922119E+02  0.89452786009E+02  0.00000000000E+00 0. -1.
         21    1    1    2  505  502  0.12634206178E+03 -0.76103575944E+02  0.28176411989E+03  0.31803315881E+03  0.00000000000E+00 0. -1.
          2    1    1    2  501    0 -0.17524710651E+02  0.49541219058E+02 -0.30372377893E+03  0.30823624342E+03  0.00000000000E+00 0. -1.
<scales pt_clust_3="32.86851" pt_clust_4="32.86851" pt_clust_5="144.16994" pt_clust_6="52.54948"></scales>
<clustering>
<clus scale="   32.869">  3  4 -1 -1</clus>
<clus scale="   52.549">  2  6  1 -1</clus>
<clus scale="  144.170">  1  5  2 -1</clus>
<clus scale="  144.170">  1  3  2 -1</clus>
</clustering>
</event>
<event>
 6    0  0.1622933E+002  0.8926461E+02  0.7546771E-02  0.1304642E+00
         21   -1    0    0  503  502  0.00000000000E+00  0.00000000000E+00  0.93987624114E+03  0.93987624114E+03  0.00000000000E+00 0.  1.
          2   -1    0    0  504    0 -0.00000000000E+00 -0.00000000000E+00 -0.32371997521E+03  0.32371997521E+03  0.00000000000E+00 0. -1.
         21    1    1    2  503  501 -0.94209390811E+00 -0.89253324300E+02  0.91176849706E+03  0.91612708489E+03  0.00000000000E+00 0.  1.
         21    1    1    2  504  505 -0.39581396637E+02  0.11198226659E+02 -0.39346832544E+02  0.56923285845E+02  0.00000000000E+00 0. -1.
         21    1    1    2  505  502  0.44678682434E+02 -0.11817781182E+02 -0.73225253421E+02  0.86589735850E+02  0.00000000000E+00 0.  1.
          2    1    1    2  501    0 -0.41551918885E+01  0.89872878823E+02 -0.18304014516E+03  0.20395610976E+03  0.00000000000E+00 0. -1.
<scales pt_clust_3="14000.00000" pt_clust_4="41.13499" pt_clust_5="34.29022" pt_clust_6="89.26461"></scales>
<clustering>
<clus scale="   41.135">  2  4  1 -1</clus>
<clus scale="   34.290">  2  5  1 -1</clus>
<clus scale="   89.265">  2  6  1 -1</clus>
<clus scale="   89.265">  1  3  2 -1</clus>
</clustering>
</event>
<event>
 6    0  0.1622933E+002  0.9046298E+02  0.7546771E-02  0.1301734E+00
         -1   -1    0    0    0  501 -0.00000000000E+00  0.00000000000E+00  0.18543901700E+03  0.18543901700E+03  0.00000000000E+00 0. -1.
         21   -1    0    0  503  502  0.00000000000E+00 -0.00000000000E+00 -0.37446515487E+03  0.37446515487E+03  0.00000000000E+00 0. -1.
         21    1    1    2  503  504 -0.73840019680E+02  0.16057426325E+02 -0.10483284764E+02  0.76289505871E+02  0.00000000000E+00 0.  1.
         21    1    1    2  504  501  0.12622210688E+02  0.51487625488E+02  0.49426923294E+02  0.72479766331E+02  0.00000000000E+00 0. -1.
         21    1    1    2  505  502 -0.37285327007E+02 -0.52214873887E+02 -0.28780325399E+03  0.29486827851E+03  0.00000000000E+00 0. -1.
         -1    1    1    2    0  505  0.98503135999E+02 -0.15330177926E+02  0.59833477586E+02  0.11626662116E+03  0.00000000000E+00 0. -1.
<scales pt_clust_3="14000.00000" pt_clust_4="53.01222" pt_clust_5="62.76595" pt_clust_6="90.46298"></scales>
<clustering>
<clus scale="   53.012">  1  4  2 -1</clus>
<clus scale="   62.766">  2  5  1 -1</clus>
<clus scale="   90.463">  1  6  2 -1</clus>
<clus scale="   62.766">  2  3  1 -1</clus>
</clustering>
</event>
<event>
 6    0  0.1622933E+002  0.1573398E+03  0.7546771E-02  0.1191733E+00
         -4   -1    0    0    0  501 -0.00000000000E+00  0.00000000000E+00  0.26058068124E+03  0.26058068124E+03  0.00000000000E+00 0. -1.
         21   -1    0    0  504  502  0.00000000000E+00 -0.00000000000E+00 -0.42557739716E+03  0.42557739716E+03  0.00000000000E+00 0.  1.
         21    1    1    2  503  505 -0.51423410981E+02  0.64907931408E+01  0.35479001990E+02  0.62811282225E+02  0.00000000000E+00 0. -1.
         21    1    1    2  504  501 -0.28205136017E+02 -0.37292647887E+02  0.24652465530E+02  0.52858446258E+02  0.00000000000E+00 0.  1.
         21    1    1    2  505  502  0.14893089890E+03 -0.87659933261E+01 -0.37340246929E+03  0.40210279701E+03  0.00000000000E+00 0.  1.
         -4    1    1    2    0  503 -0.69302351905E+02  0.39567848072E+02  0.14827428585E+03  0.16838555290E+03  0.00000000000E+00 0. -1.
<scales pt_clust_3="44.07248" pt_clust_4="46.75758" pt_clust_5="147.53038" pt_clust_6="44.07248"></scales>
<clustering>
<clus scale="   44.072">  3  6 -1 -1</clus>
<clus scale="   46.758">  1  4  2 -1</clus>
<clus scale="  147.530">  2  5  1 -1</clus>
<clus scale="  147.530">  2  3  1 -1</clus>
</clustering>
</event>
<event>
 6    0  0.1622933E+002  0.1701947E+03  0.7546771E-02  0.1177645E+00
         21   -1    0    0  503  502  0.00000000000E+00  0.00000000000E+00  0.68497320999E+03  0.68497320999E+03  0.00000000000E+00 0.  1.
          2   -1    0    0  504    0 -0.00000000000E+00 -0.00000000000E+00 -0.87585576921E+03  0.87585576921E+03  0.00000000000E+00 0.  1.
         21    1    1    2  503  501 -0.54301605590E+02 -0.46140636446E+02 -0.81457643444E+02  0.10822647724E+03  0.00000000000E+00 0.  1.
         21    1    1    2  504  505  0.22897874091E+03 -0.71252844233E+02 -0.26140076469E+03  0.35473735549E+03  0.00000000000E+00 0.  1.
         21    1    1    2  505  502 -0.58962790518E+02  0.13772379552E+02  0.61062895101E+03  0.61362366718E+03  0.00000000000E+00 0.  1.
          2    1    1    2  501    0 -0.11571434481E+03  0.10362110113E+03 -0.45865310211E+03  0.48424147929E+03  0.00000000000E+00 0.  1.
<scales pt_clust_3="78.38637" pt_clust_4="14000.00000" pt_clust_5="60.54989" pt_clust_6="170.19472"></scales>
<clustering>
<clus scale="   60.550">  1  5  2 -1</clus>
<clus scale="   78.386">  1  3  2 -1</clus>
<clus scale="  170.195">  2  6  1 -1</clus>
<clus scale="   60.550">  1  3  2 -1</clus>
</clustering>
</event>
<event>
 6    0  0.1622933E+002  0.9641309E+02  0.7546771E-02  0.1288025E+00
          1   -1    0    0  504    0 -0.00000000000E+00  0.00000000000E+00  0.90439936232E+03  0.90439936232E+03  0.00000000000E+00 0. -1.
         21   -1    0    0  505  502  0.00000000000E+00 -0.00000000000E+00 -0.40479593623E+02  0.40479593623E+02  0.00000000000E+00 0. -1.
         21    1    1    2  503  502  0.37473945754E+02  0.36409271974E+02  0.78719089592E+02  0.94480827484E+02  0.00000000000E+00 0. -1.
         21    1    1    2  504  503 -0.30819276614E+02  0.69950907104E+02  0.28698175857E+03  0.29698735153E+03  0.00000000000E+00 0. -1.
         21    1    1    2  505  501 -0.59373176806E+02  0.17732876248E+02  0.35423191926E+02  0.71375286692E+02  0.00000000000E+00 0. -1.
          1    1    1    2  501    0  0.52718507667E+02 -0.12409305533E+03  0.46279572861E+03  0.48203549024E+03  0.00000000000E+00 0. -1.
<scales pt_clust_3="52.24875" pt_clust_4="14000.00000" pt_clust_5="54.11080" pt_clust_6="96.41309"></scales>
<clustering>
<clus scale="   52.249">  2  3  1 -1</clus>
<clus scale="   54.111">  2  5  1 -1</clus>
<clus scale="   96.413">  2  6  1 -1</clus>
<clus scale="   52.249">  2  3  1 -1</clus>
</clustering>
</event>
<event>
 6    0  0.1622933E+002  0.1138452E+03  0.7546771E-02  0.1253610E+00
         21   -1    0    0  505  502  0.00000000000E+00  0.00000000000E+00  0.45830919958E+03  0.45830919958E+03  0.00000000000E+00 0.  1.
         -4   -1    0    0    0  501 -0.00000000000E+00 -0.00000000000E+00 -0.44191589943E+03  0.44191589943E+03  0.00000000000E+00 0.  1.
         21    1    1    2  503  501 -0.34989704460E+02 -0.90707042593E+01 -0.87864957998E+02  0.95009514986E+02  0.00000000000E+00 0.  1.
         21    1    1    2  504  502 -0.35538535768E+02 -0.55481779421E+02  0.42522867314E+03  0.43030296285E+03  0.00000000000E+00 0.  1.
         21    1    1    2  505  503 -0.46106738257E+02 -0.89161303011E+01 -0.38968999746E+02  0.61023861181E+02  0.00000000000E+00 0.  1.
         -4    1    1    2    0  504  0.11663497849E+03  0.73468613982E+02 -0.28200141525E+03  0.31388875999E+03  0.00000000000E+00 0.  1.
<scales pt_clust_3="32.34728" pt_clust_4="65.88790" pt_clust_5="32.34728" pt_clust_6="107.70941"></scales>
<clustering>
<clus scale="   32.347">  3  5 -1 -1</clus>
<clus scale="   65.888">  1  4  2 -1</clus>
<clus scale="  107.709">  1  6  2 -1</clus>
<clus scale="   65.888">  1  3  2 -1</clus>
</clustering>
</event>
<event>
 6    0  0.1622933E+002  0.1663563E+03  0.7546771E-02  0.1181702E+00
          2   -1    0    0  504    0 -0.00000000000E+00  0.00000000000E+00  0.32603074561E+04  0.32603074561E+04  0.00000000000E+00 0. -1.
         21   -1    0    0  501  502  0.00000000000E+00 -0.00000000000E+00 -0.64430465622E+02  0.64430465622E+02  0.00000000000E+00 0.  1.
         21    1    1    2  503  505 -0.62583618560E+02 -0.34478968070E+02  0.69493349720E+03  0.69859721878E+03  0.00000000000E+00 0.  1.
         21    1    1    2  504  503  0.60919910675E+02 -0.28728981927E+02  0.10879285116E+04  0.10900114845E+04  0.00000000000E+00 0.  1.
         21    1    1    2  505  502  0.77004942921E+02 -0.14221474569E+03  0.71392081948E+02  0.17678128999E+03  0.00000000000E+00 0.  1.
          2    1    1    2  501    0 -0.75341235036E+02  0.20542269569E+03  0.13416228997E+04  0.13593479285E+04  0.00000000000E+00 0. -1.
<scales pt_clust_3="61.33112" pt_clust_4="67.35421" pt_clust_5="166.35633" pt_clust_6="14000.00000"></scales>
<clustering>
<clus scale="   67.354">  1  4  2 -1</clus>
<clus scale="   61.331">  1  3  2 -1</clus>
<clus scale="  166.356">  2  5  1 -1</clus>
<clus scale="  166.356">  2  3  1 -1</clus>
</clustering>
</event>
<event>
 6    0  0.1622933E+002  0.2663749E+03  0.7546771E-02  0.1103372E+00
         21   -1    0    0  503  502  0.00000000000E+00  0.00000000000E+00  0.14774989149E+03  0.14774989149E+03  0.00000000000E+00 0.  1.
          1   -1    0    0  504    0 -0.00000000000E+00 -0.00000000000E+00 -0.25437006363E+04  0.25437006363E+04  0.00000000000E+00 0. -1.
         21    1    1    2  503  501  0.16861505523E+03  0.20627297660E+03  0.13623302493E+01  0.26642341051E+03  0.00000000000E+00 0.  1.
         21    1    1    2  504  505  0.90463600261E+01 -0.42490708877E+02 -0.17999243634E+03  0.18516094110E+03  0.00000000000E+00 0. -1.
         21    1    1    2  505  502 -0.25983685025E+02  0.22061040011E+02 -0.58095072695E+02  0.67356357126E+02  0.00000000000E+00 0.  1.
          1    1    1    2  501    0 -0.15167773023E+03 -0.18584330773E+03 -0.21592255660E+04  0.21725098190E+04  0.00000000000E+00 0. -1.
<scales pt_clust_3="14000.00000" pt_clust_4="42.95736" pt_clust_5="34.08579" pt_clust_6="266.37494"></scales>
<clustering>
<clus scale="   34.086">  1  5  2 -1</clus>
<clus scale="   42.957">  2  4  1 -1</clus>
<clus scale="  266.375">  2  6  1 -1</clus>
<clus scale="   34.086">  1  3  2 -1</clus>
</clustering>
</event>
<event>
 6    0  0.1622933E+002  0.9950797E+02  0.7546771E-02  0.1281334E+00
          4   -1    0    0  504    0 -0.00000000000E+00  0.00000000000E+00  0.45024972927E+03  0.45024972927E+03  0.00000000000E+00 0. -1.
         21   -1    0    0  505  502  0.00000000000E+00 -0.00000000000E+00 -0.14520725406E+03  0.14520725406E+03  0.00000000000E+00 0. -1.
         21    1    1    2  503  502 -0.52687606334E+02 -0.93162020835E+01  0.81725271091E+02  0.97682114111E+02  0.00000000000E+00 0. -1.
         21    1    1    2  504  503 -0.52598195067E+01  0.36740500461E+02  0.50980114698E+02  0.63059512922E+02  0.00000000000E+00 0.  1.
         21    1    1    2  505  501  0.19683600078E+02 -0.10013817796E+03 -0.10442561935E+03  0.14601304316E+03  0.00000000000E+00 0. -1.
          4    1    1    2  501    0  0.38263825762E+02  0.72713879584E+02  0.27676270876E+03  0.28870231313E+03  0.00000000000E+00 0. -1.
<scales pt_clust_3="53.89559" pt_clust_4="37.11509" pt_clust_5="14000.00000" pt_clust_6="99.50797"></scales>
<clustering>
<clus scale="   37.115">  1  4  2 -1</clus>
<clus scale="   53.896">  1  3  2 -1</clus>
<clus scale="   99.508">  1  6  2 -1</clus>
<clus scale="   99.508">  2  3  1 -1</clus>
</clustering>
</event>
<event>
 6    0  0.1622933E+002  0.6522401E+02  0.7546771E-02  0.1377131E+00
         21   -1    0    0  505  502  0.00000000000E+00  0.00000000000E+00  0.76709371575E+03  0.76709371575E+03  0.00000000000E+00 0. -1.
          2   -1    0    0  504    0 -0.00000000000E+00 -0.00000000000E+00 -0.25142158530E+04  0.25142158530E+04  0.00000000000E+00 0. -1.
         21    1    1    2  503  501 -0.70377401174E+02 -0.25738262579E+02 -0.48855312183E+03  0.49426671910E+03  0.00000000000E+00 0.  1.
         21    1    1    2  504  502  0.12371854058E+02  0.65069388027E+02 -0.21243952697E+03  0.22252559550E+03  0.00000000000E+00 0. -1.
         21    1    1    2  505  503 -0.54933319572E+01 -0.44767808042E+02  0.75796082118E+03  0.75930161318E+03  0.00000000000E+00 0. -1.
          2    1    1    2  501    0  0.63498879074E+02  0.54366825931E+01 -0.18040903096E+04  0.18052156410E+04  0.00000000000E+00 0. -1.
<scales pt_clust_3="65.22401" pt_clust_4="39.45439" pt_clust_5="45.10358" pt_clust_6="14000.00000"></scales>
<clustering>
<clus scale="   45.104">  1  5  2 -1</clus>
<clus scale="   39.454">  1  4  2 -1</clus>
<clus scale="   65.224">  1  3  2 -1</clus>
<clus scale="   45.104">  1  3  2 -1</clus>
</clustering>
</event>
<event>
 6    0  0.1622933E+002  0.1188587E+03  0.7546771E-02  0.1244992E+00
          2   -1    0    0  505    0 -0.00000000000E+00  0.00000000000E+00  0.14580771516E+04  0.14580771516E+04  0.00000000000E+00 0.  1.
         21   -1    0    0  504  502  0.00000000000E+00 -0.00000000000E+00 -0.54944826225E+02  0.54944826225E+02  0.00000000000E+00 0. -1.
         21    1    1    2  503  502  0.10243288783E+02  0.30142471120E+02 -0.23611663508E+02  0.39635895145E+02  0.00000000000E+00 0. -1.
         21    1    1    2  504  501  0.50187115478E+02  0.80804920544E+02  0.98161996597E+02  0.13668928019E+03  0.00000000000E+00 0.  1.
         21    1    1    2  505  503  0.17796281726E+02 -0.25584280205E+02  0.26076368888E+03  0.26261942897E+03  0.00000000000E+00 0. -1.
          2    1    1    2  501    0 -0.78226685986E+02 -0.85363111459E+02  0.10678183034E+04  0.10740773735E+04  0.00000000000E+00 0.  1.
<scales pt_clust_3="31.71198" pt_clust_4="118.85872" pt_clust_5="31.16509" pt_clust_6="14000.00000"></scales>
<clustering>
<clus scale="   31.165">  1  5  2 -1</clus>
<clus scale="   31.712">  2  3  1 -1</clus>
<clus scale="  118.859">  2  4  1 -1</clus>
<clus scale="   31.712">  2  3  1 -1</clus>
</clustering>
</event>
<event>
 6    0  0.1622933E+002  0.8112644E+02  0.7546771E-02  0.1325885E+00
         21   -1    0    0  504  502  0.00000000000E+00  0.00000000000E+00  0.14929087972E+03  0.14929087972E+03  0.00000000000E+00 0. -1.
          1   -1    0    0  503    0 -0.00000000000E+00 -0.00000000000E+00 -0.21266749220E+04  0.21266749220E+04  0.00000000000E+00 0.  1.
         21    1    1    2  503  505 -0.59699231391E+02 -0.69764667535E+02 -0.47752307453E+03  0.48627090574E+03  0.00000000000E+00 0. -1.
         21    1    1    2  504  501  0.37906591843E+02  0.67529721177E+02 -0.51595238990E+03  0.52173177169E+03  0.00000000000E+00 0. -1.
         21    1    1    2  505  502  0.52340791246E+02 -0.73468375380E+01  0.13687350788E+03  0.14672386176E+03  0.00000000000E+00 0. -1.
          1    1    1    2  501    0 -0.30548151698E+02  0.95817838964E+01 -0.11207820857E+04  0.11212392625E+04  0.00000000000E+00 0.  1.
<scales pt_clust_3="81.12644" pt_clust_4="14000.00000" pt_clust_5="52.69923" pt_clust_6="32.01562"></scales>
<clustering>
<clus scale="   32.016">  2  6  1 -1</clus>
<clus scale="   52.699">  1  5  2 -1</clus>
<clus scale="   81.126">  1  3  2 -1</clus>
<clus scale="   52.699">  1  3  2 -1</clus>
</clustering>
</event>
<event>
 6    0  0.1622933E+002  0.7855106E+02  0.7546771E-02  0.1333214E+00
          2   -1    0    0  503    0 -0.00000000000E+00  0.00000000000E+00  0.21142181884E+03  0.21142181884E+03  0.00000000000E+00 0. -1.
         21   -1    0    0  505  502  0.00000000000E+00 -0.00000000000E+00 -0.24250302623E+03  0.24250302623E+03  0.00000000000E+00 0. -1.
         21    1    1    2  503  502 -0.17131165965E+02 -0.62520178252E+02  0.11655752160E+02  0.65864300606E+02  0.00000000000E+00 0. -1.
         21    1    1    2  504  501  0.37279124139E+02  0.93892991484E+02  0.84258371595E+01  0.10137367350E+03  0.00000000000E+00 0. -1.
         21    1    1    2  505  504  0.35403348810E+02 -0.24458732357E+01 -0.15849390631E+03  0.16241828020E+03  0.00000000000E+00 0. -1.
          2    1    1    2  501    0 -0.55551306984E+02 -0.28926939997E+02  0.10733110960E+03  0.12426859078E+03  0.00000000000E+00 0. -1.
<scales pt_clust_3="14000.00000" pt_clust_4="78.55106" pt_clust_5="35.48774" pt_clust_6="59.53772"></scales>
<clustering>
<clus scale="   35.488">  2  5  1 -1</clus>
<clus scale="   59.538">  1  6  2 -1</clus>
<clus scale="   78.551">  1  4  2 -1</clus>
<clus scale="   35.488">  2  3  1 -1</clus>
</clustering>
</event>
<event>
 6    0  0.1622933E+002  0.1255047E+03  0.7546771E-02  0.1234283E+00
         21   -1    0    0  503  502  0.00000000000E+00  0.00000000000E+00  0.14618865145E+04  0.14618865145E+04  0.00000000000E+00 0. -1.
         -4   -1    0    0    0  501 -0.00000000000E+00 -0.00000000000E+00 -0.61622065418E+02  0.61622065418E+02  0.00000000000E+00 0.  1.
         21    1    1    2  503  505 -0.10011996460E+03  0.80471890697E+02  0.12558981543E+04  0.12624499620E+04  0.00000000000E+00 0. -1.
         21    1    1    2  504  502  0.97481601464E+02 -0.49622783423E+02  0.12799692404E+03  0.16836952166E+03  0.00000000000E+00 0.  1.
         21    1    1    2  505  501 -0.37753267481E+02  0.18744708546E+01  0.15058288980E+02  0.40688756598E+02  0.00000000000E+00 0. -1.
         -4    1    1    2    0  504  0.40391630617E+02 -0.32723578129E+02  0.13110817242E+01  0.52000339659E+02  0.00000000000E+00 0.  1.
<scales pt_clust_3="14000.00000" pt_clust_4="125.50468" pt_clust_5="37.79977" pt_clust_6="37.94960"></scales>
<clustering>
<clus scale="   37.800">  2  5  1 -1</clus>
<clus scale="   37.950">  2  6  1 -1</clus>
<clus scale="  125.505">  2  4  1 -1</clus>
<clus scale="  125.505">  1  3  2 -1</clus>
</clustering>
</event>
<event>
 6    0  0.1622933E+002  0.6162668E+02  0.7546771E-02  0.1391129E+00
         21   -1    0    0  501  502  0.00000000000E+00  0.00000000000E+00  0.52968272068E+03  0.52968272068E+03  0.00000000000E+00 0. -1.
          1   -1    0    0  504    0 -0.00000000000E+00 -0.00000000000E+00 -0.12225798699E+03  0.12225798699E+03  0.00000000000E+00 0. -1.
         21    1    1    2  503  502 -0.59780350727E+02 -0.86339846524E+01  0.42222870243E+03  0.42652703687E+03  0.00000000000E+00 0. -1.
         21    1    1    2  504  505  0.40278917865E+02  0.28534749311E+02 -0.27986643409E+02  0.56743945509E+02  0.00000000000E+00 0. -1.
         21    1    1    2  505  503  0.69497493767E+02  0.27950167468E+02  0.50213316676E+02  0.90180323092E+02  0.00000000000E+00 0. -1.
          1    1    1    2  501    0 -0.49996060905E+02 -0.47850932127E+02 -0.37030642000E+02  0.78489402204E+02  0.00000000000E+00 0. -1.
<scales pt_clust_3="61.62668" pt_clust_4="49.36216" pt_clust_5="14000.00000" pt_clust_6="34.30427"></scales>
<clustering>
<clus scale="   49.362">  2  4  1 -1</clus>
<clus scale="   34.304">  2  6  1 -1</clus>
<clus scale="   61.627">  1  3  2 -1</clus>
<clus scale="   61.627">  1  3  2 -1</clus>
</clustering>
</event>
<event>
 6    0  0.1622933E+002  0.3212921E+03  0.7546771E-02  0.1075056E+00
          2   -1    0    0  503    0 -0.00000000000E+00  0.00000000000E+00  0.35715480752E+04  0.35715480752E+04  0.00000000000E+00 0.  1.
         21   -1    0    0  504  502  0.00000000000E+00 -0.00000000000E+00 -0.46087907467E+03  0.46087907467E+03  0.00000000000E+00 0. -1.
         21    1    1    2  503  502 -0.27636265053E+03 -0.32633157247E+02  0.88642398108E+03  0.92907949702E+03  0.00000000000E+00 0. -1.
         21    1    1    2  504  505 -0.42495521113E+02  0.39894992327E+01 -0.42798380649E+03  0.43010687513E+03  0.00000000000E+00 0. -1.
         21    1    1    2  505  501  0.43118594109E+02 -0.29856514316E+02  0.44978992487E+03  0.45283727885E+03  0.00000000000E+00 0. -1.
          2    1    1    2  501    0  0.27573957753E+03  0.58500172330E+02  0.22024389011E+04  0.22204034989E+04  0.00000000000E+00 0.  1.
<scales pt_clust_3="306.30230" pt_clust_4="42.68238" pt_clust_5="41.83749" pt_clust_6="41.83749"></scales>
<clustering>
<clus scale="   41.837">  5  6 -1 -1</clus>
<clus scale="   42.682">  2  4  1 -1</clus>
<clus scale="  306.302">  2  3  1 -1</clus>
<clus scale="   42.682">  2  3  1 -1</clus>
</clustering>
</event>
<event>
 6    0  0.1622933E+002  0.8534659E+02  0.7546771E-02  0.1314529E+00
          2   -1    0    0  505    0 -0.00000000000E+00  0.00000000000E+00  0.29084936370E+04  0.29084936370E+04  0.00000000000E+00 0.  1.
         21   -1    0    0  503  502  0.00000000000E+00 -0.00000000000E+00 -0.12357095010E+02  0.12357095010E+02  0.00000000000E+00 0.  1.
         21    1    1    2  503  501  0.84016614837E+02  0.64805355763E+01  0.21297050377E+03  0.22903542169E+03  0.00000000000E+00 0.  1.
         21    1    1    2  504  502 -0.89603816426E+02  0.17789487679E+02  0.70658715673E+03  0.71246804830E+03  0.00000000000E+00 0.  1.
         21    1    1    2  505  504 -0.18063486854E+01  0.38522143165E+02  0.98503646441E+03  0.98579108062E+03  0.00000000000E+00 0.  1.
          2    1    1    2  501    0  0.73935502741E+01 -0.62792166421E+02  0.99154241704E+03  0.99355618137E+03  0.00000000000E+00 0.  1.
<scales pt_clust_3="14000.00000" pt_clust_4="85.34659" pt_clust_5="38.56447" pt_clust_6="43.39366"></scales>
<clustering>
<clus scale="   38.564">  1  5  2 -1</clus>
<clus scale="   43.394">  1  6  2 -1</clus>
<clus scale="   85.347">  1  4  2 -1</clus>
<clus scale="   85.347">  2  3  1 -1</clus>
</clustering>
</event>
<event>
 6    0  0.1622933E+002  0.1115741E+03  0.7546771E-02  0.1257682E+00
          1   -1    0    0  505    0 -0.00000000000E+00  0.00000000000E+00  0.60649282555E+02  0.60649282555E+02  0.00000000000E+00 0.  1.
         21   -1    0    0  503  502  0.00000000000E+00 -0.00000000000E+00 -0.17638976277E+04  0.17638976277E+04  0.00000000000E+00 0.  1.
         21    1    1    2  503  501 -0.92097374617E+02 -0.29183269863E+02 -0.15733579002E+04  0.15763212464E+04  0.00000000000E+00 0.  1.
         21    1    1    2  504  502  0.72757635953E+02  0.56031913266E+01 -0.73810769743E+02  0.10379354061E+03  0.00000000000E+00 0.  1.
         21    1    1    2  505  504  0.38671771936E+02 -0.41304688543E+02 -0.51604795250E+02  0.76580925387E+02  0.00000000000E+00 0. -1.
          1    1    1    2  501    0 -0.19332033271E+02  0.64884767080E+02 -0.44748799993E+01  0.67851197929E+02  0.00000000000E+00 0.  1.
<scales pt_clust_3="96.61269" pt_clust_4="49.14430" pt_clust_5="49.14430" pt_clust_6="67.70347"></scales>
<clustering>
<clus scale="   49.144">  4  5 -1 -1</clus>
<clus scale="   67.703">  1  6  2 -1</clus>
<clus scale="   96.613">  2  3  1 -1</clus>
<clus scale="   96.613">  2  3  1 -1</clus>
</clustering>
</event>
<event>
 6    0  0.1622933E+002  0.1408548E+03  0.7546771E-02  0.1212183E+00
          2   -1    0    0  503    0 -0.00000000000E+00  0.00000000000E+00  0.26977251909E+03  0.26977251909E+03  0.00000000000E+00 0.  1.
         21   -1    0    0  505  502  0.00000000000E+00 -0.00000000000E+00 -0.89367680900E+03  0.89367680900E+03  0.00000000000E+00 0.  1.
         21    1    1    2  503  502  0.11187165716E+02  0.50887182216E+02 -0.41597608828E+02  0.66670976075E+02  0.00000000000E+00 0. -1.
         21    1    1    2  504  501 -0.83256325463E+02 -0.76659701072E+02  0.80888459582E+02  0.13910883650E+03  0.00000000000E+00 0.  1.
         21    1    1    2  505  504  0.58756510392E+02  0.80816766646E+02 -0.80176869051E+03  0.80797073609E+03  0.00000000000E+00 0.  1.
          2    1    1    2  501    0  0.13312649355E+02 -0.55044247790E+02  0.13857354985E+03  0.14969877944E+03  0.00000000000E+00 0.  1.
<scales pt_clust_3="52.10238" pt_clust_4="14000.00000" pt_clust_5="140.85475" pt_clust_6="56.32114"></scales>
<clustering>
<clus scale="   52.102">  2  3  1 -1</clus>
<clus scale="   56.321">  1  6  2 -1</clus>
<clus scale="  140.855">  2  5  1 -1</clus>
<clus scale="   52.102">  2  3  1 -1</clus>
</clustering>
</event>
<event>
 6    0  0.1622933E+002  0.1555120E+03  0.7546771E-02  0.1193859E+00
         21   -1    0    0  504  502  0.00000000000E+00  0.00000000000E+00  0.36919438160E+02  0.36919438160E+02  0.00000000000E+00 0. -1.
          2   -1    0    0  505    0 -0.00000000000E+00 -0.00000000000E+00 -0.33010944592E+04  0.33010944592E+04  0.00000000000E+00 0.  1.
         21    1    1    2  503  501  0.31525466740E+02 -0.24652311603E+02 -0.47402801820E+03  0.47571436132E+03  0.00000000000E+00 0.  1.
         21    1    1    2  504  503 -0.82291732992E+02  0.11831215501E+03 -0.12344372116E+03  0.18975786581E+03  0.00000000000E+00 0. -1.
         21    1    1    2  505  502  0.22543390872E+02  0.33566049027E+02 -0.38436078601E+03  0.38648169160E+03  0.00000000000E+00 0. -1.
          2    1    1    2  501    0  0.28222875380E+02 -0.12722589244E+03 -0.22823424957E+04  0.22860599787E+04  0.00000000000E+00 0.  1.
<scales pt_clust_3="31.26088" pt_clust_4="144.91973" pt_clust_5="40.43370" pt_clust_6="31.26088"></scales>
<clustering>
<clus scale="   31.261">  3  6 -1 -1</clus>
<clus scale="   40.434">  2  5  1 -1</clus>
<clus scale="  144.920">  1  4  2 -1</clus>
<clus scale="  144.920">  1  3  2 -1</clus>
</clustering>
</event>
<event>
 6    0  0.1622933E+002  0.7249388E+02  0.7546771E-02  0.1351812E+00
          2   -1    0    0  503    0 -0.00000000000E+00  0.00000000000E+00  0.17492273848E+03  0.17492273848E+03  0.00000000000E+00 0. -1.
         21   -1    0    0  504  502  0.00000000000E+00 -0.00000000000E+00 -0.24431589180E+03  0.24431589180E+03  0.00000000000E+00 0. -1.
         21    1    1    2  503  502  0.31763332623E+02 -0.23589655070E+01 -0.14616010739E+03  0.14959027712E+03  0.00000000000E+00 0. -1.
         21    1    1    2  504  505 -0.69670251505E+02 -0.31051797692E+02 -0.27163273218E+02  0.80969139162E+02  0.00000000000E+00 0. -1.
         21    1    1    2  505  501  0.35399354100E+02 -0.50870238348E+02  0.10554187236E+02  0.62867211553E+02  0.00000000000E+00 0. -1.
          2    1    1    2  501    0  0.25075647824E+01  0.84281001547E+02  0.93376040053E+02  0.12581200244E+03  0.00000000000E+00 0. -1.
<scales pt_clust_3="31.85081" pt_clust_4="61.13826" pt_clust_5="14000.00000" pt_clust_6="72.49388"></scales>
<clustering>
<clus scale="   31.851">  2  3  1 -1</clus>
<clus scale="   61.138">  2  4  1 -1</clus>
<clus scale="   72.494">  1  6  2 -1</clus>
<clus scale="   31.851">  2  3  1 -1</clus>
</clustering>
</event>
<event>
 6    0  0.1622933E+002  0.7704530E+02  0.7546771E-02  0.1337652E+00
          4   -1    0    0  504    0 -0.00000000000E+00  0.00000000000E+00  0.14779719782E+03  0.14779719782E+03  0.00000000000E+00 0. -1.
         21   -1    0    0  505  502  0.00000000000E+00 -0.00000000000E+00 -0.11575423218E+04  0.11575423218E+04  0.00000000000E+00 0. -1.
         21    1    1    2  503  501 -0.64315650110E+02 -0.39435272044E+02  0.69498902237E+02  0.10257553774E+03  0.00000000000E+00 0. -1.
         21    1    1    2  504  502  0.28938918729E+02 -0.72625472626E+02 -0.10517068460E+04  0.10546085579E+04  0.00000000000E+00 0. -1.
         21    1    1    2  505  503 -0.47917806931E+00  0.68286691651E+02 -0.52669843177E+02  0.86240444390E+02  0.00000000000E+00 0. -1.
          4    1    1    2  501    0  0.35855909450E+02  0.43774053019E+02  0.25132662969E+02  0.61914979674E+02  0.00000000000E+00 0. -1.
<scales pt_clust_3="34.88852" pt_clust_4="14000.00000" pt_clust_5="77.04530" pt_clust_6="56.58457"></scales>
<clustering>
<clus scale="   56.585">  1  6  2 -1</clus>
<clus scale="   34.889">  1  3  2 -1</clus>
<clus scale="   77.045">  1  5  2 -1</clus>
<clus scale="   77.045">  2  3  1 -1</clus>
</clustering>
</event>
<event>
 6    0  0.1622933E+002  0.1819899E+03  0.7546771E-02  0.1165891E+00
         21   -1    0    0  503  502  0.00000000000E+00  0.00000000000E+00  0.20664843003E+03  0.20664843003E+03  0.00000000000E+00 0.  1.
          4   -1    0    0  504    0 -0.00000000000E+00 -0.00000000000E+00 -0.15517681596E+04  0.15517681596E+04  0.00000000000E+00 0.  1.
         21    1    1    2  503  505  0.56972303217E+02 -0.85274671299E+02  0.16850498009E+03  0.19726008520E+03  0.00000000000E+00 0.  1.
         21    1    1    2  504  502  0.32132448014E+02 -0.99538358103E+02 -0.16568604999E+03  0.19593939397E+03  0.00000000000E+00 0. -1.
         21    1    1    2  505  501 -0.17523897946E+02  0.27717899810E+02 -0.96328563987E+02  0.10175736440E+03  0.00000000000E+00 0.  1.
          4    1    1    2  501    0 -0.71580853285E+02  0.15709512959E+03 -0.12516100957E+04  0.12634597461E+04  0.00000000000E+00 0.  1.
<scales pt_clust_3="102.55541" pt_clust_4="168.33516" pt_clust_5="30.14419" pt_clust_6="30.14419"></scales>
<clustering>
<clus scale="   30.144">  5  6 -1 -1</clus>
<clus scale="  102.555">  1  3  2 -1</clus>
<clus scale="  168.335">  1  4  2 -1</clus>
<clus scale="  102.555">  1  3  2 -1</clus>
</clustering>
</event>
<event>
 6    0  0.1622933E+002  0.1089332E+03  0.7546771E-02  0.1262558E+00
         21   -1    0    0  503  502  0.00000000000E+00  0.00000000000E+00  0.24076603184E+03  0.24076603184E+03  0.00000000000E+00 0.  1.
          2   -1    0    0  505    0 -0.00000000000E+00 -0.00000000000E+00 -0.27880442267E+04  0.27880442267E+04  0.00000000000E+00 0. -1.
         21    1    1    2  503  501  0.93035895150E+02 -0.57602118736E+02  0.21980258214E+03  0.24553382045E+03  0.00000000000E+00 0.  1.
         21    1    1    2  504  502 -0.30618077967E+02  0.33724560384E+02 -0.10605675889E+03  0.11542464545E+03  0.00000000000E+00 0.  1.
         21    1    1    2  505  504  0.30503547836E+02  0.15606005014E+02 -0.19983333656E+04  0.19986270923E+04  0.00000000000E+00 0. -1.
          2    1    1    2  501    0 -0.92921365020E+02  0.82715533385E+01 -0.66269065254E+03  0.66922470041E+03  0.00000000000E+00 0. -1.
<scales pt_clust_3="14000.00000" pt_clust_4="44.53713" pt_clust_5="34.26389" pt_clust_6="108.93320"></scales>
<clustering>
<clus scale="   34.264">  2  5  1 -1</clus>
<clus scale="   44.537">  2  4  1 -1</clus>
<clus scale="  108.933">  2  6  1 -1</clus>
<clus scale="  108.933">  1  3  2 -1</clus>
</clustering>
</event>
<event>
 6    0  0.1622933E+002  0.1027146E+03  0.7546771E-02  0.1274689E+00
         21   -1    0    0  501  502  0.00000000000E+00  0.00000000000E+00  0.71457701460E+02  0.71457701460E+02  0.00000000000E+00 0. -1.
          2   -1    0    0  503    0 -0.00000000000E+00 -0.00000000000E+00 -0.92411087316E+03  0.92411087316E+03  0.00000000000E+00 0. -1.
         21    1    1    2  503  504 -0.64602587612E+01  0.46406195361E+02 -0.33006435793E+03  0.33337328970E+03  0.00000000000E+00 0. -1.
         21    1    1    2  504  505 -0.24573499678E+02 -0.74304705856E+02 -0.20725279612E+03  0.22153728286E+03  0.00000000000E+00 0. -1.
         21    1    1    2  505  502  0.20164828361E+02 -0.97802637034E+02  0.12382735867E+01  0.99867459340E+02  0.00000000000E+00 0. -1.
          2    1    1    2  501    0  0.10868930078E+02  0.12570114753E+03 -0.31657429123E+03  0.34079054271E+03  0.00000000000E+00 0. -1.
<scales pt_clust_3="46.85371" pt_clust_4="63.49482" pt_clust_5="14000.00000" pt_clust_6="102.71456"></scales>
<clustering>
<clus scale="   46.854">  2  3  1 -1</clus>
<clus scale="   63.495">  2  4  1 -1</clus>
<clus scale="  102.715">  2  6  1 -1</clus>
<clus scale="  102.715">  1  3  2 -1</clus>
</clustering>
</event>
<event>
 6    0  0.1622933E+002  0.3433082E+03  0.7546771E-02  0.1065396E+00
          2   -1    0    0  505    0 -0.00000000000E+00  0.00000000000E+00  0.31329683388E+04  0.31329683388E+04  0.00000000000E+00 0.  1.
         21   -1    0    0  504  502  0.00000000000E+00 -0.00000000000E+00 -0.13895008658E+03  0.13895008658E+03  0.00000000000E+00 0.  1.
         21    1    1    2  503  501 -0.35516819828E+03 -0.51469467896E+02  0.81814663467E+03  0.89339659224E+03  0.00000000000E+00 0.  1.
         21    1    1    2  504  503  0.38949383371E+02  0.27048414388E+02 -0.73000229914E+02  0.87050012943E+02  0.00000000000E+00 0.  1.
         21    1    1    2  505  502 -0.44047925052E+02  0.50937573767E+02  0.58339013890E+03  0.58726391877E+03  0.00000000000E+00 0.  1.
          2    1    1    2  501    0  0.36026673996E+03 -0.26516520260E+02  0.16654817086E+04  0.17042079014E+04  0.00000000000E+00 0.  1.
<scales pt_clust_3="14000.00000" pt_clust_4="47.42016" pt_clust_5="67.19430" pt_clust_6="343.30822"></scales>
<clustering>
<clus scale="   47.420">  2  4  1 -1</clus>
<clus scale="   67.194">  1  5  2 -1</clus>
<clus scale="  343.308">  1  6  2 -1</clus>
<clus scale="   47.420">  2  3  1 -1</clus>
</clustering>
</event>
<event>
 6    0  0.1622933E+002  0.1397189E+03  0.7546771E-02  0.1213708E+00
          4   -1    0    0  504    0 -0.00000000000E+00  0.00000000000E+00  0.19606589666E+04  0.19606589666E+04  0.00000000000E+00 0. -1.
         21   -1    0    0  503  502  0.00000000000E+00 -0.00000000000E+00 -0.97538608476E+03  0.97538608476E+03  0.00000000000E+00 0.  1.
         21    1    1    2  503  501  0.14041351869E+03 -0.20733517706E+02 -0.95993304845E+03  0.97036966796E+03  0.00000000000E+00 0.  1.
         21    1    1    2  504  505 -0.40370456884E+02 -0.34244710733E+02  0.12736365240E+04  0.12747362352E+04  0.00000000000E+00 0. -1.
         21    1    1    2  505  502 -0.69365854800E+02 -0.95265917370E+01  0.16332952093E+03  0.17770455866E+03  0.00000000000E+00 0.  1.
          4    1    1    2  501    0 -0.30677207006E+02  0.64504820176E+02  0.50823988533E+03  0.51323458954E+03  0.00000000000E+00 0. -1.
<scales pt_clust_3="139.71891" pt_clust_4="52.93840" pt_clust_5="14000.00000" pt_clust_6="72.17437"></scales>
<clustering>
<clus scale="   52.938">  1  4  2 -1</clus>
<clus scale="   72.174">  1  6  2 -1</clus>
<clus scale="  139.719">  2  3  1 -1</clus>
<clus scale="  139.719">  2  3  1 -1</clus>
</clustering>
</event>
<event>
 6    0  0.1622933E+002  0.1318310E+03  0.7546771E-02  0.1224764E+00
         21   -1    0    0  505  502  0.00000000000E+00  0.00000000000E+00  0.33014017020E+03  0.33014017020E+03  0.00000000000E+00 0. -1.
          1   -1    0    0  504    0 -0.00000000000E+00 -0.00000000000E+00 -0.28153253322E+03  0.28153253322E+03  0.00000000000E+00 0. -1.
         21    1    1    2  503  502  0.53191702551E+02  0.47186421592E+02  0.19281162617E+03  0.20550483885E+03  0.00000000000E+00 0. -1.
         21    1    1    2  504  503  0.94504118854E+02  0.23920027466E+02  0.20217528952E+02  0.99558749848E+02  0.00000000000E+00 0. -1.
         21    1    1    2  505  501  0.82547321791E+01 -0.97954361121E+02 -0.43717934961E+02  0.10758464251E+03  0.00000000000E+00 0. -1.
          1    1    1    2  501    0 -0.15595055358E+03  0.26847912063E+02 -0.12070358319E+03  0.19902447221E+03  0.00000000000E+00 0. -1.
<scales pt_clust_3="71.10496" pt_clust_4="14000.00000" pt_clust_5="89.01724" pt_clust_6="131.83098"></scales>
<clustering>
<clus scale="   71.105">  1  3  2 -1</clus>
<clus scale="   89.017">  1  5  2 -1</clus>
<clus scale="  131.831">  2  6  1 -1</clus>
<clus scale="   71.105">  1  3  2 -1</clus>
</clustering>
</event>
<event>
 6    0  0.1622933E+002  0.7699309E+02  0.7546771E-02  0.1337808E+00
         -4   -1    0    0    0  501 -0.00000000000E+00  0.00000000000E+00  0.54834071922E+03  0.54834071922E+03  0.00000000000E+00 0.  1.
         21   -1    0    0  504  502  0.00000000000E+00 -0.00000000000E+00 -0.12348271877E+03  0.12348271877E+03  0.00000000000E+00 0. -1.
         21    1    1    2  503  505 -0.73793242059E+02  0.56316343380E+02 -0.68267412266E+02  0.11522765589E+03  0.00000000000E+00 0. -1.
         21    1    1    2  504  503  0.48806204544E+01 -0.44895788777E+02  0.17506820383E+02  0.48434915772E+02  0.00000000000E+00 0.  1.
         21    1    1    2  505  501 -0.35367986247E+02 -0.37766353930E+02  0.28168760991E+03  0.28640024706E+03  0.00000000000E+00 0.  1.
         -4    1    1    2    0  502  0.10428060785E+03  0.26345799327E+02  0.19393098242E+03  0.22176061927E+03  0.00000000000E+00 0.  1.
<scales pt_clust_3="14000.00000" pt_clust_4="45.16030" pt_clust_5="52.38898" pt_clust_6="76.99309"></scales>
<clustering>
<clus scale="   45.160">  2  4  1 -1</clus>
<clus scale="   52.389">  1  5  2 -1</clus>
<clus scale="   76.993">  1  6  2 -1</clus>
<clus scale="   45.160">  2  3  1 -1</clus>
</clustering>
</event>
<event>
 6    0  0.1622933E+002  0.8182310E+02  0.7546771E-02  0.1323956E+00
         21   -1    0    0  504  502  0.00000000000E+00  0.00000000000E+00  0.13734148100E+04  0.13734148100E+04  0.00000000000E+00 0. -1.
         -4   -1    0    0    0  501 -0.00000000000E+00 -0.00000000000E+00 -0.24735694700E+02  0.24735694700E+02  0.00000000000E+00 0. -1.
         21    1    1    2  503  502  0.81439732614E+02 -0.21099807529E+02  0.42673538382E+03  0.43494910016E+03  0.00000000000E+00 0. -1.
         21    1    1    2  504  505 -0.16969552912E+02  0.12487637506E+03  0.47487447124E+03  0.49131236318E+03  0.00000000000E+00 0. -1.
         21    1    1    2  505  501 -0.72413377002E+02 -0.32639917260E+02  0.23172753393E+03  0.24496267338E+03  0.00000000000E+00 0. -1.
         -4    1    1    2    0  503  0.79431973007E+01 -0.71136650275E+02  0.21534172631E+03  0.22692636798E+03  0.00000000000E+00 0. -1.
<scales pt_clust_3="14000.00000" pt_clust_4="81.82310" pt_clust_5="90.30322" pt_clust_6="71.57875"></scales>
<clustering>
<clus scale="   71.579">  2  6  1 -1</clus>
<clus scale="   90.303">  2  5  1 -1</clus>
<clus scale="   81.823">  2  4  1 -1</clus>
<clus scale="   81.823">  1  3  2 -1</clus>
</clustering>
</event>
<event>
 6    0  0.1622933E+002  0.2258702E+03  0.7546771E-02  0.1129581E+00
         21   -1    0    0  501  502  0.00000000000E+00  0.00000000000E+00  0.83841551505E+02  0.83841551505E+02  0.00000000000E+00 0. -1.
          2   -1    0    0  503    0 -0.00000000000E+00 -0.00000000000E+00 -0.25569701507E+04  0.25569701507E+04  0.00000000000E+00 0. -1.
         21    1    1    2  503  504  0.75349941852E+02 -0.12319401126E+02 -0.17810075681E+04  0.17826433572E+04  0.00000000000E+00 0. -1.
         21    1    1    2  504  505 -0.16159899081E+03 -0.17340533453E+03 -0.22843737269E+03  0.32919185457E+03  0.00000000000E+00 0. -1.
         21    1    1    2  505  502  0.23697607605E+02 -0.25114604677E+02 -0.57248673986E+02  0.66856044211E+02  0.00000000000E+00 0.  1.
          2    1    1    2  501    0  0.62551441354E+02  0.21083934033E+03 -0.40643498441E+03  0.46212044620E+03  0.00000000000E+00 0. -1.
<scales pt_clust_3="76.63464" pt_clust_4="225.87015" pt_clust_5="34.52999" pt_clust_6="14000.00000"></scales>
<clustering>
<clus scale="   34.530">  1  5  2 -1</clus>
<clus scale="   76.635">  2  3  1 -1</clus>
<clus scale="  225.870">  1  4  2 -1</clus>
<clus scale="   34.530">  1  3  2 -1</clus>
</clustering>
</event>
<event>
 6    0  0.1622933E+002  0.1468358E+03  0.7546771E-02  0.1204416E+00
         21   -1    0    0  504  502  0.00000000000E+00  0.00000000000E+00  0.30916894267E+03  0.30916894267E+03  0.00000000000E+00 0. -1.
         -2   -1    0    0    0  501 -0.00000000000E+00 -0.00000000000E+00 -0.24267886515E+03  0.24267886515E+03  0.00000000000E+00 0. -1.
         21    1    1    2  503  502 -0.63775124271E+02 -0.32163336958E+02 -0.63478742021E+02  0.95557822331E+02  0.00000000000E+00 0.  1.
         21    1    1    2  504  505  0.32262280955E+01  0.49107542203E+02  0.86663294492E+02  0.99661857604E+02  0.00000000000E+00 0. -1.
         21    1    1    2  505  501  0.97942113175E+02  0.46962839304E+02  0.17475431786E+03  0.20576014536E+03  0.00000000000E+00 0. -1.
         -2    1    1    2    0  503 -0.37393217000E+02 -0.63907044549E+02 -0.13144879280E+03  0.15086798252E+03  0.00000000000E+00 0. -1.
<scales pt_clust_3="56.16351" pt_clust_4="49.21341" pt_clust_5="135.26412" pt_clust_6="56.16351"></scales>
<clustering>
<clus scale="   49.213">  1  4  2 -1</clus>
<clus scale="   56.164">  3  6 -1 -1</clus>
<clus scale="  135.264">  1  5  2 -1</clus>
<clus scale="   49.213">  1  3  2 -1</clus>
</clustering>
</event>
<event>
 6    0  0.1622933E+002  0.1299134E+03  0.7546771E-02  0.1227584E+00
          3   -1    0    0  502    0 -0.00000000000E+00  0.00000000000E+00  0.22830023204E+03  0.22830023204E+03  0.00000000000E+00 0. -1.
         21   -1    0    0  504  502  0.00000000000E+00 -0.00000000000E+00 -0.15129157579E+04  0.15129157579E+04  0.00000000000E+00 0.  1.
         21    1    1    2  503  505 -0.27549734058E+02 -0.15205751305E+03 -0.65597591739E+02  0.16787947809E+03  0.00000000000E+00 0.  1.
         21    1    1    2  504  503 -0.22230423614E+01  0.40856890147E+02 -0.13740657821E+04  0.13746748710E+04  0.00000000000E+00 0.  1.
         21    1    1    2  505  501  0.16021133097E+02  0.51650771629E+02  0.11052901185E+03  0.12304934529E+03  0.00000000000E+00 0. -1.
          3    1    1    2  501    0  0.13751643323E+02  0.59549851273E+02  0.44518836094E+02  0.75612295613E+02  0.00000000000E+00 0. -1.
<scales pt_clust_3="121.25537" pt_clust_4="40.91732" pt_clust_5="43.03427" pt_clust_6="43.03427"></scales>
<clustering>
<clus scale="   40.917">  2  4  1 -1</clus>
<clus scale="   43.034">  5  6 -1 -1</clus>
<clus scale="  121.255">  2  3  1 -1</clus>
<clus scale="   40.917">  2  3  1 -1</clus>
</clustering>
</event>
<event>
 6    0  0.1622933E+002  0.1521107E+03  0.7546771E-02  0.1197903E+00
         21   -1    0    0  501  502  0.00000000000E+00  0.00000000000E+00  0.90509895029E+02  0.90509895029E+02  0.00000000000E+00 0.  1.
          1   -1    0    0  503    0 -0.00000000000E+00 -0.00000000000E+00 -0.11044786652E+04  0.11044786652E+04  0.00000000000E+00 0.  1.
         21    1    1    2  503  504 -0.43930780250E+02  0.20538013197E+02 -0.16049034476E+03  0.16765701358E+03  0.00000000000E+00 0.  1.
         21    1    1    2  504  505  0.72213735270E+02 -0.25505026705E+02 -0.20895197897E+03  0.22254496054E+03  0.00000000000E+00 0.  1.
         21    1    1    2  505  502 -0.35197376797E+02 -0.14814464261E+03 -0.10646414404E+02  0.15264021950E+03  0.00000000000E+00 0.  1.
          1    1    1    2  501    0  0.69144217765E+01  0.15311165612E+03 -0.63388003209E+03  0.65214636666E+03  0.00000000000E+00 0.  1.
<scales pt_clust_3="48.49457" pt_clust_4="65.52196" pt_clust_5="14000.00000" pt_clust_6="152.11065"></scales>
<clustering>
<clus scale="   48.495">  2  3  1 -1</clus>
<clus scale="   65.522">  2  4  1 -1</clus>
<clus scale="  152.111">  2  6  1 -1</clus>
<clus scale="  152.111">  1  3  2 -1</clus>
</clustering>
</event>
<event>
 6    0  0.1622933E+002  0.1095030E+03  0.7546771E-02  0.1261493E+00
         -1   -1    0    0    0  501 -0.00000000000E+00  0.00000000000E+00  0.11087945553E+03  0.11087945553E+03  0.00000000000E+00 0. -1.
         21   -1    0    0  505  502  0.00000000000E+00 -0.00000000000E+00 -0.35604785618E+03  0.35604785618E+03  0.00000000000E+00 0. -1.
         21    1    1    2  503  502 -0.87924865862E+02  0.32512843559E+02 -0.19538072157E+03  0.21670600683E+03  0.00000000000E+00 0. -1.
         21    1    1    2  504  501  0.82109224510E+02  0.49499645311E+02 -0.38627385902E+02  0.10336447445E+03  0.00000000000E+00 0. -1.
         21    1    1    2  505  504  0.54200901730E+02 -0.36543037172E+01 -0.31219457968E+01  0.54413584972E+02  0.00000000000E+00 0.  1.
         -1    1    1    2    0  503 -0.48385260378E+02 -0.78358185154E+02 -0.80383473775E+01  0.92443245459E+02  0.00000000000E+00 0. -1.
<scales pt_clust_3="97.58195" pt_clust_4="37.40007" pt_clust_5="37.40007" pt_clust_6="92.09310"></scales>
<clustering>
<clus scale="   37.400">  4  5 -1 -1</clus>
<clus scale="   92.093">  1  6  2 -1</clus>
<clus scale="   97.582">  2  3  1 -1</clus>
<clus scale="   97.582">  2  3  1 -1</clus>
</clustering>
</event>
<event>
 6    0  0.1622933E+002  0.1611484E+03  0.7546771E-02  0.1187406E+00
         21   -1    0    0  504  502  0.00000000000E+00  0.00000000000E+00  0.20216336312E+03  0.20216336312E+03  0.00000000000E+00 0.  1.
          2   -1    0    0  505    0 -0.00000000000E+00 -0.00000000000E+00 -0.20746690516E+04  0.20746690516E+04  0.00000000000E+00 0. -1.
         21    1    1    2  503  502 -0.12530273579E+03 -0.12241119322E+02  0.14922756893E+03  0.19524212641E+03  0.00000000000E+00 0.  1.
         21    1    1    2  504  501 -0.42314346870E+02 -0.73152482295E+01 -0.10716848266E+02  0.44259096742E+02  0.00000000000E+00 0.  1.
         21    1    1    2  505  503  0.12844899921E+03  0.66928710194E+02 -0.40467982216E+03  0.42981898062E+03  0.00000000000E+00 0.  1.
          2    1    1    2  501    0  0.39168083452E+02 -0.47372342643E+02 -0.16063365870E+04  0.16075122109E+04  0.00000000000E+00 0. -1.
<scales pt_clust_3="161.14845" pt_clust_4="42.94202" pt_clust_5="14000.00000" pt_clust_6="61.40019"></scales>
<clustering>
<clus scale="   42.942">  1  4  2 -1</clus>
<clus scale="   61.400">  2  6  1 -1</clus>
<clus scale="  161.148">  1  3  2 -1</clus>
<clus scale="   42.942">  1  3  2 -1</clus>
</clustering>
</event>
<event>
 6    0  0.1622933E+002  0.2089298E+03  0.7546771E-02  0.1142416E+00
         21   -1    0    0  504  502  0.00000000000E+00  0.00000000000E+00  0.11629274347E+03  0.11629274347E+03  0.00000000000E+00 0. -1.
          1   -1    0    0  505    0 -0.00000000000E+00 -0.00000000000E+00 -0.73568665305E+03  0.73568665305E+03  0.00000000000E+00 0. -1.
         21    1    1    2  503  502 -0.51921809692E+02  0.96590283711E+02 -0.66467940771E+02  0.12823238428E+03  0.00000000000E+00 0. -1.
         21    1    1    2  504  501  0.91996553826E+02 -0.41012781344E+02 -0.90336534984E+02  0.13530005064E+03  0.00000000000E+00 0. -1.
         21    1    1    2  505  503 -0.18863044438E+03 -0.43063430871E+02 -0.35599622666E+03  0.40517800659E+03  0.00000000000E+00 0. -1.
          1    1    1    2  501    0  0.14855570024E+03 -0.12514071496E+02 -0.10659320716E+03  0.18326895502E+03  0.00000000000E+00 0. -1.
<scales pt_clust_3="109.66110" pt_clust_4="36.52331" pt_clust_5="204.15013" pt_clust_6="36.52331"></scales>
<clustering>
<clus scale="   36.523">  4  6 -1 -1</clus>
<clus scale="  109.661">  1  3  2 -1</clus>
<clus scale="  204.150">  2  5  1 -1</clus>
<clus scale="  109.661">  1  3  2 -1</clus>
</clustering>
</event>
<event>
 6    0  0.1622933E+002  0.1124074E+03  0.7546771E-02  0.1256176E+00
          2   -1    0    0  503    0 -0.00000000000E+00  0.00000000000E+00  0.12180946184E+04  0.12180946184E+04  0.00000000000E+00 0.  1.
         21   -1    0    0  505  502  0.00000000000E+00 -0.00000000000E+00 -0.16021412270E+03  0.16021412270E+03  0.00000000000E+00 0.  1.
         21    1    1    2  503  502 -0.15051784994E+02 -0.27144367655E+02  0.10435039974E+03  0.10886863117E+03  0.00000000000E+00 0.  1.
         21    1    1    2  504  501 -0.63065189779E+02 -0.33925064752E+02  0.70277282181E+03  0.70641189631E+03  0.00000000000E+00 0.  1.
         21    1    1    2  505  504  0.11289762329E+03  0.14033506187E+02 -0.13289615415E+03  0.17494056255E+03  0.00000000000E+00 0.  1.
          2    1    1    2  501    0 -0.34780648512E+02  0.47035926220E+02  0.38365342830E+03  0.38808765107E+03  0.00000000000E+00 0.  1.
<scales pt_clust_3="31.03825" pt_clust_4="14000.00000" pt_clust_5="112.40737" pt_clust_6="54.91062"></scales>
<clustering>
<clus scale="   31.038">  1  3  2 -1</clus>
<clus scale="   54.911">  1  6  2 -1</clus>
<clus scale="  112.407">  2  5  1 -1</clus>
<clus scale="  112.407">  2  3  1 -1</clus>
</clustering>
</event>
<event>
 6    0  0.1622933E+002  0.1471466E+03  0.7546771E-02  0.1204024E+00
         21   -1    0    0  504  502  0.00000000000E+00  0.00000000000E+00  0.35121046707E+03  0.35121046707E+03  0.00000000000E+00 0. -1.
          2   -1    0    0  503    0 -0.00000000000E+00 -0.00000000000E+00 -0.46619423297E+03  0.46619423297E+03  0.00000000000E+00 0. -1.
         21    1    1    2  503  505 -0.31748315588E+02 -0.37008355824E+02 -0.86194851194E+02  0.99030936156E+02  0.00000000000E+00 0.  1.
         21    1    1    2  504  501 -0.45840719391E+02 -0.14083061126E+03  0.29610535713E+03  0.33107856340E+03  0.00000000000E+00 0. -1.
         21    1    1    2  505  502  0.57459595221E+02  0.41817062245E+02 -0.13853018722E+03  0.15569484432E+03  0.00000000000E+00 0. -1.
          2    1    1    2  501    0  0.20129439759E+02  0.13602190484E+03 -0.18636408462E+03  0.23160035617E+03  0.00000000000E+00 0. -1.
<scales pt_clust_3="48.76037" pt_clust_4="14000.00000" pt_clust_5="52.56788" pt_clust_6="147.14659"></scales>
<clustering>
<clus scale="   48.760">  2  3  1 -1</clus>
<clus scale="   52.568">  2  5  1 -1</clus>
<clus scale="  147.147">  2  6  1 -1</clus>
<clus scale="  147.147">  1  3  2 -1</clus>
</clustering>
</event>
<event>
 6    0  0.1622933E+002  0.9604209E+02  0.7546771E-02  0.1288846E+00
          2   -1    0    0  503    0 -0.00000000000E+00  0.00000000000E+00  0.10851642897E+03  0.10851642897E+03  0.00000000000E+00 0.  1.
         21   -1    0    0  504  502  0.00000000000E+00 -0.00000000000E+00 -0.13353149424E+04  0.13353149424E+04  0.00000000000E+00 0.  1.
         21    1    1    2  503  502  0.25554427739E+02  0.19526246905E+02 -0.10892770589E+04  0.10897517213E+04  0.00000000000E+00 0.  1.
         21    1    1    2  504  505  0.34649492016E+02  0.75925734760E+00 -0.98408199870E+02  0.10433282116E+03  0.00000000000E+00 0. -1.
         21    1    1    2  505  501 -0.74854344284E+02  0.76041354596E+02 -0.90211009228E+02  0.13972647084E+03  0.00000000000E+00 0. -1.
          2    1    1    2  501    0  0.14650424528E+02 -0.96326858848E+02  0.51097754531E+02  0.11002035808E+03  0.00000000000E+00 0.  1.
<scales pt_clust_3="32.16058" pt_clust_4="46.03958" pt_clust_5="14000.00000" pt_clust_6="96.04209"></scales>
<clustering>
<clus scale="   32.161">  2  3  1 -1</clus>
<clus scale="   46.040">  2  4  1 -1</clus>
<clus scale="   96.042">  1  6  2 -1</clus>
<clus scale="   32.161">  2  3  1 -1</clus>
</clustering>
</event>
<event>
 6    0  0.1622933E+002  0.1395089E+03  0.7546771E-02  0.1213991E+00
          2   -1    0    0  503    0 -0.00000000000E+00  0.00000000000E+00  0.12772051252E+04  0.12772051252E+04  0.00000000000E+00 0.  1.
         21   -1    0    0  504  502  0.00000000000E+00 -0.00000000000E+00 -0.37128759250E+02  0.37128759250E+02  0.00000000000E+00 0. -1.
         21    1    1    2  503  505  0.32397040533E+02  0.19022895352E+02  0.10425522639E+03  0.11081782805E+03  0.00000000000E+00 0. -1.
         21    1    1    2  504  501  0.19291273285E+02  0.46828362796E+02  0.13298044567E+02  0.52363028717E+02  0.00000000000E+00 0. -1.
         21    1    1    2  505  502  0.82795389636E+02 -0.25977753084E+02  0.19981514504E+03  0.21784400930E+03  0.00000000000E+00 0. -1.
          2    1    1    2  501    0 -0.13448370345E+03 -0.39873505063E+02  0.92270794991E+03  0.93330901835E+03  0.00000000000E+00 0.  1.
<scales pt_clust_3="31.15659" pt_clust_4="50.64631" pt_clust_5="31.15659" pt_clust_6="131.22725"></scales>
<clustering>
<clus scale="   31.157">  3  5 -1 -1</clus>
<clus scale="   50.646">  2  4  1 -1</clus>
<clus scale="  131.227">  1  6  2 -1</clus>
<clus scale="   50.646">  2  3  1 -1</clus>
</clustering>
</event>
<event>
 6    0  0.1622933E+002  0.1135211E+03  0.7546771E-02  0.1254185E+00
         21   -1    0    0  505  502  0.00000000000E+00  0.00000000000E+00  0.37447889613E+03  0.37447889613E+03  0.00000000000E+00 0.  1.
          1   -1    0    0  503    0 -0.00000000000E+00 -0.00000000000E+00 -0.49608943273E+03  0.49608943273E+03  0.00000000000E+00 0.  1.
         21    1    1    2  503  504  0.78584920873E+02  0.11168435047E+01 -0.48558654842E+02  0.92383873528E+02  0.00000000000E+00 0. -1.
         21    1    1    2  504  502 -0.95952141142E+02  0.73907432237E+02  0.33592461065E+03  0.35709167727E+03  0.00000000000E+00 0.  1.
         21    1    1    2  505  501  0.36485119600E+02 -0.43076207208E+02 -0.16734978897E+03  0.17661448256E+03  0.00000000000E+00 0. -1.
          1    1    1    2  501    0 -0.19117899331E+02 -0.31948068534E+02 -0.24162670345E+03  0.24447829551E+03  0.00000000000E+00 0.  1.
<scales pt_clust_3="14000.00000" pt_clust_4="113.52110" pt_clust_5="68.91760" pt_clust_6="37.23135"></scales>
<clustering>
<clus scale="   37.231">  2  6  1 -1</clus>
<clus scale="   68.918">  2  5  1 -1</clus>
<clus scale="  113.521">  1  4  2 -1</clus>
<clus scale="  113.521">  1  3  2 -1</clus>
</clustering>
</event>
<event>
 6    0  0.1622933E+002  0.1130897E+03  0.7546771E-02  0.1254953E+00
          2   -1    0    0  503    0 -0.00000000000E+00  0.00000000000E+00  0.82280230816E+02  0.82280230816E+02  0.00000000000E+00 0.  1.
         21   -1    0    0  501  502  0.00000000000E+00 -0.00000000000E+00 -0.49612994534E+03  0.49612994534E+03  0.00000000000E+00 0.  1.
         21    1    1    2  503  504  0.16555949167E+02  0.28508849247E+02  0.32105368342E+02  0.46017481619E+02  0.00000000000E+00 0.  1.
         21    1    1    2  504  505 -0.11527661826E+03 -0.40531517065E+02 -0.14261022457E+03  0.18780090188E+03  0.00000000000E+00 0.  1.
         21    1    1    2  505  502  0.11658718420E+03 -0.26550902044E+02 -0.20273960254E+03  0.23537389056E+03  0.00000000000E+00 0.  1.
          2    1    1    2  501    0 -0.17866515098E+02  0.38573569861E+02 -0.10060525575E+03  0.10921790210E+03  0.00000000000E+00 0.  1.
<scales pt_clust_3="32.96747" pt_clust_4="14000.00000" pt_clust_5="113.08970" pt_clust_6="44.47609"></scales>
<clustering>
<clus scale="   32.967">  1  3  2 -1</clus>
<clus scale="   44.476">  2  6  1 -1</clus>
<clus scale="  113.090">  2  5  1 -1</clus>
<clus scale="   44.476">  2  3  1 -1</clus>
</clustering>
</event>
<event>
 6    0  0.1622933E+002  0.6491097E+02  0.7546771E-02  0.1378307E+00
         21   -1    0    0  505  502  0.00000000000E+00  0.00000000000E+00  0.30421737810E+03  0.30421737810E+03  0.00000000000E+00 0.  1.
          2   -1    0    0  504    0 -0.00000000000E+00 -0.00000000000E+00 -0.10325836689E+04  0.10325836689E+04  0.00000000000E+00 0.  1.
         21    1    1    2  503  501  0.81048365551E+01  0.53417234996E+02 -0.59722058418E+02  0.80534549306E+02  0.00000000000E+00 0.  1.
         21    1    1    2  504  502 -0.49852987427E+02 -0.10153683200E+03 -0.53143043697E+02  0.12497692468E+03  0.00000000000E+00 0.  1.
         21    1    1    2  505  503 -0.19558200949E+02  0.28383762704E+02  0.25554817918E+03  0.25786243055E+03  0.00000000000E+00 0.  1.
          2    1    1    2  501    0  0.61306351820E+02  0.19735834301E+02 -0.87104936789E+03  0.87342714248E+03  0.00000000000E+00 0.  1.
<scales pt_clust_3="59.75623" pt_clust_4="64.91097" pt_clust_5="34.46971" pt_clust_6="14000.00000"></scales>
<clustering>
<clus scale="   34.470">  1  5  2 -1</clus>
<clus scale="   59.756">  1  3  2 -1</clus>
<clus scale="   64.911">  1  4  2 -1</clus>
<clus scale="   34.470">  1  3  2 -1</clus>
</clustering>
</event>
<event>
 6    0  0.1622933E+002  0.9794278E+02  0.7546771E-02  0.1284682E+00
         -2   -1    0    0    0  501 -0.00000000000E+00  0.00000000000E+00  0.12778912208E+04  0.12778912208E+04  0.00000000000E+00 0.  1.
         21   -1    0    0  504  502  0.00000000000E+00 -0.00000000000E+00 -0.39170375215E+02  0.39170375215E+02  0.00000000000E+00 0.  1.
         21    1    1    2  503  502  0.51151997665E+01  0.60350608951E+02  0.18046882479E+03  0.19036112521E+03  0.00000000000E+00 0.  1.
         21    1    1    2  504  505  0.16671292157E+01 -0.12048579170E+03  0.78581931503E+02  0.14385661361E+03  0.00000000000E+00 0.  1.
         21    1    1    2  505  501 -0.23664586600E+02  0.24883710355E+02  0.28257787055E+03  0.28465674877E+03  0.00000000000E+00 0. -1.
         -2    1    1    2    0  503  0.16882257618E+02  0.35251472393E+02  0.69709221878E+03  0.69818710846E+03  0.00000000000E+00 0.  1.
<scales pt_clust_3="97.94278" pt_clust_4="14000.00000" pt_clust_5="34.33965" pt_clust_6="52.71204"></scales>
<clustering>
<clus scale="   34.340">  1  5  2 -1</clus>
<clus scale="   52.712">  1  6  2 -1</clus>
<clus scale="   97.943">  1  3  2 -1</clus>
<clus scale="   97.943">  2  3  1 -1</clus>
</clustering>
</event>
<event>
 6    0  0.1622933E+002  0.9106088E+02  0.7546771E-02  0.1300303E+00
         21   -1    0    0  504  502  0.00000000000E+00  0.00000000000E+00  0.87391032091E+03  0.87391032091E+03  0.00000000000E+00 0.  1.
          1   -1    0    0  502    0 -0.00000000000E+00 -0.00000000000E+00 -0.25196059524E+03  0.25196059524E+03  0.00000000000E+00 0. -1.
         21    1    1    2  503  505 -0.40948736042E+02  0.13756360801E+02 -0.30970069371E+02  0.53152437787E+02  0.00000000000E+00 0.  1.
         21    1    1    2  504  503  0.36614612074E+02 -0.31315496646E+01  0.82224154208E+03  0.82306232446E+03  0.00000000000E+00 0.  1.
         21    1    1    2  505  501 -0.12265127483E+02  0.84012071332E+02 -0.59163380794E+02  0.10348317307E+03  0.00000000000E+00 0.  1.
          1    1    1    2  501    0  0.16599251451E+02 -0.94636882469E+02 -0.11015836625E+03  0.14617298084E+03  0.00000000000E+00 0. -1.
<scales pt_clust_3="35.52154" pt_clust_4="36.74828" pt_clust_5="91.06088" pt_clust_6="14000.00000"></scales>
<clustering>
<clus scale="   36.748">  1  4  2 -1</clus>
<clus scale="   35.522">  1  3  2 -1</clus>
<clus scale="   91.061">  1  5  2 -1</clus>
<clus scale="   36.748">  1  3  2 -1</clus>
</clustering>
</event>
<event>
 6    0  0.1622933E+002  0.9477042E+02  0.7546771E-02  0.1291694E+00
          1   -1    0    0  505    0 -0.00000000000E+00  0.00000000000E+00  0.35582827635E+03  0.35582827635E+03  0.00000000000E+00 0. -1.
         21   -1    0    0  504  502  0.00000000000E+00 -0.00000000000E+00 -0.31741959202E+03  0.31741959202E+03  0.00000000000E+00 0. -1.
         21    1    1    2  503  501  0.89633818184E+02  0.48856023898E+02  0.60920580816E+02  0.11887997981E+03  0.00000000000E+00 0. -1.
         21    1    1    2  504  503  0.31591303812E+02 -0.50320257776E+02 -0.25879073318E+03  0.26552360045E+03  0.00000000000E+00 0. -1.
         21    1    1    2  505  502 -0.49931474883E+02 -0.54403170513E+00  0.91309489710E+01  0.50762411129E+02  0.00000000000E+00 0. -1.
          1    1    1    2  501    0 -0.71293647113E+02  0.20082655829E+01  0.22714788772E+03  0.23808187698E+03  0.00000000000E+00 0. -1.
<scales pt_clust_3="14000.00000" pt_clust_4="59.14711" pt_clust_5="49.93444" pt_clust_6="94.77042"></scales>
<clustering>
<clus scale="   49.934">  1  5  2 -1</clus>
<clus scale="   59.147">  2  4  1 -1</clus>
<clus scale="   94.770">  1  6  2 -1</clus>
<clus scale="   59.147">  2  3  1 -1</clus>
</clustering>
</event>
<event>
 6    0  0.1622933E+002  0.2754949E+03  0.7546771E-02  0.1098175E+00
         21   -1    0    0  505  502  0.00000000000E+00  0.00000000000E+00  0.83785668005E+02  0.83785668005E+02  0.00000000000E+00 0.  1.
          2   -1    0    0  503    0 -0.00000000000E+00 -0.00000000000E+00 -0.28828344861E+04  0.28828344861E+04  0.00000000000E+00 0.  1.
         21    1    1    2  503  504  0.37119066714E+02 -0.10014621522E+02 -0.25579826178E+03  0.25867135228E+03  0.00000000000E+00 0.  1.
         21    1    1    2  504  502  0.14065959334E+03 -0.26319788512E+03 -0.34207440793E+03  0.45395280425E+03  0.00000000000E+00 0.  1.
         21    1    1    2  505  501 -0.61102718903E+02  0.72802645509E+01 -0.39993062431E+02  0.73389301345E+02  0.00000000000E+00 0.  1.
          2    1    1    2  501    0 -0.11667594115E+03  0.26593224209E+03 -0.21611830860E+04  0.21806066963E+04  0.00000000000E+00 0.  1.
<scales pt_clust_3="38.44630" pt_clust_4="14000.00000" pt_clust_5="60.71361" pt_clust_6="275.49495"></scales>
<clustering>
<clus scale="   38.446">  2  3  1 -1</clus>
<clus scale="   60.714">  1  5  2 -1</clus>
<clus scale="  275.495">  2  6  1 -1</clus>
<clus scale="   60.714">  1  3  2 -1</clus>
</clustering>
</event>
<event>
 6    0  0.1622933E+002  0.7642428E+02  0.7546771E-02  0.1339516E+00
          2   -1    0    0  504    0 -0.00000000000E+00  0.00000000000E+00  0.14523978180E+04  0.14523978180E+04  0.00000000000E+00 0. -1.
         21   -1    0    0  505  502  0.00000000000E+00 -0.00000000000E+00 -0.34154656466E+03  0.34154656466E+03  0.00000000000E+00 0. -1.
         21    1    1    2  503  502 -0.46236160512E+02 -0.12989708446E+02 -0.32282375457E+03  0.32637661004E+03  0.00000000000E+00 0. -1.
         21    1    1    2  504  503  0.12003386111E+02 -0.85431602675E+02  0.48259449092E+03  0.49024492112E+03  0.00000000000E+00 0. -1.
         21    1    1    2  505  501 -0.22853512564E+02  0.38597615613E+02  0.33401999283E+02  0.55926313338E+02  0.00000000000E+00 0.  1.
          2    1    1    2  501    0  0.57086286966E+02  0.59823695508E+02  0.91767851772E+03  0.92139653819E+03  0.00000000000E+00 0. -1.
<scales pt_clust_3="73.08471" pt_clust_4="14000.00000" pt_clust_5="44.85598" pt_clust_6="76.42428"></scales>
<clustering>
<clus scale="   44.856">  2  5  1 -1</clus>
<clus scale="   73.085">  2  3  1 -1</clus>
<clus scale="   76.424">  1  6  2 -1</clus>
<clus scale="   44.856">  2  3  1 -1</clus>
</clustering>
</event>
<event>
 6    0  0.1622933E+002  0.1644412E+03  0.7546771E-02  0.1183772E+00
         21   -1    0    0  501  502  0.00000000000E+00  0.00000000000E+00  0.58103540645E+02  0.58103540645E+02  0.00000000000E+00 0.  1.
          2   -1    0    0  505    0 -0.00000000000E+00 -0.00000000000E+00 -0.38064873597E+04  0.38064873597E+04  0.00000000000E+00 0. -1.
         21    1    1    2  503  502 -0.54700243220E+02 -0.15804908050E+03 -0.78367346827E+02  0.18469723740E+03  0.00000000000E+00 0.  1.
         21    1    1    2  504  503  0.49554147327E+02  0.49258670921E+02 -0.41747127801E+03  0.42327803881E+03  0.00000000000E+00 0.  1.
         21    1    1    2  505  504 -0.44401182500E+02  0.21067948658E+01 -0.10324506702E+04  0.10334071269E+04  0.00000000000E+00 0.  1.
          2    1    1    2  501    0  0.49547278393E+02  0.10668361472E+03 -0.22200945241E+04  0.22232084972E+04  0.00000000000E+00 0. -1.
<scales pt_clust_3="14000.00000" pt_clust_4="65.51269" pt_clust_5="44.45114" pt_clust_6="164.44116"></scales>
<clustering>
<clus scale="   44.451">  2  5  1 -1</clus>
<clus scale="   65.513">  2  4  1 -1</clus>
<clus scale="  164.441">  2  6  1 -1</clus>
<clus scale="  164.441">  1  3  2 -1</clus>
</clustering>
</event>
<event>
 6    0  0.1622933E+002  0.8311065E+02  0.7546771E-02  0.1320449E+00
         21   -1    0    0  504  502  0.00000000000E+00  0.00000000000E+00  0.15855078831E+02  0.15855078831E+02  0.00000000000E+00 0. -1.
          1   -1    0    0  505    0 -0.00000000000E+00 -0.00000000000E+00 -0.26159279668E+04  0.26159279668E+04  0.00000000000E+00 0. -1.
         21    1    1    2  503  502  0.25056676032E+02 -0.41113943650E+02 -0.56229001403E+02  0.74026305966E+02  0.00000000000E+00 0. -1.
         21    1    1    2  504  501 -0.10107295155E+03 -0.47784424271E+02 -0.94498614178E+03  0.95157653444E+03  0.00000000000E+00 0. -1.
         21    1    1    2  505  503  0.50018484226E+01  0.73314895797E+02 -0.56323978606E+03  0.56801333526E+03  0.00000000000E+00 0. -1.
          1    1    1    2  501    0  0.71014427093E+02  0.15583472123E+02 -0.10356179588E+04  0.10381668700E+04  0.00000000000E+00 0. -1.
<scales pt_clust_3="48.14762" pt_clust_4="14000.00000" pt_clust_5="60.75017" pt_clust_6="83.11065"></scales>
<clustering>
<clus scale="   48.148">  1  3  2 -1</clus>
<clus scale="   60.750">  1  5  2 -1</clus>
<clus scale="   83.111">  2  6  1 -1</clus>
<clus scale="   48.148">  1  3  2 -1</clus>
</clustering>
</event>
<event>
 6    0  0.1622933E+002  0.1000191E+03  0.7546771E-02  0.1280256E+00
          2   -1    0    0  502    0 -0.00000000000E+00  0.00000000000E+00  0.22093754888E+04  0.22093754888E+04  0.00000000000E+00 0.  1.
         21   -1    0    0  503  502  0.00000000000E+00 -0.00000000000E+00 -0.17849964875E+03  0.17849964875E+03  0.00000000000E+00 0. -1.
         21    1    1    2  503  505 -0.40197626631E+01 -0.35794698821E+02 -0.16629319440E+03  0.17014947975E+03  0.00000000000E+00 0. -1.
         21    1    1    2  504  501 -0.47516466748E+02 -0.45930713742E+02  0.41200505693E+03  0.41727162858E+03  0.00000000000E+00 0. -1.
         21    1    1    2  505  504 -0.36187246405E+02 -0.19735191412E+02  0.79734794767E+02  0.89758743746E+02  0.00000000000E+00 0.  1.
          2    1    1    2  501    0  0.87723475816E+02  0.10146060397E+03  0.17054291827E+04  0.17106952854E+04  0.00000000000E+00 0.  1.
<scales pt_clust_3="36.01970" pt_clust_4="100.01907" pt_clust_5="53.27562" pt_clust_6="14000.00000"></scales>
<clustering>
<clus scale="   36.020">  2  3  1 -1</clus>
<clus scale="   53.276">  2  5  1 -1</clus>
<clus scale="  100.019">  2  4  1 -1</clus>
<clus scale="   36.020">  2  3  1 -1</clus>
</clustering>
</event>
<event>
 6    0  0.1622933E+002  0.1093644E+03  0.7546771E-02  0.1261751E+00
          2   -1    0    0  503    0 -0.00000000000E+00  0.00000000000E+00  0.12190313716E+04  0.12190313716E+04  0.00000000000E+00 0.  1.
         21   -1    0    0  501  502  0.00000000000E+00 -0.00000000000E+00 -0.67468618313E+02  0.67468618313E+02  0.00000000000E+00 0.  1.
         21    1    1    2  503  505 -0.77931182338E+02 -0.97841404532E+02  0.13129011941E+03  0.18133754459E+03  0.00000000000E+00 0. -1.
         21    1    1    2  504  502 -0.21848604261E+02  0.26009771987E+02 -0.18408496115E+02  0.38636025626E+02  0.00000000000E+00 0.  1.
         21    1    1    2  505  504 -0.89326447398E+01  0.50842650461E+02  0.50681102812E+02  0.72341837343E+02  0.00000000000E+00 0.  1.
          2    1    1    2  501    0  0.10871243134E+03  0.20988982085E+02  0.98800002720E+03  0.99418458238E+03  0.00000000000E+00 0.  1.
<scales pt_clust_3="14000.00000" pt_clust_4="33.96866" pt_clust_5="59.98352" pt_clust_6="109.36443"></scales>
<clustering>
<clus scale="   33.969">  2  4  1 -1</clus>
<clus scale="   59.984">  2  5  1 -1</clus>
<clus scale="  109.364">  1  6  2 -1</clus>
<clus scale="   33.969">  2  3  1 -1</clus>
</clustering>
</event>
<event>
 6    0  0.1622933E+002  0.9652651E+02  0.7546771E-02  0.1287775E+00
          1   -1    0    0  504    0 -0.00000000000E+00  0.00000000000E+00  0.27674606308E+04  0.27674606308E+04  0.00000000000E+00 0.  1.
         21   -1    0    0  501  502  0.00000000000E+00 -0.00000000000E+00 -0.97025315715E+03  0.97025315715E+03  0.00000000000E+00 0.  1.
         21    1    1    2  503  502 -0.70766962727E+02  0.65590843538E+02 -0.95950282367E+03  0.96434215422E+03  0.00000000000E+00 0.  1.
         21    1    1    2  504  505 -0.37891026261E+02 -0.11081959233E+01  0.42942012592E+03  0.43109001672E+03  0.00000000000E+00 0. -1.
         21    1    1    2  505  503  0.64015447520E+02  0.71468995336E+02  0.48231864901E+03  0.49176933007E+03  0.00000000000E+00 0.  1.
          1    1    1    2  501    0  0.44642541468E+02 -0.13595164295E+03  0.18449715224E+04  0.18505122869E+04  0.00000000000E+00 0.  1.
<scales pt_clust_3="14000.00000" pt_clust_4="37.90723" pt_clust_5="90.68767" pt_clust_6="96.52651"></scales>
<clustering>
<clus scale="   37.907">  1  4  2 -1</clus>
<clus scale="   90.688">  1  5  2 -1</clus>
<clus scale="   96.527">  1  6  2 -1</clus>
<clus scale="   96.527">  2  3  1 -1</clus>
</clustering>
</event>
<event>
 6    0  0.1622933E+002  0.1494366E+03  0.7546771E-02  0.1201167E+00
          2   -1    0    0  505    0 -0.00000000000E+00  0.00000000000E+00  0.19228083914E+03  0.19228083914E+03  0.00000000000E+00 0. -1.
         21   -1    0    0  504  502  0.00000000000E+00 -0.00000000000E+00 -0.58588597689E+03  0.58588597689E+03  0.00000000000E+00 0.  1.
         21    1    1    2  503  501 -0.43386774663E+01 -0.99715850556E+02 -0.90797879334E+02  0.13493083364E+03  0.00000000000E+00 0.  1.
         21    1    1    2  504  503 -0.63399248009E+01 -0.36911357849E+02 -0.20111111100E+03  0.20456862407E+03  0.00000000000E+00 0.  1.
         21    1    1    2  505  502  0.59698704988E+02  0.25484269742E+03 -0.15023745199E+03  0.30179467819E+03  0.00000000000E+00 0.  1.
          2    1    1    2  501    0 -0.49020102721E+02 -0.11821548901E+03  0.48541304583E+02  0.13687268012E+03  0.00000000000E+00 0. -1.
<scales pt_clust_3="110.76580" pt_clust_4="37.45188" pt_clust_5="14000.00000" pt_clust_6="149.43664"></scales>
<clustering>
<clus scale="   37.452">  2  4  1 -1</clus>
<clus scale="  110.766">  2  3  1 -1</clus>
<clus scale="  149.437">  1  6  2 -1</clus>
<clus scale="   37.452">  2  3  1 -1</clus>
</clustering>
</event>
<event>
 6    0  0.1622933E+002  0.1177577E+03  0.7546771E-02  0.1246843E+00
         21   -1    0    0  503  502  0.00000000000E+00  0.00000000000E+00  0.64038934298E+02  0.64038934298E+02  0.00000000000E+00 0. -1.
          2   -1    0    0  504    0 -0.00000000000E+00 -0.00000000000E+00 -0.49009669477E+03  0.49009669477E+03  0.00000000000E+00 0. -1.
         21    1    1    2  503  501  0.28109519098E+02  0.25940321297E+02 -0.17396651908E+03  0.17812185462E+03  0.00000000000E+00 0.  1.
         21    1    1    2  504  505 -0.45837997514E+02 -0.80544373658E+02 -0.10551271338E+03  0.14043308310E+03  0.00000000000E+00 0. -1.
         21    1    1    2  505  502 -0.44426062028E+02 -0.13599656952E+01  0.20340510167E+02  0.48880065956E+02  0.00000000000E+00 0. -1.
          2    1    1    2  501    0  0.62154540444E+02  0.55964018057E+02 -0.16691903818E+03  0.18670062539E+03  0.00000000000E+00 0. -1.
<scales pt_clust_3="30.51852" pt_clust_4="108.76728" pt_clust_5="44.44687" pt_clust_6="30.51852"></scales>
<clustering>
<clus scale="   30.519">  3  6 -1 -1</clus>
<clus scale="   44.447">  1  5  2 -1</clus>
<clus scale="  108.767">  1  4  2 -1</clus>
<clus scale="   44.447">  1  3  2 -1</clus>
</clustering>
</event>
<event>
 6    0  0.1622933E+002  0.7478126E+02  0.7546771E-02  0.1344550E+00
         21   -1    0    0  504  502  0.00000000000E+00  0.00000000000E+00  0.39878544969E+03  0.39878544969E+03  0.00000000000E+00 0. -1.
          1   -1    0    0  505    0 -0.00000000000E+00 -0.00000000000E+00 -0.49558249884E+03  0.49558249884E+03  0.00000000000E+00 0. -1.
         21    1    1    2  503  502 -0.13755898363E+02  0.54881766109E+02  0.35922250737E+03  0.36365099036E+03  0.00000000000E+00 0. -1.
         21    1    1    2  504  501 -0.31959344778E+02  0.25710496623E+01  0.10095875991E+02  0.33614531487E+02  0.00000000000E+00 0. -1.
         21    1    1    2  505  503 -0.19743404429E+02  0.45956492094E+02 -0.15018988672E+03  0.15829972602E+03  0.00000000000E+00 0.  1.
          1    1    1    2  501    0  0.65458647570E+02 -0.10340930787E+03 -0.31592554578E+03  0.33880270066E+03  0.00000000000E+00 0. -1.
<scales pt_clust_3="74.78126" pt_clust_4="32.06260" pt_clust_5="50.18006" pt_clust_6="14000.00000"></scales>
<clustering>
<clus scale="   32.063">  1  4  2 -1</clus>
<clus scale="   50.180">  2  5  1 -1</clus>
<clus scale="   74.781">  1  3  2 -1</clus>
<clus scale="   32.063">  1  3  2 -1</clus>
</clustering>
</event>
<event>
 6    0  0.1622933E+002  0.7416172E+02  0.7546771E-02  0.1346487E+00
          2   -1    0    0  504    0 -0.00000000000E+00  0.00000000000E+00  0.15991445975E+04  0.15991445975E+04  0.00000000000E+00 0. -1.
         21   -1    0    0  503  502  0.00000000000E+00 -0.00000000000E+00 -0.40689246547E+02  0.40689246547E+02  0.00000000000E+00 0. -1.
         21    1    1    2  503  505  0.30625671656E+02 -0.56951656046E+01 -0.20864368050E+02  0.37492512983E+02  0.00000000000E+00 0. -1.
         21    1    1    2  504  502 -0.57003495633E+02  0.10783014809E+03  0.64292190516E+03  0.65438926908E+03  0.00000000000E+00 0. -1.
         21    1    1    2  505  501 -0.11206709852E+02 -0.50718811669E+02  0.14548928558E+03  0.15448339853E+03  0.00000000000E+00 0. -1.
          2    1    1    2  501    0  0.37584533829E+02 -0.51416170816E+02  0.79090852822E+03  0.79346866341E+03  0.00000000000E+00 0. -1.
<scales pt_clust_3="31.15071" pt_clust_4="74.16172" pt_clust_5="52.94923" pt_clust_6="14000.00000"></scales>
<clustering>
<clus scale="   31.151">  2  3  1 -1</clus>
<clus scale="   52.949">  2  5  1 -1</clus>
<clus scale="   74.162">  2  4  1 -1</clus>
<clus scale="   31.151">  2  3  1 -1</clus>
</clustering>
</event>
<event>
 6    0  0.1622933E+002  0.1060604E+03  0.7546771E-02  0.1268044E+00
         21   -1    0    0  504  502  0.00000000000E+00  0.00000000000E+00  0.45369610885E+02  0.45369610885E+02  0.00000000000E+00 0. -1.
         -2   -1    0    0    0  501 -0.00000000000E+00 -0.00000000000E+00 -0.10836862847E+04  0.10836862847E+04  0.00000000000E+00 0. -1.
         21    1    1    2  503  505  0.95356646572E+02  0.15065435653E+02 -0.50643706734E+03  0.51555636023E+03  0.00000000000E+00 0. -1.
         21    1    1    2  504  503  0.67143257808E+01  0.32493514088E+02  0.18998611632E+02  0.38234249992E+02  0.00000000000E+00 0. -1.
         21    1    1    2  505  501 -0.29358598735E+01  0.31314895457E+02 -0.19479945070E+03  0.19732224391E+03  0.00000000000E+00 0. -1.
         -2    1    1    2    0  502 -0.99135112479E+02 -0.78873845198E+02 -0.35607876744E+03  0.37794304148E+03  0.00000000000E+00 0. -1.
<scales pt_clust_3="106.06038" pt_clust_4="33.50598" pt_clust_5="31.45222" pt_clust_6="14000.00000"></scales>
<clustering>
<clus scale="   31.452">  2  5  1 -1</clus>
<clus scale="   33.506">  1  4  2 -1</clus>
<clus scale="  106.060">  2  3  1 -1</clus>
<clus scale="   33.506">  1  3  2 -1</clus>
</clustering>
</event>
<event>
 6    0  0.1622933E+002  0.9646472E+02  0.7546771E-02  0.1287911E+00
          2   -1    0    0  504    0 -0.00000000000E+00  0.00000000000E+00  0.33717973976E+04  0.33717973976E+04  0.00000000000E+00 0.  1.
         21   -1    0    0  505  502  0.00000000000E+00 -0.00000000000E+00 -0.24136222486E+03  0.24136222486E+03  0.00000000000E+00 0.  1.
         21    1    1    2  503  502  0.75238543646E+02 -0.61332009046E+01  0.12315803671E+03  0.14445191799E+03  0.00000000000E+00 0.  1.
         21    1    1    2  504  503  0.40539341719E+02 -0.44242479975E+02  0.59440376906E+03  0.59742503792E+03  0.00000000000E+00 0.  1.
         21    1    1    2  505  501 -0.45281200601E+02  0.85609594736E+02 -0.21835787041E+03  0.23887140768E+03  0.00000000000E+00 0.  1.
          2    1    1    2  501    0 -0.70496684765E+02 -0.35233913856E+02  0.26312312374E+04  0.26324112589E+04  0.00000000000E+00 0.  1.
<scales pt_clust_3="77.63394" pt_clust_4="60.00696" pt_clust_5="96.46472" pt_clust_6="14000.00000"></scales>
<clustering>
<clus scale="   60.007">  1  4  2 -1</clus>
<clus scale="   77.634">  1  3  2 -1</clus>
<clus scale="   96.465">  2  5  1 -1</clus>
<clus scale="   96.465">  2  3  1 -1</clus>
</clustering>
</event>
<event>
 6    0  0.1622933E+002  0.9786258E+02  0.7546771E-02  0.1284856E+00
         21   -1    0    0  503  502  0.00000000000E+00  0.00000000000E+00  0.19435451722E+03  0.19435451722E+03  0.00000000000E+00 0. -1.
         -1   -1    0    0    0  501 -0.00000000000E+00 -0.00000000000E+00 -0.47904660342E+03  0.47904660342E+03  0.00000000000E+00 0. -1.
         21    1    1    2  503  505  0.58958798093E+02 -0.15342463156E+02 -0.25271650485E+03  0.25995607874E+03  0.00000000000E+00 0. -1.
         21    1    1    2  504  502 -0.54005627249E+02  0.73250200031E+02  0.15351908272E+03  0.17846654683E+03  0.00000000000E+00 0. -1.
         21    1    1    2  505  501  0.37268808202E+02  0.17730304471E+02 -0.11846598830E+03  0.12544926523E+03  0.00000000000E+00 0. -1.
         -1    1    1    2    0  504 -0.42221979046E+02 -0.75638041346E+02 -0.67028675765E+02  0.10952922983E+03  0.00000000000E+00 0. -1.
<scales pt_clust_3="31.82822" pt_clust_4="89.89829" pt_clust_5="31.82822" pt_clust_6="86.62453"></scales>
<clustering>
<clus scale="   31.828">  3  5 -1 -1</clus>
<clus scale="   86.625">  2  6  1 -1</clus>
<clus scale="   89.898">  1  4  2 -1</clus>
<clus scale="   89.898">  1  3  2 -1</clus>
</clustering>
</event>
<event>
 6    0  0.1622933E+002  0.7022850E+02  0.7546771E-02  0.1359318E+00
          2   -1    0    0  503    0 -0.00000000000E+00  0.00000000000E+00  0.12974128187E+04  0.12974128187E+04  0.00000000000E+00 0. -1.
         21   -1    0    0  501  502  0.00000000000E+00 -0.00000000000E+00 -0.20405022898E+03  0.20405022898E+03  0.00000000000E+00 0. -1.
         21    1    1    2  503  505  0.25489367278E+02  0.23073061041E+02  0.61068758902E+02  0.70081861447E+02  0.00000000000E+00 0. -1.
         21    1    1    2  504  502 -0.14566172495E+02  0.68516448663E+02 -0.18675875917E+03  0.19946305735E+03  0.00000000000E+00 0. -1.
         21    1    1    2  505  504 -0.74360845189E+02 -0.16877455001E+02  0.65374856605E+03  0.65818050062E+03  0.00000000000E+00 0. -1.
          2    1    1    2  501    0  0.63437650406E+02 -0.74712054703E+02  0.56530402391E+03  0.57373762824E+03  0.00000000000E+00 0. -1.
<scales pt_clust_3="34.38130" pt_clust_4="70.22850" pt_clust_5="60.96064" pt_clust_6="14000.00000"></scales>
<clustering>
<clus scale="   34.381">  1  3  2 -1</clus>
<clus scale="   60.961">  1  5  2 -1</clus>
<clus scale="   70.228">  2  4  1 -1</clus>
<clus scale="   70.228">  2  3  1 -1</clus>
</clustering>
</event>
<event>
 6    0  0.1622933E+002  0.9803699E+02  0.7546771E-02  0.1284479E+00
          1   -1    0    0  503    0 -0.00000000000E+00  0.00000000000E+00  0.31465467485E+04  0.31465467485E+04  0.00000000000E+00 0. -1.
         21   -1    0    0  505  502  0.00000000000E+00 -0.00000000000E+00 -0.10650758071E+04  0.10650758071E+04  0.00000000000E+00 0. -1.
         21    1    1    2  503  504  0.46332582863E+02  0.40229611608E+02  0.20686328869E+03  0.21577198635E+03  0.00000000000E+00 0. -1.
         21    1    1    2  504  502 -0.26020028291E+02  0.94591548952E+02 -0.10558360551E+04  0.10603840711E+04  0.00000000000E+00 0. -1.
         21    1    1    2  505  501  0.38826153186E+02 -0.61514857848E+02  0.94810749653E+03  0.95089398615E+03  0.00000000000E+00 0.  1.
          1    1    1    2  501    0 -0.59138707758E+02 -0.73306302712E+02  0.19823362113E+04  0.19845725120E+04  0.00000000000E+00 0. -1.
<scales pt_clust_3="61.36065" pt_clust_4="98.03699" pt_clust_5="14000.00000" pt_clust_6="53.86739"></scales>
<clustering>
<clus scale="   61.361">  1  3  2 -1</clus>
<clus scale="   53.867">  1  6  2 -1</clus>
<clus scale="   98.037">  2  4  1 -1</clus>
<clus scale="   98.037">  2  3  1 -1</clus>
</clustering>
</event>
<event>
 6    0  0.1622933E+002  0.1027127E+03  0.7546771E-02  0.1274693E+00
          1   -1    0    0  503    0 -0.00000000000E+00  0.00000000000E+00  0.19954747857E+04  0.19954747857E+04  0.00000000000E+00 0. -1.
         21   -1    0    0  505  502  0.00000000000E+00 -0.00000000000E+00 -0.67399357455E+02  0.67399357455E+02  0.00000000000E+00 0.  1.
         21    1    1    2  503  504 -0.24689187382E+02 -0.19734078456E+02  0.59976950654E+03  0.60060174059E+03  0.00000000000E+00 0. -1.
         21    1    1    2  504  502 -0.29145396246E+02 -0.57850093598E+02  0.22923892709E+03  0.23821539234E+03  0.00000000000E+00 0. -1.
         21    1    1    2  505  501 -0.43997459073E+02 -0.38806786112E+02 -0.42478422663E+02  0.72430376537E+02  0.00000000000E+00 0.  1.
          1    1    1    2  501    0  0.97832042701E+02  0.11639095817E+03  0.11415454173E+04  0.11516266337E+04  0.00000000000E+00 0. -1.
<scales pt_clust_3="31.60680" pt_clust_4="102.71270" pt_clust_5="59.00522" pt_clust_6="14000.00000"></scales>
<clustering>
<clus scale="   31.607">  1  3  2 -1</clus>
<clus scale="   59.005">  2  5  1 -1</clus>
<clus scale="  102.713">  2  4  1 -1</clus>
<clus scale="   59.005">  2  3  1 -1</clus>
</clustering>
</event>
<event>
 6    0  0.1622933E+002  0.1021868E+03  0.7546771E-02  0.1275764E+00
         21   -1    0    0  503  502  0.00000000000E+00  0.00000000000E+00  0.15273378632E+03  0.15273378632E+03  0.00000000000E+00 0. -1.
          2   -1    0    0  504    0 -0.00000000000E+00 -0.00000000000E+00 -0.12542083078E+04  0.12542083078E+04  0.00000000000E+00 0. -1.
         21    1    1    2  503  501 -0.71014511025E+02 -0.79144502611E+02  0.11880603107E+03  0.15944210889E+03  0.00000000000E+00 0. -1.
         21    1    1    2  504  505  0.47830519819E+02 -0.18742542638E+02 -0.71663011700E+02  0.88173855403E+02  0.00000000000E+00 0.  1.
         21    1    1    2  505  502 -0.19663248330E+02  0.55308658174E+02 -0.94790907494E+03  0.94972485771E+03  0.00000000000E+00 0. -1.
          2    1    1    2  501    0  0.42847239536E+02  0.42578387075E+02 -0.20070846593E+03  0.20960127213E+03  0.00000000000E+00 0. -1.
<scales pt_clust_3="102.18676" pt_clust_4="51.37160" pt_clust_5="44.42504" pt_clust_6="14000.00000"></scales>
<clustering>
<clus scale="   51.372">  2  4  1 -1</clus>
<clus scale="   44.425">  2  5  1 -1</clus>
<clus scale="  102.187">  1  3  2 -1</clus>
<clus scale="  102.187">  1  3  2 -1</clus>
</clustering>
</event>
<event>
 6    0  0.1622933E+002  0.1533621E+03  0.7546771E-02  0.1196401E+00
          3   -1    0    0  505    0 -0.00000000000E+00  0.00000000000E+00  0.37653278013E+03  0.37653278013E+03  0.00000000000E+00 0. -1.
         21   -1    0    0  503  502  0.00000000000E+00 -0.00000000000E+00 -0.15451104714E+03  0.15451104714E+03  0.00000000000E+00 0.  1.
         21    1    1    2  503  501  0.24768447279E+02  0.35902672272E+02  0.12384915742E+02  0.45341636437E+02  0.00000000000E+00 0. -1.
         21    1    1    2  504  502  0.19703566019E+02 -0.15247567171E+03 -0.63735894798E+02  0.16643114270E+03  0.00000000000E+00 0.  1.
         21    1    1    2  505  504 -0.29897796746E+02  0.31371437336E+02  0.20367062893E+03  0.20823009009E+03  0.00000000000E+00 0. -1.
          3    1    1    2  501    0 -0.14574216551E+02  0.85201562099E+02  0.69702083118E+02  0.11104095804E+03  0.00000000000E+00 0. -1.
<scales pt_clust_3="38.56302" pt_clust_4="143.43240" pt_clust_5="43.33642" pt_clust_6="38.56302"></scales>
<clustering>
<clus scale="   38.563">  3  6 -1 -1</clus>
<clus scale="   43.336">  1  5  2 -1</clus>
<clus scale="  143.432">  2  4  1 -1</clus>
<clus scale="  143.432">  2  3  1 -1</clus>
</clustering>
</event>
<event>
 6    0  0.1622933E+002  0.1865717E+03  0.7546771E-02  0.1161590E+00
          2   -1    0    0  505    0 -0.00000000000E+00  0.00000000000E+00  0.31333214661E+03  0.31333214661E+03  0.00000000000E+00 0.  1.
         21   -1    0    0  503  502  0.00000000000E+00 -0.00000000000E+00 -0.55296958940E+03  0.55296958940E+03  0.00000000000E+00 0. -1.
         21    1    1    2  503  501  0.25797811119E+02  0.38932350881E+02  0.23027288476E+02  0.52072171245E+02  0.00000000000E+00 0. -1.
         21    1    1    2  504  502  0.73274448113E+02 -0.15983564319E+03 -0.47826820075E+03  0.50956554969E+03  0.00000000000E+00 0. -1.
         21    1    1    2  505  504 -0.55488014139E+02  0.33875613573E+01  0.15651895322E+03  0.16609809753E+03  0.00000000000E+00 0.  1.
          2    1    1    2  501    0 -0.43584245093E+02  0.11751573096E+03  0.59084516265E+02  0.13856591754E+03  0.00000000000E+00 0.  1.
<scales pt_clust_3="42.32781" pt_clust_4="173.20742" pt_clust_5="55.59132" pt_clust_6="42.32781"></scales>
<clustering>
<clus scale="   42.328">  3  6 -1 -1</clus>
<clus scale="   55.591">  1  5  2 -1</clus>
<clus scale="  173.207">  2  4  1 -1</clus>
<clus scale="  173.207">  2  3  1 -1</clus>
</clustering>
</event>
<event>
 6    0  0.1622933E+002  0.1733009E+03  0.7546771E-02  0.1174449E+00
          3   -1    0    0  505    0 -0.00000000000E+00  0.00000000000E+00  0.19425390742E+04  0.19425390742E+04  0.00000000000E+00 0.  1.
         21   -1    0    0  504  502  0.00000000000E+00 -0.00000000000E+00 -0.11171230005E+03  0.11171230005E+03  0.00000000000E+00 0. -1.
         21    1    1    2  503  501 -0.12300318630E+03 -0.17486723224E+03  0.28895146521E+03  0.35944579842E+03  0.00000000000E+00 0. -1.
         21    1    1    2  504  503 -0.51214308156E+02  0.11506578663E+03 -0.11656517213E+02  0.12648681752E+03  0.00000000000E+00 0. -1.
         21    1    1    2  505  502  0.53361361384E+02  0.66176202474E+01  0.16538846720E+03  0.17390966870E+03  0.00000000000E+00 0. -1.
          3    1    1    2  501    0  0.12085613307E+03  0.53183825368E+02  0.13881433590E+04  0.13944090896E+04  0.00000000000E+00 0.  1.
<scales pt_clust_3="173.30086" pt_clust_4="125.45272" pt_clust_5="53.77014" pt_clust_6="14000.00000"></scales>
<clustering>
<clus scale="   53.770">  1  5  2 -1</clus>
<clus scale="  125.453">  2  4  1 -1</clus>
<clus scale="  173.301">  2  3  1 -1</clus>
<clus scale="  125.453">  2  3  1 -1</clus>
</clustering>
</event>
<event>
 6    0  0.1622933E+002  0.3023915E+03  0.7546771E-02  0.1084051E+00
          1   -1    0    0  505    0 -0.00000000000E+00  0.00000000000E+00  0.14744176542E+04  0.14744176542E+04  0.00000000000E+00 0.  1.
         21   -1    0    0  504  502  0.00000000000E+00 -0.00000000000E+00 -0.18520538687E+03  0.18520538687E+03  0.00000000000E+00 0.  1.
         21    1    1    2  503  502  0.42042473345E+02  0.38712958417E+02  0.23497823631E+02  0.61793287902E+02  0.00000000000E+00 0.  1.
         21    1    1    2  504  501  0.13775050412E+03 -0.27204111993E+03  0.10367734540E+03  0.32207229664E+03  0.00000000000E+00 0.  1.
         21    1    1    2  505  503 -0.17494804008E+02 -0.30393003340E+02  0.79401855615E+03  0.79479259579E+03  0.00000000000E+00 0.  1.
          1    1    1    2  501    0 -0.16229817345E+03  0.26372116485E+03  0.36801854215E+03  0.48096486074E+03  0.00000000000E+00 0.  1.
<scales pt_clust_3="55.05696" pt_clust_4="14000.00000" pt_clust_5="35.06854" pt_clust_6="302.39154"></scales>
<clustering>
<clus scale="   35.069">  1  5  2 -1</clus>
<clus scale="   55.057">  2  3  1 -1</clus>
<clus scale="  302.392">  1  6  2 -1</clus>
<clus scale="   55.057">  2  3  1 -1</clus>
</clustering>
</event>
<event>
 6    0  0.1622933E+002  0.2565552E+03  0.7546771E-02  0.1109231E+00
          1   -1    0    0  503    0 -0.00000000000E+00  0.00000000000E+00  0.13478593607E+04  0.13478593607E+04  0.00000000000E+00 0.  1.
         21   -1    0    0  504  502  0.00000000000E+00 -0.00000000000E+00 -0.36716724037E+03  0.36716724037E+03  0.00000000000E+00 0.  1.
         21    1    1    2  503  505  0.32928320578E+02 -0.63601831029E+01  0.72080445946E+02  0.79500420835E+02  0.00000000000E+00 0.  1.
         21    1    1    2  504  501 -0.29592468941E+03 -0.54736458817E+02  0.13152055672E+03  0.32842831572E+03  0.00000000000E+00 0.  1.
         21    1    1    2  505  502  0.66111115416E+02 -0.57638499722E+02 -0.24460335187E+03  0.25985318158E+03  0.00000000000E+00 0.  1.
          1    1    1    2  501    0  0.19688525342E+03  0.11873514164E+03  0.10216944695E+04  0.10472446829E+04  0.00000000000E+00 0.  1.
<scales pt_clust_3="33.53694" pt_clust_4="256.55517" pt_clust_5="87.88293" pt_clust_6="14000.00000"></scales>
<clustering>
<clus scale="   33.537">  1  3  2 -1</clus>
<clus scale="   87.883">  2  5  1 -1</clus>
<clus scale="  256.555">  2  4  1 -1</clus>
<clus scale="   87.883">  2  3  1 -1</clus>
</clustering>
</event>
<event>
 6    0  0.3239610E+002  0.9005974E+02  0.7546771E-02  0.1302707E+00
         21   -1    0    0  503  502  0.00000000000E+00  0.00000000000E+00  0.18238214128E+04  0.18238214128E+04  0.00000000000E+00 0.  1.
          2   -1    0    0  504    0 -0.00000000000E+00 -0.00000000000E+00 -0.39103662707E+03  0.39103662707E+03  0.00000000000E+00 0.  1.
         21    1    1    2  503  505 -0.34121677977E+02  0.45104220253E+02  0.16802836049E+04  0.16812351628E+04  0.00000000000E+00 0.  1.
         21    1    1    2  504  502 -0.51308132507E+02  0.66365498198E+02  0.93209574354E+02  0.12539907720E+03  0.00000000000E+00 0. -1.
         21    1    1    2  505  501  0.49428502671E+02 -0.28407184834E+02 -0.13797955161E+01  0.57026738134E+02  0.00000000000E+00 0.  1.
          2    1    1    2  501    0  0.36001307813E+02 -0.83062533616E+02 -0.33932859810E+03  0.35119706169E+03  0.00000000000E+00 0.  1.
<scales pt_clust_3="56.55687" pt_clust_4="90.05974" pt_clust_5="47.08206" pt_clust_6="14000.00000"></scales>
<clustering>
<clus scale="   56.557">  1  3  2 -1</clus>
<clus scale="   47.082">  1  5  2 -1</clus>
<clus scale="   90.060">  1  4  2 -1</clus>
<clus scale="   56.557">  1  3  2 -1</clus>
</clustering>
</event>
<event>
 6    0  0.1622933E+002  0.2431011E+03  0.7546771E-02  0.1117744E+00
         -1   -1    0    0    0  501 -0.00000000000E+00  0.00000000000E+00  0.37534591655E+03  0.37534591655E+03  0.00000000000E+00 0. -1.
         21   -1    0    0  503  502  0.00000000000E+00 -0.00000000000E+00 -0.44808671530E+03  0.44808671530E+03  0.00000000000E+00 0. -1.
         21    1    1    2  503  501  0.27013831153E+03 -0.25880736292E+02 -0.32006216516E+03  0.41962400960E+03  0.00000000000E+00 0. -1.
         21    1    1    2  504  502 -0.40152452602E+02 -0.48445202015E+01 -0.20132907693E+02  0.45177680309E+02  0.00000000000E+00 0. -1.
         21    1    1    2  505  504 -0.58321798827E+02  0.10981267781E+02  0.34700348098E+02  0.68746888065E+02  0.00000000000E+00 0. -1.
         -1    1    1    2    0  505 -0.17166406010E+03  0.19743988712E+02  0.23275392601E+03  0.28988405388E+03  0.00000000000E+00 0. -1.
<scales pt_clust_3="236.32880" pt_clust_4="40.44365" pt_clust_5="33.39343" pt_clust_6="33.39343"></scales>
<clustering>
<clus scale="   33.393">  5  6 -1 -1</clus>
<clus scale="   40.444">  2  4  1 -1</clus>
<clus scale="  236.329">  2  3  1 -1</clus>
<clus scale="   40.444">  2  3  1 -1</clus>
</clustering>
</event>
<event>
 6    0  0.1622933E+002  0.2205277E+03  0.7546771E-02  0.1133490E+00
         21   -1    0    0  504  502  0.00000000000E+00  0.00000000000E+00  0.28517100467E+03  0.28517100467E+03  0.00000000000E+00 0. -1.
          2   -1    0    0  503    0 -0.00000000000E+00 -0.00000000000E+00 -0.20604732572E+04  0.20604732572E+04  0.00000000000E+00 0. -1.
         21    1    1    2  503  505 -0.49722982408E+01  0.33260244689E+02 -0.14743627784E+03  0.15122309231E+03  0.00000000000E+00 0. -1.
         21    1    1    2  504  501  0.17819438274E+01  0.22038859492E+03  0.22830772637E+03  0.31733062571E+03  0.00000000000E+00 0. -1.
         21    1    1    2  505  502  0.26161874343E+02 -0.28144380154E+02 -0.11559439061E+03  0.12181384546E+03  0.00000000000E+00 0. -1.
          2    1    1    2  501    0 -0.22971519929E+02 -0.22550445946E+03 -0.17405793104E+04  0.17552766983E+04  0.00000000000E+00 0. -1.
<scales pt_clust_3="33.62986" pt_clust_4="14000.00000" pt_clust_5="36.72151" pt_clust_6="220.52772"></scales>
<clustering>
<clus scale="   33.630">  2  3  1 -1</clus>
<clus scale="   36.722">  2  5  1 -1</clus>
<clus scale="  220.528">  2  6  1 -1</clus>
<clus scale="  220.528">  1  3  2 -1</clus>
</clustering>
</event>
<event>
 6    0  0.2436936E+002  0.8678709E+02  0.7546771E-02  0.1310824E+00
          1   -1    0    0  503    0 -0.00000000000E+00  0.00000000000E+00  0.56088301077E+03  0.56088301077E+03  0.00000000000E+00 0.  1.
         21   -1    0    0  505  502  0.00000000000E+00 -0.00000000000E+00 -0.75733035504E+03  0.75733035504E+03  0.00000000000E+00 0.  1.
         21    1    1    2  503  504 -0.34087352720E+02 -0.93280680906E+01 -0.37345456009E+01  0.35537407061E+02  0.00000000000E+00 0. -1.
         21    1    1    2  504  502 -0.20990427484E+01 -0.36738716413E+02  0.23038290531E+02  0.43415459167E+02  0.00000000000E+00 0.  1.
         21    1    1    2  505  501 -0.85845859728E+02  0.11671331917E+02 -0.71700517378E+03  0.72222029246E+03  0.00000000000E+00 0.  1.
          1    1    1    2  501    0  0.12203225520E+03  0.34395452586E+02  0.50125408458E+03  0.51704020712E+03  0.00000000000E+00 0.  1.
<scales pt_clust_3="35.34063" pt_clust_4="37.54058" pt_clust_5="14000.00000" pt_clust_6="86.78709"></scales>
<clustering>
<clus scale="   35.341">  1  3  2 -1</clus>
<clus scale="   37.541">  1  4  2 -1</clus>
<clus scale="   86.787">  1  6  2 -1</clus>
<clus scale="   86.787">  2  3  1 -1</clus>
</clustering>
</event>
<event>
 6    0  0.1622933E+002  0.1655823E+03  0.7546771E-02  0.1182535E+00
         21   -1    0    0  504  502  0.00000000000E+00  0.00000000000E+00  0.16360098031E+03  0.16360098031E+03  0.00000000000E+00 0. -1.
          2   -1    0    0  503    0 -0.00000000000E+00 -0.00000000000E+00 -0.82906134306E+03  0.82906134306E+03  0.00000000000E+00 0. -1.
         21    1    1    2  503  505 -0.11655788573E+03  0.10590802594E+03 -0.45782201108E+03  0.48415208820E+03  0.00000000000E+00 0. -1.
         21    1    1    2  504  501 -0.94417114939E+02  0.30654242195E+02 -0.38347887625E+01  0.99342738853E+02  0.00000000000E+00 0. -1.
         21    1    1    2  505  502  0.86114624925E+02 -0.19116687620E+03 -0.16688791687E+03  0.26797776024E+03  0.00000000000E+00 0. -1.
          2    1    1    2  501    0  0.12486037574E+03  0.54604608062E+02 -0.36915646040E+02  0.14118973608E+03  0.00000000000E+00 0. -1.
<scales pt_clust_3="165.58226" pt_clust_4="99.26870" pt_clust_5="14000.00000" pt_clust_6="107.06589"></scales>
<clustering>
<clus scale="   99.269">  1  4  2 -1</clus>
<clus scale="  107.066">  1  6  2 -1</clus>
<clus scale="  165.582">  2  3  1 -1</clus>
<clus scale="   99.269">  1  3  2 -1</clus>
</clustering>
</event>
<event>
 6    0  0.1622933E+002  0.1379175E+03  0.7546771E-02  0.1216159E+00
          1   -1    0    0  504    0 -0.00000000000E+00  0.00000000000E+00  0.25038544721E+03  0.25038544721E+03  0.00000000000E+00 0.  1.
         21   -1    0    0  501  502  0.00000000000E+00 -0.00000000000E+00 -0.94049320352E+03  0.94049320352E+03  0.00000000000E+00 0. -1.
         21    1    1    2  503  502  0.37633561845E+02  0.28456296999E+02 -0.81936050242E+03  0.82071778264E+03  0.00000000000E+00 0. -1.
         21    1    1    2  504  505 -0.31403477713E+01  0.34054643846E+02  0.45582538205E+02  0.56985509920E+02  0.00000000000E+00 0.  1.
         21    1    1    2  505  503  0.10971317463E+03  0.10316014849E+02 -0.31689525164E+02  0.11466310154E+03  0.00000000000E+00 0. -1.
          1    1    1    2  501    0 -0.14420638871E+03 -0.72826955694E+02  0.11535973306E+03  0.19851225663E+03  0.00000000000E+00 0.  1.
<scales pt_clust_3="47.24256" pt_clust_4="34.19913" pt_clust_5="137.91753" pt_clust_6="14000.00000"></scales>
<clustering>
<clus scale="   34.199">  1  4  2 -1</clus>
<clus scale="   47.243">  2  3  1 -1</clus>
<clus scale="  137.918">  2  5  1 -1</clus>
<clus scale="   47.243">  2  3  1 -1</clus>
</clustering>
</event>
<event>
 6    0  0.1622933E+002  0.1727425E+03  0.7546771E-02  0.1175018E+00
          4   -1    0    0  502    0 -0.00000000000E+00  0.00000000000E+00  0.30053209755E+03  0.30053209755E+03  0.00000000000E+00 0. -1.
         21   -1    0    0  505  502  0.00000000000E+00 -0.00000000000E+00 -0.31118762058E+03  0.31118762058E+03  0.00000000000E+00 0.  1.
         21    1    1    2  503  501 -0.11098693269E+03 -0.19267315473E+02  0.95512353277E+02  0.14768865326E+03  0.00000000000E+00 0. -1.
         21    1    1    2  504  503 -0.14359001910E+03  0.42593393855E+02 -0.21100853020E+02  0.15125322074E+03  0.00000000000E+00 0. -1.
         21    1    1    2  505  504  0.18384718713E+03 -0.52293873945E+02 -0.12315673343E+03  0.22738077856E+03  0.00000000000E+00 0.  1.
          4    1    1    2  501    0  0.70729764656E+02  0.28967795563E+02  0.38089710143E+02  0.85397065564E+02  0.00000000000E+00 0. -1.
<scales pt_clust_3="75.10447" pt_clust_4="14000.00000" pt_clust_5="172.74248" pt_clust_6="76.43188"></scales>
<clustering>
<clus scale="   76.432">  1  6  2 -1</clus>
<clus scale="   75.104">  1  3  2 -1</clus>
<clus scale="  172.742">  2  5  1 -1</clus>
<clus scale="  172.742">  2  3  1 -1</clus>
</clustering>
</event>
<event>
 6    0  0.1622933E+002  0.1411745E+03  0.7546771E-02  0.1211757E+00
          1   -1    0    0  504    0 -0.00000000000E+00  0.00000000000E+00  0.11195961183E+04  0.11195961183E+04  0.00000000000E+00 0. -1.
         21   -1    0    0  503  502  0.00000000000E+00 -0.00000000000E+00 -0.98350558936E+02  0.98350558936E+02  0.00000000000E+00 0.  1.
         21    1    1    2  503  501 -0.60296195808E+02  0.10338696846E+03 -0.39908095327E+02  0.12616319807E+03  0.00000000000E+00 0.  1.
         21    1    1    2  504  505  0.75543923340E+02 -0.78976197445E+02  0.36552124814E+03  0.38151003520E+03  0.00000000000E+00 0. -1.
         21    1    1    2  505  502 -0.27759763434E+02  0.27258088769E+02  0.54614522656E+02  0.67054857797E+02  0.00000000000E+00 0. -1.
          1    1    1    2  501    0  0.12512035902E+02 -0.51668859782E+02  0.64101788386E+03  0.64321858613E+03  0.00000000000E+00 0. -1.
<scales pt_clust_3="141.17450" pt_clust_4="14000.00000" pt_clust_5="38.90511" pt_clust_6="52.76836"></scales>
<clustering>
<clus scale="   38.905">  2  5  1 -1</clus>
<clus scale="   52.768">  1  6  2 -1</clus>
<clus scale="  141.175">  2  3  1 -1</clus>
<clus scale="   38.905">  2  3  1 -1</clus>
</clustering>
</event>
<event>
 6    0  0.1622933E+002  0.2444344E+03  0.7546771E-02  0.1116874E+00
         -1   -1    0    0    0  501 -0.00000000000E+00  0.00000000000E+00  0.16314577915E+03  0.16314577915E+03  0.00000000000E+00 0. -1.
         21   -1    0    0  503  502  0.00000000000E+00 -0.00000000000E+00 -0.17797524073E+04  0.17797524073E+04  0.00000000000E+00 0. -1.
         21    1    1    2  503  501 -0.19154540857E+02 -0.54105057683E+02 -0.13908269741E+02  0.59056698769E+02  0.00000000000E+00 0. -1.
         21    1    1    2  504  502  0.49361028208E+02 -0.55075086225E+02 -0.11283425863E+04  0.11307637987E+04  0.00000000000E+00 0. -1.
         21    1    1    2  505  504  0.20590480400E+01 -0.19321402916E+03 -0.39353191621E+03  0.43840993353E+03  0.00000000000E+00 0. -1.
         -1    1    1    2    0  505 -0.32265535391E+02  0.30239417307E+03 -0.80823855902E+02  0.31466775552E+03  0.00000000000E+00 0. -1.
<scales pt_clust_3="57.39559" pt_clust_4="74.19609" pt_clust_5="244.43437" pt_clust_6="14000.00000"></scales>
<clustering>
<clus scale="   57.396">  1  3  2 -1</clus>
<clus scale="   74.196">  2  4  1 -1</clus>
<clus scale="  244.434">  2  5  1 -1</clus>
<clus scale="   74.196">  2  3  1 -1</clus>
</clustering>
</event>
<event>
 6    0  0.1622933E+002  0.8608366E+02  0.7546771E-02  0.1312623E+00
         21   -1    0    0  504  502  0.00000000000E+00  0.00000000000E+00  0.53446644467E+03  0.53446644467E+03  0.00000000000E+00 0.  1.
          2   -1    0    0  505    0 -0.00000000000E+00 -0.00000000000E+00 -0.97196831260E+03  0.97196831260E+03  0.00000000000E+00 0. -1.
         21    1    1    2  503  502  0.30017623846E+02 -0.10107688539E+02  0.50629431404E+03  0.50728409746E+03  0.00000000000E+00 0.  1.
         21    1    1    2  504  501  0.36088841447E+02  0.65132854712E+02 -0.46412180732E+02  0.87742713431E+02  0.00000000000E+00 0.  1.
         21    1    1    2  505  503  0.91467430243E+01  0.38147696780E+02 -0.19921920477E+03  0.20304482566E+03  0.00000000000E+00 0. -1.
          2    1    1    2  501    0 -0.75253208317E+02 -0.93172862953E+02 -0.69816479647E+03  0.70836312071E+03  0.00000000000E+00 0. -1.
<scales pt_clust_3="31.67370" pt_clust_4="86.08366" pt_clust_5="39.09419" pt_clust_6="14000.00000"></scales>
<clustering>
<clus scale="   31.674">  1  3  2 -1</clus>
<clus scale="   39.094">  2  5  1 -1</clus>
<clus scale="   86.084">  1  4  2 -1</clus>
<clus scale="   31.674">  1  3  2 -1</clus>
</clustering>
</event>
<event>
 6    0  0.1622933E+002  0.2676055E+03  0.7546771E-02  0.1102658E+00
         21   -1    0    0  504  502  0.00000000000E+00  0.00000000000E+00  0.44224442615E+02  0.44224442615E+02  0.00000000000E+00 0.  1.
          1   -1    0    0  505    0 -0.00000000000E+00 -0.00000000000E+00 -0.23376154007E+04  0.23376154007E+04  0.00000000000E+00 0. -1.
         21    1    1    2  503  501  0.49063491286E+02 -0.20696726142E+02 -0.33780974848E+03  0.34198100359E+03  0.00000000000E+00 0.  1.
         21    1    1    2  504  503 -0.97631759672E+02  0.24131537757E+03 -0.54960073006E+03  0.60813323740E+03  0.00000000000E+00 0.  1.
         21    1    1    2  505  502  0.13341150355E+02 -0.39995256748E+02 -0.72780779551E+03  0.72902797893E+03  0.00000000000E+00 0. -1.
          1    1    1    2  501    0  0.35227118031E+02 -0.18062339468E+03 -0.67817268409E+03  0.70269762345E+03  0.00000000000E+00 0. -1.
<scales pt_clust_3="58.20372" pt_clust_4="245.18212" pt_clust_5="42.16168" pt_clust_6="58.20372"></scales>
<clustering>
<clus scale="   42.162">  2  5  1 -1</clus>
<clus scale="   58.204">  3  6 -1 -1</clus>
<clus scale="  245.182">  1  4  2 -1</clus>
<clus scale="  245.182">  1  3  2 -1</clus>
</clustering>
</event>
<event>
 6    0  0.1622933E+002  0.9903329E+02  0.7546771E-02  0.1282342E+00
         21   -1    0    0  503  502  0.00000000000E+00  0.00000000000E+00  0.12115587874E+03  0.12115587874E+03  0.00000000000E+00 0.  1.
         -1   -1    0    0    0  501 -0.00000000000E+00 -0.00000000000E+00 -0.52071588439E+03  0.52071588439E+03  0.00000000000E+00 0.  1.
         21    1    1    2  503  505  0.73659156485E+02 -0.73187900371E+02  0.51339752386E+02  0.11583570378E+03  0.00000000000E+00 0.  1.
         21    1    1    2  504  501 -0.41078334670E+02  0.40011464674E+02 -0.74033615993E+02  0.93644664459E+02  0.00000000000E+00 0. -1.
         21    1    1    2  505  504  0.65641772246E+02  0.60480881429E+02 -0.85087188384E+02  0.12331507981E+03  0.00000000000E+00 0.  1.
         -1    1    1    2    0  502 -0.98222594061E+02 -0.27304445732E+02 -0.29177895367E+03  0.30907631508E+03  0.00000000000E+00 0.  1.
<scales pt_clust_3="14000.00000" pt_clust_4="57.34411" pt_clust_5="89.56528" pt_clust_6="99.03329"></scales>
<clustering>
<clus scale="   57.344">  2  4  1 -1</clus>
<clus scale="   89.565">  2  5  1 -1</clus>
<clus scale="   99.033">  2  6  1 -1</clus>
<clus scale="   99.033">  1  3  2 -1</clus>
</clustering>
</event>
<event>
 6    0  0.1622933E+002  0.7301117E+02  0.7546771E-02  0.1350143E+00
         21   -1    0    0  501  502  0.00000000000E+00  0.00000000000E+00  0.17810340177E+02  0.17810340177E+02  0.00000000000E+00 0. -1.
          1   -1    0    0  504    0 -0.00000000000E+00 -0.00000000000E+00 -0.27995605056E+04  0.27995605056E+04  0.00000000000E+00 0. -1.
         21    1    1    2  503  505  0.55534086796E+02  0.47633638104E+02 -0.50123065496E+03  0.50654236521E+03  0.00000000000E+00 0. -1.
         21    1    1    2  504  503  0.21946471512E+02  0.27596289852E+02 -0.10357608140E+04  0.10363607802E+04  0.00000000000E+00 0. -1.
         21    1    1    2  505  502 -0.45657731412E+02  0.15009048506E+02 -0.31550611477E+02  0.57492095624E+02  0.00000000000E+00 0. -1.
          1    1    1    2  501    0 -0.31822826897E+02 -0.90238976462E+02 -0.12132080850E+04  0.12169756048E+04  0.00000000000E+00 0. -1.
<scales pt_clust_3="73.01117" pt_clust_4="35.25908" pt_clust_5="47.75994" pt_clust_6="14000.00000"></scales>
<clustering>
<clus scale="   35.259">  2  4  1 -1</clus>
<clus scale="   47.760">  1  5  2 -1</clus>
<clus scale="   73.011">  1  3  2 -1</clus>
<clus scale="   47.760">  1  3  2 -1</clus>
</clustering>
</event>
<event>
 6    0  0.1622933E+002  0.8079529E+02  0.7546771E-02  0.1326810E+00
         21   -1    0    0  501  502  0.00000000000E+00  0.00000000000E+00  0.82421200540E+02  0.82421200540E+02  0.00000000000E+00 0.  1.
          2   -1    0    0  504    0 -0.00000000000E+00 -0.00000000000E+00 -0.13515253414E+04  0.13515253414E+04  0.00000000000E+00 0. -1.
         21    1    1    2  503  505  0.31477811478E+01 -0.84655970457E+02 -0.32121874425E+03  0.33220178133E+03  0.00000000000E+00 0. -1.
         21    1    1    2  504  503  0.13379314752E+02  0.27381833319E+02 -0.93225209983E+02  0.98080123549E+02  0.00000000000E+00 0. -1.
         21    1    1    2  505  502  0.73493457527E+02  0.34066415481E+02  0.49371982215E+02  0.94865175859E+02  0.00000000000E+00 0.  1.
          2    1    1    2  501    0 -0.90020553427E+02  0.23207721658E+02 -0.90403216888E+03  0.90879946124E+03  0.00000000000E+00 0. -1.
<scales pt_clust_3="77.81551" pt_clust_4="30.47574" pt_clust_5="14000.00000" pt_clust_6="80.79529"></scales>
<clustering>
<clus scale="   30.476">  2  4  1 -1</clus>
<clus scale="   77.816">  2  3  1 -1</clus>
<clus scale="   80.795">  2  6  1 -1</clus>
<clus scale="   80.795">  1  3  2 -1</clus>
</clustering>
</event>
<event>
 6    0  0.1622933E+002  0.1384375E+03  0.7546771E-02  0.1215447E+00
          2   -1    0    0  505    0 -0.00000000000E+00  0.00000000000E+00  0.59159684734E+03  0.59159684734E+03  0.00000000000E+00 0.  1.
         21   -1    0    0  501  502  0.00000000000E+00 -0.00000000000E+00 -0.16888370085E+03  0.16888370085E+03  0.00000000000E+00 0.  1.
         21    1    1    2  503  502  0.50924526772E+02 -0.16028260446E+02 -0.34949720671E+02  0.63809838856E+02  0.00000000000E+00 0. -1.
         21    1    1    2  504  503 -0.85869834696E+01 -0.10610577769E+03  0.38379940237E+02  0.11316002897E+03  0.00000000000E+00 0.  1.
         21    1    1    2  505  504 -0.56663647842E+02 -0.55276864975E+02  0.39620132500E+03  0.40403191795E+03  0.00000000000E+00 0.  1.
          2    1    1    2  501    0  0.14326104540E+02  0.17741090311E+03  0.23081601911E+02  0.17947876242E+03  0.00000000000E+00 0.  1.
<scales pt_clust_3="53.38738" pt_clust_4="138.43746" pt_clust_5="78.34754" pt_clust_6="14000.00000"></scales>
<clustering>
<clus scale="   53.387">  2  3  1 -1</clus>
<clus scale="   78.348">  1  5  2 -1</clus>
<clus scale="  138.437">  2  4  1 -1</clus>
<clus scale="   53.387">  2  3  1 -1</clus>
</clustering>
</event>
<event>
 6    0  0.1622933E+002  0.9516795E+02  0.7546771E-02  0.1290798E+00
          2   -1    0    0  505    0 -0.00000000000E+00  0.00000000000E+00  0.30830623912E+04  0.30830623912E+04  0.00000000000E+00 0.  1.
         21   -1    0    0  503  502  0.00000000000E+00 -0.00000000000E+00 -0.63643315892E+02  0.63643315892E+02  0.00000000000E+00 0.  1.
         21    1    1    2  503  501 -0.96137561106E+02  0.17125070805E+01  0.13395214030E+04  0.13429679640E+04  0.00000000000E+00 0.  1.
         21    1    1    2  504  502  0.29615373553E+02  0.60084430154E+02 -0.39101845023E+02  0.77563930934E+02  0.00000000000E+00 0.  1.
         21    1    1    2  505  504  0.82456604552E+02 -0.32763830160E+02  0.58496674165E+03  0.59165754372E+03  0.00000000000E+00 0.  1.
          2    1    1    2  501    0 -0.15934416999E+02 -0.29033107074E+02  0.11340327757E+04  0.11345162684E+04  0.00000000000E+00 0.  1.
<scales pt_clust_3="14000.00000" pt_clust_4="66.66013" pt_clust_5="95.16795" pt_clust_6="33.11838"></scales>
<clustering>
<clus scale="   33.118">  1  6  2 -1</clus>
<clus scale="   66.660">  2  4  1 -1</clus>
<clus scale="   95.168">  2  5  1 -1</clus>
<clus scale="   66.660">  2  3  1 -1</clus>
</clustering>
</event>
<event>
 6    0  0.1622933E+002  0.1127883E+03  0.7546771E-02  0.1255492E+00
         21   -1    0    0  505  502  0.00000000000E+00  0.00000000000E+00  0.25138694275E+03  0.25138694275E+03  0.00000000000E+00 0. -1.
         -2   -1    0    0    0  501 -0.00000000000E+00 -0.00000000000E+00 -0.11194440374E+03  0.11194440374E+03  0.00000000000E+00 0. -1.
         21    1    1    2  503  501  0.13011883129E+02 -0.58261224309E+02 -0.34858565342E+02  0.69128857492E+02  0.00000000000E+00 0. -1.
         21    1    1    2  504  502 -0.41343216965E+02  0.85286456604E+02  0.24962501074E+02  0.98011059218E+02  0.00000000000E+00 0. -1.
         21    1    1    2  505  503  0.45177704883E+02 -0.68486189425E+02  0.88699764530E+02  0.12082645152E+03  0.00000000000E+00 0. -1.
         -2    1    1    2    0  504 -0.16846371047E+02  0.41460957129E+02  0.60638838749E+02  0.75364978261E+02  0.00000000000E+00 0. -1.
<scales pt_clust_3="59.69656" pt_clust_4="39.35855" pt_clust_5="97.16213" pt_clust_6="39.35855"></scales>
<clustering>
<clus scale="   39.359">  4  6 -1 -1</clus>
<clus scale="   59.697">  2  3  1 -1</clus>
<clus scale="   97.162">  1  5  2 -1</clus>
<clus scale="   97.162">  1  3  2 -1</clus>
</clustering>
</event>
<event>
 6    0  0.1622933E+002  0.8992203E+02  0.7546771E-02  0.1303041E+00
          1   -1    0    0  503    0 -0.00000000000E+00  0.00000000000E+00  0.27309419846E+04  0.27309419846E+04  0.00000000000E+00 0. -1.
         21   -1    0    0  505  502  0.00000000000E+00 -0.00000000000E+00 -0.26107755278E+02  0.26107755278E+02  0.00000000000E+00 0. -1.
         21    1    1    2  503  504 -0.56046202695E+02  0.14831065450E+02  0.96785260061E+03  0.96958743487E+03  0.00000000000E+00 0. -1.
         21    1    1    2  504  502 -0.54056878261E+02 -0.10385455740E+03  0.13881533539E+03  0.18159739128E+03  0.00000000000E+00 0. -1.
         21    1    1    2  505  501  0.33487109390E+02  0.20053479934E+02  0.19213477145E+03  0.19605942710E+03  0.00000000000E+00 0. -1.
          1    1    1    2  501    0  0.76615971566E+02  0.68970012017E+02  0.14060315218E+04  0.14098054866E+04  0.00000000000E+00 0. -1.
<scales pt_clust_3="57.00547" pt_clust_4="89.92203" pt_clust_5="39.03240" pt_clust_6="14000.00000"></scales>
<clustering>
<clus scale="   39.032">  2  5  1 -1</clus>
<clus scale="   57.005">  1  3  2 -1</clus>
<clus scale="   89.922">  2  4  1 -1</clus>
<clus scale="   39.032">  2  3  1 -1</clus>
</clustering>
</event>
<event>
 6    0  0.1622933E+002  0.1468359E+03  0.7546771E-02  0.1204416E+00
         21   -1    0    0  503  502  0.00000000000E+00  0.00000000000E+00  0.75855066813E+02  0.75855066813E+02  0.00000000000E+00 0. -1.
         -2   -1    0    0    0  501 -0.00000000000E+00 -0.00000000000E+00 -0.38133515445E+03  0.38133515445E+03  0.00000000000E+00 0. -1.
         21    1    1    2  503  501  0.14757713365E+03  0.46795209499E+01 -0.18551525690E+03  0.23710086216E+03  0.00000000000E+00 0. -1.
         21    1    1    2  504  505 -0.69980956565E+02 -0.16752098447E+01 -0.46352914537E+02  0.83956734667E+02  0.00000000000E+00 0. -1.
         21    1    1    2  505  502 -0.16011123204E+02 -0.39569446960E+02 -0.23578535645E+02  0.48765198063E+02  0.00000000000E+00 0. -1.
         -2    1    1    2    0  504 -0.61585053882E+02  0.36565135855E+02 -0.50033380556E+02  0.87367426376E+02  0.00000000000E+00 0. -1.
<scales pt_clust_3="141.51341" pt_clust_4="38.72971" pt_clust_5="42.68603" pt_clust_6="38.72971"></scales>
<clustering>
<clus scale="   38.730">  4  6 -1 -1</clus>
<clus scale="   42.686">  1  5  2 -1</clus>
<clus scale="  141.513">  2  3  1 -1</clus>
<clus scale="   42.686">  1  3  2 -1</clus>
</clustering>
</event>
<event>
 6    0  0.1622933E+002  0.1027328E+03  0.7546771E-02  0.1274652E+00
         21   -1    0    0  501  502  0.00000000000E+00  0.00000000000E+00  0.54622414532E+03  0.54622414532E+03  0.00000000000E+00 0.  1.
          2   -1    0    0  503    0 -0.00000000000E+00 -0.00000000000E+00 -0.19756858617E+04  0.19756858617E+04  0.00000000000E+00 0. -1.
         21    1    1    2  503  504 -0.31243124673E+02  0.59906041641E+01 -0.34708810579E+03  0.34854292900E+03  0.00000000000E+00 0. -1.
         21    1    1    2  504  505  0.45160162832E+02 -0.81974356248E+02 -0.17279829330E+03  0.19651586591E+03  0.00000000000E+00 0. -1.
         21    1    1    2  505  502  0.12827112186E+02  0.10265713894E+03  0.52837343299E+03  0.53840645211E+03  0.00000000000E+00 0.  1.
          2    1    1    2  501    0 -0.26744150345E+02 -0.26673386859E+02 -0.14379487503E+04  0.14384447600E+04  0.00000000000E+00 0. -1.
<scales pt_clust_3="31.81226" pt_clust_4="102.73275" pt_clust_5="14000.00000" pt_clust_6="58.40144"></scales>
<clustering>
<clus scale="   31.812">  2  3  1 -1</clus>
<clus scale="   58.401">  2  6  1 -1</clus>
<clus scale="  102.733">  2  4  1 -1</clus>
<clus scale="  102.733">  1  3  2 -1</clus>
</clustering>
</event>
<event>
 6    0  0.1622933E+002  0.1128300E+03  0.7546771E-02  0.1255417E+00
         21   -1    0    0  504  502  0.00000000000E+00  0.00000000000E+00  0.21200467378E+02  0.21200467378E+02  0.00000000000E+00 0.  1.
         -2   -1    0    0    0  501 -0.00000000000E+00 -0.00000000000E+00 -0.14920792654E+04  0.14920792654E+04  0.00000000000E+00 0.  1.
         21    1    1    2  503  501  0.35710800380E+02 -0.14477221181E+01 -0.29920081743E+03  0.30132787178E+03  0.00000000000E+00 0.  1.
         21    1    1    2  504  503 -0.52429896631E+01 -0.10612465094E+03 -0.33355652367E+03  0.35007125698E+03  0.00000000000E+00 0.  1.
         21    1    1    2  505  502 -0.77260152420E+02 -0.20996411182E+01 -0.24534727837E+03  0.25723302013E+03  0.00000000000E+00 0.  1.
         -2    1    1    2    0  505  0.46792341703E+02  0.10967201418E+03 -0.59277417853E+03  0.60464758386E+03  0.00000000000E+00 0.  1.
<scales pt_clust_3="35.74013" pt_clust_4="112.82996" pt_clust_5="69.77211" pt_clust_6="14000.00000"></scales>
<clustering>
<clus scale="   35.740">  2  3  1 -1</clus>
<clus scale="   69.772">  1  5  2 -1</clus>
<clus scale="  112.830">  1  4  2 -1</clus>
<clus scale="   69.772">  1  3  2 -1</clus>
</clustering>
</event>
<event>
 6    0  0.1622933E+002  0.2064498E+03  0.7546771E-02  0.1144409E+00
         -4   -1    0    0    0  501 -0.00000000000E+00  0.00000000000E+00  0.13111408718E+04  0.13111408718E+04  0.00000000000E+00 0. -1.
         21   -1    0    0  505  502  0.00000000000E+00 -0.00000000000E+00 -0.24706180239E+04  0.24706180239E+04  0.00000000000E+00 0.  1.
         21    1    1    2  503  504 -0.16679465405E+03 -0.71404767412E+02  0.47941178102E+02  0.18766313966E+03  0.00000000000E+00 0. -1.
         21    1    1    2  504  501  0.38543086676E+02  0.52848239001E+02  0.16021363762E+03  0.17305177137E+03  0.00000000000E+00 0. -1.
         21    1    1    2  505  503 -0.51326962166E+02  0.38792654735E+02 -0.23859488579E+04  0.23868161386E+04  0.00000000000E+00 0.  1.
         -4    1    1    2    0  502  0.17957852954E+03 -0.20236126325E+02  0.10183168901E+04  0.10342278461E+04  0.00000000000E+00 0. -1.
<scales pt_clust_3="206.44983" pt_clust_4="65.67716" pt_clust_5="64.33760" pt_clust_6="14000.00000"></scales>
<clustering>
<clus scale="   64.338">  2  5  1 -1</clus>
<clus scale="   65.677">  1  4  2 -1</clus>
<clus scale="  206.450">  2  3  1 -1</clus>
<clus scale="   64.338">  2  3  1 -1</clus>
</clustering>
</event>
<event>
 6    0  0.1622933E+002  0.1003031E+03  0.7546771E-02  0.1279660E+00
         -4   -1    0    0    0  501 -0.00000000000E+00  0.00000000000E+00  0.74259898653E+03  0.74259898653E+03  0.00000000000E+00 0.  1.
         21   -1    0    0  505  502  0.00000000000E+00 -0.00000000000E+00 -0.64766130985E+02  0.64766130985E+02  0.00000000000E+00 0.  1.
         21    1    1    2  503  502  0.45030753084E+02 -0.17558780883E+02 -0.38647315130E+02  0.61884525336E+02  0.00000000000E+00 0.  1.
         21    1    1    2  504  503 -0.53966655293E+02 -0.30203157245E+02  0.19522385729E+03  0.20478521686E+03  0.00000000000E+00 0.  1.
         21    1    1    2  505  501  0.68832929689E+02  0.47658851743E+02  0.31146814529E+03  0.32252402064E+03  0.00000000000E+00 0. -1.
         -4    1    1    2    0  504 -0.59897027479E+02  0.10308638557E+00  0.20978816810E+03  0.21817135468E+03  0.00000000000E+00 0.  1.
<scales pt_clust_3="48.33301" pt_clust_4="30.91143" pt_clust_5="95.25825" pt_clust_6="30.91143"></scales>
<clustering>
<clus scale="   30.911">  4  6 -1 -1</clus>
<clus scale="   48.333">  2  3  1 -1</clus>
<clus scale="   95.258">  1  5  2 -1</clus>
<clus scale="   48.333">  2  3  1 -1</clus>
</clustering>
</event>
<event>
 6    0  0.1622933E+002  0.5725827E+02  0.7546771E-02  0.1409711E+00
          4   -1    0    0  504    0 -0.00000000000E+00  0.00000000000E+00  0.11724568483E+03  0.11724568483E+03  0.00000000000E+00 0. -1.
         21   -1    0    0  501  502  0.00000000000E+00 -0.00000000000E+00 -0.23494901680E+03  0.23494901680E+03  0.00000000000E+00 0. -1.
         21    1    1    2  503  502 -0.45715833992E+02  0.21808458544E+02 -0.69442302313E+02  0.85952194225E+02  0.00000000000E+00 0. -1.
         21    1    1    2  504  505 -0.10386419731E+02 -0.35548548997E+02 -0.69752399925E+01  0.37685952603E+02  0.00000000000E+00 0.  1.
         21    1    1    2  505  503 -0.31189202427E+01  0.77129680898E+02  0.58116315466E+02  0.96624124639E+02  0.00000000000E+00 0. -1.
          4    1    1    2  501    0  0.59221173965E+02 -0.63389590445E+02 -0.99402105133E+02  0.13193243016E+03  0.00000000000E+00 0. -1.
<scales pt_clust_3="50.25801" pt_clust_4="37.03481" pt_clust_5="57.25827" pt_clust_6="14000.00000"></scales>
<clustering>
<clus scale="   37.035">  1  4  2 -1</clus>
<clus scale="   50.258">  2  3  1 -1</clus>
<clus scale="   57.258">  1  5  2 -1</clus>
<clus scale="   50.258">  2  3  1 -1</clus>
</clustering>
</event>
<event>
 6    0  0.1622933E+002  0.7801750E+02  0.7546771E-02  0.1334774E+00
          2   -1    0    0  503    0 -0.00000000000E+00  0.00000000000E+00  0.19532585849E+04  0.19532585849E+04  0.00000000000E+00 0.  1.
         21   -1    0    0  501  502  0.00000000000E+00 -0.00000000000E+00 -0.29008128118E+02  0.29008128118E+02  0.00000000000E+00 0.  1.
         21    1    1    2  503  504  0.32612594246E+02  0.23476913411E+02  0.21449836588E+03  0.21822991484E+03  0.00000000000E+00 0.  1.
         21    1    1    2  504  505  0.47334876369E+02 -0.17276406784E+02  0.10047940082E+04  0.10060566901E+04  0.00000000000E+00 0.  1.
         21    1    1    2  505  502  0.24542236241E+02 -0.44019011162E+02  0.65911040805E+01  0.50827525578E+02  0.00000000000E+00 0.  1.
          2    1    1    2  501    0 -0.10448970686E+03  0.37818504535E+02  0.69836697865E+03  0.70715258254E+03  0.00000000000E+00 0.  1.
<scales pt_clust_3="40.18391" pt_clust_4="14000.00000" pt_clust_5="50.32625" pt_clust_6="78.01750"></scales>
<clustering>
<clus scale="   40.184">  1  3  2 -1</clus>
<clus scale="   50.326">  2  5  1 -1</clus>
<clus scale="   78.017">  2  6  1 -1</clus>
<clus scale="   50.326">  2  3  1 -1</clus>
</clustering>
</event>
<event>
 6    0  0.1622933E+002  0.1257872E+03  0.7546771E-02  0.1233844E+00
         21   -1    0    0  504  502  0.00000000000E+00  0.00000000000E+00  0.30584045060E+03  0.30584045060E+03  0.00000000000E+00 0.  1.
          2   -1    0    0  502    0 -0.00000000000E+00 -0.00000000000E+00 -0.20089857111E+04  0.20089857111E+04  0.00000000000E+00 0.  1.
         21    1    1    2  503  505 -0.96738774480E+02  0.65243484025E+02 -0.28102935478E+03  0.30429032345E+03  0.00000000000E+00 0.  1.
         21    1    1    2  504  503 -0.24192699871E+02 -0.24321605757E+02  0.28228054767E+03  0.28435740685E+03  0.00000000000E+00 0.  1.
         21    1    1    2  505  501  0.10966098943E+03 -0.81811620041E+02 -0.43357277497E+03  0.45464714337E+03  0.00000000000E+00 0.  1.
          2    1    1    2  501    0  0.11270484917E+02  0.40889741773E+02 -0.12708236784E+04  0.12715312881E+04  0.00000000000E+00 0.  1.
<scales pt_clust_3="14000.00000" pt_clust_4="34.30492" pt_clust_5="125.78715" pt_clust_6="41.94606"></scales>
<clustering>
<clus scale="   34.305">  1  4  2 -1</clus>
<clus scale="   41.946">  2  6  1 -1</clus>
<clus scale="  125.787">  2  5  1 -1</clus>
<clus scale="   34.305">  1  3  2 -1</clus>
</clustering>
</event>
<event>
 6    0  0.1622933E+002  0.1040793E+03  0.7546771E-02  0.1271944E+00
         21   -1    0    0  504  502  0.00000000000E+00  0.00000000000E+00  0.25277832017E+03  0.25277832017E+03  0.00000000000E+00 0.  1.
         -4   -1    0    0    0  501 -0.00000000000E+00 -0.00000000000E+00 -0.53608220580E+03  0.53608220580E+03  0.00000000000E+00 0.  1.
         21    1    1    2  503  505 -0.78711330062E+02 -0.19189416463E+01 -0.95287713692E+01  0.79309225825E+02  0.00000000000E+00 0.  1.
         21    1    1    2  504  503 -0.29386045226E+02  0.36439231281E+02  0.20208586189E+03  0.20743686462E+03  0.00000000000E+00 0.  1.
         21    1    1    2  505  501 -0.10609715126E+02 -0.39540496588E+02 -0.10562906196E+03  0.11328510783E+03  0.00000000000E+00 0.  1.
         -4    1    1    2    0  502  0.11870709041E+03  0.50202069539E+01 -0.37023191419E+03  0.38882932770E+03  0.00000000000E+00 0.  1.
<scales pt_clust_3="14000.00000" pt_clust_4="46.66114" pt_clust_5="40.93919" pt_clust_6="104.07931"></scales>
<clustering>
<clus scale="   40.939">  2  5  1 -1</clus>
<clus scale="   46.661">  1  4  2 -1</clus>
<clus scale="  104.079">  2  6  1 -1</clus>
<clus scale="   46.661">  1  3  2 -1</clus>
</clustering>
</event>
<event>
 6    0  0.1622933E+002  0.1208290E+03  0.7546771E-02  0.1241736E+00
         21   -1    0    0  501  502  0.00000000000E+00  0.00000000000E+00  0.73857748746E+02  0.73857748746E+02  0.00000000000E+00 0. -1.
          1   -1    0    0  504    0 -0.00000000000E+00 -0.00000000000E+00 -0.11863094162E+04  0.11863094162E+04  0.00000000000E+00 0. -1.
         21    1    1    2  503  502  0.96210522162E+02  0.49860864884E+02 -0.31516614407E+02  0.11285330037E+03  0.00000000000E+00 0. -1.
         21    1    1    2  504  505  0.50113537003E+02 -0.12473007438E+02 -0.26628332345E+03  0.27124481720E+03  0.00000000000E+00 0. -1.
         21    1    1    2  505  503  0.80295228247E+02  0.28824787364E+02 -0.18937466936E+03  0.20770401402E+03  0.00000000000E+00 0. -1.
          1    1    1    2  501    0 -0.22661928741E+03 -0.66212644810E+02 -0.62527706025E+03  0.66836503338E+03  0.00000000000E+00 0. -1.
<scales pt_clust_3="120.82901" pt_clust_4="51.64245" pt_clust_5="94.80954" pt_clust_6="14000.00000"></scales>
<clustering>
<clus scale="   51.642">  2  4  1 -1</clus>
<clus scale="   94.810">  2  5  1 -1</clus>
<clus scale="  120.829">  1  3  2 -1</clus>
<clus scale="  120.829">  1  3  2 -1</clus>
</clustering>
</event>
<event>
 6    0  0.1622933E+002  0.1039482E+03  0.7546771E-02  0.1272206E+00
         21   -1    0    0  505  502  0.00000000000E+00  0.00000000000E+00  0.61912727126E+03  0.61912727126E+03  0.00000000000E+00 0. -1.
          3   -1    0    0  503    0 -0.00000000000E+00 -0.00000000000E+00 -0.11421520375E+03  0.11421520375E+03  0.00000000000E+00 0. -1.
         21    1    1    2  503  504 -0.59105143505E+02  0.10677627770E+02  0.27440376853E+01  0.60124532982E+02  0.00000000000E+00 0.  1.
         21    1    1    2  504  502 -0.18272854835E+02  0.89628391610E+02  0.52771121359E+03  0.53558031214E+03  0.00000000000E+00 0. -1.
         21    1    1    2  505  501  0.34936366510E+02 -0.39485413875E+02  0.12646151705E+02  0.54217827020E+02  0.00000000000E+00 0.  1.
          3    1    1    2  501    0  0.42441631830E+02 -0.60820605504E+02 -0.38189335464E+02  0.83419802862E+02  0.00000000000E+00 0. -1.
<scales pt_clust_3="60.06188" pt_clust_4="92.53220" pt_clust_5="39.93133" pt_clust_6="39.93133"></scales>
<clustering>
<clus scale="   39.931">  5  6 -1 -1</clus>
<clus scale="   60.062">  2  3  1 -1</clus>
<clus scale="   92.532">  1  4  2 -1</clus>
<clus scale="   92.532">  1  3  2 -1</clus>
</clustering>
</event>
<event>
 6    0  0.1622933E+002  0.1268629E+03  0.7546771E-02  0.1232186E+00
         21   -1    0    0  503  502  0.00000000000E+00  0.00000000000E+00  0.21038067761E+03  0.21038067761E+03  0.00000000000E+00 0. -1.
          1   -1    0    0  504    0 -0.00000000000E+00 -0.00000000000E+00 -0.53177710706E+03  0.53177710706E+03  0.00000000000E+00 0. -1.
         21    1    1    2  503  501 -0.45470464171E+02  0.10557020118E+02  0.14644177466E+03  0.15370168233E+03  0.00000000000E+00 0. -1.
         21    1    1    2  504  505 -0.73337425219E+02 -0.77739899605E+02 -0.78062576444E+02  0.13234665001E+03  0.00000000000E+00 0. -1.
         21    1    1    2  505  502 -0.21691006888E+02  0.38760768526E+02 -0.40403466949E+01  0.44600687864E+02  0.00000000000E+00 0.  1.
          1    1    1    2  501    0  0.14049889628E+03  0.28422110962E+02 -0.38573528097E+03  0.41150876446E+03  0.00000000000E+00 0. -1.
<scales pt_clust_3="74.91222" pt_clust_4="14000.00000" pt_clust_5="44.41730" pt_clust_6="126.86294"></scales>
<clustering>
<clus scale="   44.417">  1  5  2 -1</clus>
<clus scale="   74.912">  1  3  2 -1</clus>
<clus scale="  126.863">  2  6  1 -1</clus>
<clus scale="   44.417">  1  3  2 -1</clus>
</clustering>
</event>
<event>
 6    0  0.1622933E+002  0.6479105E+02  0.7546771E-02  0.1378759E+00
         21   -1    0    0  501  502  0.00000000000E+00  0.00000000000E+00  0.35837716574E+03  0.35837716574E+03  0.00000000000E+00 0.  1.
          3   -1    0    0  505    0 -0.00000000000E+00 -0.00000000000E+00 -0.83630960419E+03  0.83630960419E+03  0.00000000000E+00 0. -1.
         21    1    1    2  503  504  0.36129628426E+02  0.15712712601E+02 -0.35279141623E+02  0.52885321415E+02  0.00000000000E+00 0. -1.
         21    1    1    2  504  502  0.63200208630E+02  0.12251517218E+02  0.33687739640E+03  0.34297339001E+03  0.00000000000E+00 0.  1.
         21    1    1    2  505  503  0.29835245689E+02 -0.10625557473E+02 -0.30783885435E+03  0.30946373714E+03  0.00000000000E+00 0.  1.
          3    1    1    2  501    0 -0.12916508275E+03 -0.17338672346E+02 -0.47169183888E+03  0.48936432136E+03  0.00000000000E+00 0. -1.
<scales pt_clust_3="41.36970" pt_clust_4="64.79105" pt_clust_5="31.67088" pt_clust_6="14000.00000"></scales>
<clustering>
<clus scale="   31.671">  2  5  1 -1</clus>
<clus scale="   41.370">  2  3  1 -1</clus>
<clus scale="   64.791">  1  4  2 -1</clus>
<clus scale="   64.791">  1  3  2 -1</clus>
</clustering>
</event>
<event>
 6    0  0.1622933E+002  0.1330063E+03  0.7546771E-02  0.1223062E+00
          2   -1    0    0  503    0 -0.00000000000E+00  0.00000000000E+00  0.76427668752E+03  0.76427668752E+03  0.00000000000E+00 0.  1.
         21   -1    0    0  504  502  0.00000000000E+00 -0.00000000000E+00 -0.16510910489E+03  0.16510910489E+03  0.00000000000E+00 0. -1.
         21    1    1    2  503  505 -0.56549231203E+02 -0.63840234085E+02 -0.85348274980E+02  0.12065537319E+03  0.00000000000E+00 0. -1.
         21    1    1    2  504  501  0.36377847121E+02 -0.16800765224E+02 -0.65889884861E+01  0.40608228754E+02  0.00000000000E+00 0. -1.
         21    1    1    2  505  502 -0.70599155989E+02 -0.20810188531E+02  0.10871339478E+02  0.74400878994E+02  0.00000000000E+00 0. -1.
          2    1    1    2  501    0  0.90770540071E+02  0.10145118784E+03  0.68023350662E+03  0.69372131147E+03  0.00000000000E+00 0.  1.
<scales pt_clust_3="133.00634" pt_clust_4="40.07011" pt_clust_5="67.09830" pt_clust_6="14000.00000"></scales>
<clustering>
<clus scale="   40.070">  2  4  1 -1</clus>
<clus scale="   67.098">  2  5  1 -1</clus>
<clus scale="  133.006">  2  3  1 -1</clus>
<clus scale="   40.070">  2  3  1 -1</clus>
</clustering>
</event>
<event>
 6    0  0.1622933E+002  0.1427200E+03  0.7546771E-02  0.1209715E+00
          2   -1    0    0  505    0 -0.00000000000E+00  0.00000000000E+00  0.19719349504E+04  0.19719349504E+04  0.00000000000E+00 0. -1.
         21   -1    0    0  503  502  0.00000000000E+00 -0.00000000000E+00 -0.84404633522E+02  0.84404633522E+02  0.00000000000E+00 0. -1.
         21    1    1    2  503  501  0.38630469768E+02 -0.48515409698E+01  0.76507200457E+02  0.85844058421E+02  0.00000000000E+00 0.  1.
         21    1    1    2  504  502 -0.74212396028E+02 -0.37282904222E+02 -0.43027966760E+02  0.93535557918E+02  0.00000000000E+00 0. -1.
         21    1    1    2  505  504 -0.20438266686E+02 -0.11922439293E+03  0.71068225220E+03  0.72090321278E+03  0.00000000000E+00 0. -1.
          2    1    1    2  501    0  0.56020192945E+02  0.16135883812E+03  0.11433688310E+04  0.11560567548E+04  0.00000000000E+00 0. -1.
<scales pt_clust_3="38.93393" pt_clust_4="58.38540" pt_clust_5="142.72002" pt_clust_6="14000.00000"></scales>
<clustering>
<clus scale="   38.934">  2  3  1 -1</clus>
<clus scale="   58.385">  2  4  1 -1</clus>
<clus scale="  142.720">  1  5  2 -1</clus>
<clus scale="   38.934">  2  3  1 -1</clus>
</clustering>
</event>
<event>
 6    0  0.1622933E+002  0.1260778E+03  0.7546771E-02  0.1233394E+00
          2   -1    0    0  505    0 -0.00000000000E+00  0.00000000000E+00  0.14345650978E+04  0.14345650978E+04  0.00000000000E+00 0. -1.
         21   -1    0    0  503  502  0.00000000000E+00 -0.00000000000E+00 -0.97563075857E+02  0.97563075857E+02  0.00000000000E+00 0. -1.
         21    1    1    2  503  501 -0.12624538503E+03 -0.76775526907E+01 -0.42121004287E+02  0.13330799323E+03  0.00000000000E+00 0. -1.
         21    1    1    2  504  502  0.11424364631E+02  0.54015992620E+02  0.18190219080E+03  0.19009642443E+03  0.00000000000E+00 0. -1.
         21    1    1    2  505  504 -0.26111738853E+01 -0.35725478011E+02  0.12475912270E+03  0.12979971767E+03  0.00000000000E+00 0.  1.
          2    1    1    2  501    0  0.11743219428E+03 -0.10612961918E+02  0.10724617128E+04  0.10789240384E+04  0.00000000000E+00 0. -1.
<scales pt_clust_3="126.07784" pt_clust_4="50.16577" pt_clust_5="35.82078" pt_clust_6="14000.00000"></scales>
<clustering>
<clus scale="   35.821">  1  5  2 -1</clus>
<clus scale="   50.166">  1  4  2 -1</clus>
<clus scale="  126.078">  2  3  1 -1</clus>
<clus scale="  126.078">  2  3  1 -1</clus>
</clustering>
</event>
<event>
 6    0  0.1622933E+002  0.9391203E+02  0.7546771E-02  0.1293645E+00
         21   -1    0    0  504  502  0.00000000000E+00  0.00000000000E+00  0.15889516017E+04  0.15889516017E+04  0.00000000000E+00 0.  1.
          1   -1    0    0  503    0 -0.00000000000E+00 -0.00000000000E+00 -0.10010540434E+04  0.10010540434E+04  0.00000000000E+00 0. -1.
         21    1    1    2  503  505  0.46493821717E+02 -0.93867871842E+01 -0.16000213022E+03  0.16688459757E+03  0.00000000000E+00 0. -1.
         21    1    1    2  504  501 -0.12500771263E+03 -0.69244061550E+00 -0.21537285060E+03  0.24902383915E+03  0.00000000000E+00 0. -1.
         21    1    1    2  505  502  0.28201302013E+02  0.27681939295E+02  0.15672620782E+04  0.15677601937E+04  0.00000000000E+00 0.  1.
          1    1    1    2  501    0  0.50312588899E+02 -0.17602711496E+02 -0.60398953905E+03  0.60633701465E+03  0.00000000000E+00 0. -1.
<scales pt_clust_3="51.25915" pt_clust_4="93.91203" pt_clust_5="39.51713" pt_clust_6="14000.00000"></scales>
<clustering>
<clus scale="   39.517">  1  5  2 -1</clus>
<clus scale="   51.259">  2  3  1 -1</clus>
<clus scale="   93.912">  1  4  2 -1</clus>
<clus scale="   39.517">  1  3  2 -1</clus>
</clustering>
</event>
<event>
 6    0  0.1622933E+002  0.1180490E+03  0.7546771E-02  0.1246351E+00
         21   -1    0    0  501  502  0.00000000000E+00  0.00000000000E+00  0.36139509148E+02  0.36139509148E+02  0.00000000000E+00 0.  1.
          1   -1    0    0  503    0 -0.00000000000E+00 -0.00000000000E+00 -0.15451460406E+04  0.15451460406E+04  0.00000000000E+00 0. -1.
         21    1    1    2  503  505  0.31138366328E+02 -0.10527719373E+01 -0.58291387098E+03  0.58374590977E+03  0.00000000000E+00 0. -1.
         21    1    1    2  504  502 -0.38588139266E+02 -0.12591676520E+03 -0.19908258874E+03  0.23870055171E+03  0.00000000000E+00 0.  1.
         21    1    1    2  505  504 -0.76933127462E+02  0.10025447207E+03 -0.48350390499E+03  0.49974562670E+03  0.00000000000E+00 0. -1.
          1    1    1    2  501    0  0.84382900400E+02  0.26715065070E+02 -0.24350616671E+03  0.25909346153E+03  0.00000000000E+00 0. -1.
<scales pt_clust_3="31.15616" pt_clust_4="118.04898" pt_clust_5="14000.00000" pt_clust_6="96.22249"></scales>
<clustering>
<clus scale="   31.156">  2  3  1 -1</clus>
<clus scale="   96.222">  2  6  1 -1</clus>
<clus scale="  118.049">  1  4  2 -1</clus>
<clus scale="  118.049">  1  3  2 -1</clus>
</clustering>
</event>
<event>
 6    0  0.1622933E+002  0.1032517E+03  0.7546771E-02  0.1273603E+00
         21   -1    0    0  504  502  0.00000000000E+00  0.00000000000E+00  0.39962769863E+03  0.39962769863E+03  0.00000000000E+00 0. -1.
          2   -1    0    0  503    0 -0.00000000000E+00 -0.00000000000E+00 -0.99011724992E+03  0.99011724992E+03  0.00000000000E+00 0. -1.
         21    1    1    2  503  505 -0.20156341188E+02  0.22861055340E+02 -0.13078634407E+03  0.13429063160E+03  0.00000000000E+00 0. -1.
         21    1    1    2  504  501  0.55679738462E+02 -0.65359447878E+02  0.36141942873E+03  0.37147825531E+03  0.00000000000E+00 0. -1.
         21    1    1    2  505  502 -0.45939440658E+02 -0.38941892558E+02 -0.14907544008E+01  0.60242224002E+02  0.00000000000E+00 0.  1.
          2    1    1    2  501    0  0.10416043384E+02  0.81440285096E+02 -0.81963188155E+03  0.82373383763E+03  0.00000000000E+00 0. -1.
<scales pt_clust_3="30.47796" pt_clust_4="103.25166" pt_clust_5="60.25511" pt_clust_6="14000.00000"></scales>
<clustering>
<clus scale="   30.478">  2  3  1 -1</clus>
<clus scale="   60.255">  1  5  2 -1</clus>
<clus scale="  103.252">  1  4  2 -1</clus>
<clus scale="   60.255">  1  3  2 -1</clus>
</clustering>
</event>
<event>
 6    0  0.1622933E+002  0.3099230E+03  0.7546771E-02  0.1080383E+00
         21   -1    0    0  503  502  0.00000000000E+00  0.00000000000E+00  0.19617905271E+03  0.19617905271E+03  0.00000000000E+00 0.  1.
          2   -1    0    0  505    0 -0.00000000000E+00 -0.00000000000E+00 -0.26991974844E+04  0.26991974844E+04  0.00000000000E+00 0.  1.
         21    1    1    2  503  504  0.17370666222E+03 -0.28402536182E+03 -0.96526543782E+03  0.10210689380E+04  0.00000000000E+00 0.  1.
         21    1    1    2  504  501 -0.27829041332E+02  0.15880919823E+03 -0.83202795249E+03  0.84750535734E+03  0.00000000000E+00 0.  1.
         21    1    1    2  505  502 -0.39577541209E+02  0.55651927009E+02  0.14835916956E+03  0.16332165178E+03  0.00000000000E+00 0.  1.
          2    1    1    2  501    0 -0.10630007968E+03  0.69564236583E+02 -0.85408421097E+03  0.86348059005E+03  0.00000000000E+00 0.  1.
<scales pt_clust_3="285.82972" pt_clust_4="105.58348" pt_clust_5="68.28996" pt_clust_6="105.58348"></scales>
<clustering>
<clus scale="   68.290">  1  5  2 -1</clus>
<clus scale="  105.583">  4  6 -1 -1</clus>
<clus scale="  285.830">  1  3  2 -1</clus>
<clus scale="   68.290">  1  3  2 -1</clus>
</clustering>
</event>
<event>
 6    0  0.1622933E+002  0.9632470E+02  0.7546771E-02  0.1288220E+00
         21   -1    0    0  505  502  0.00000000000E+00  0.00000000000E+00  0.32421144359E+03  0.32421144359E+03  0.00000000000E+00 0.  1.
          2   -1    0    0  503    0 -0.00000000000E+00 -0.00000000000E+00 -0.33250946838E+04  0.33250946838E+04  0.00000000000E+00 0. -1.
         21    1    1    2  503  504  0.47767461288E+02 -0.30673640772E+02 -0.17846024993E+03  0.18727162999E+03  0.00000000000E+00 0. -1.
         21    1    1    2  504  502 -0.90068618991E+02 -0.12179412495E+02 -0.91440277760E+03  0.91890866461E+03  0.00000000000E+00 0. -1.
         21    1    1    2  505  501  0.72321078164E+02 -0.63641653623E+02  0.30883484710E+03  0.32351129997E+03  0.00000000000E+00 0.  1.
          2    1    1    2  501    0 -0.30019920461E+02  0.10649470689E+03 -0.22168550598E+04  0.22196145329E+04  0.00000000000E+00 0. -1.
<scales pt_clust_3="56.76797" pt_clust_4="79.01097" pt_clust_5="96.32470" pt_clust_6="14000.00000"></scales>
<clustering>
<clus scale="   56.768">  2  3  1 -1</clus>
<clus scale="   79.011">  2  4  1 -1</clus>
<clus scale="   96.325">  1  5  2 -1</clus>
<clus scale="   96.325">  1  3  2 -1</clus>
</clustering>
</event>
<event>
 6    0  0.1622933E+002  0.1493224E+03  0.7546771E-02  0.1201308E+00
         21   -1    0    0  503  502  0.00000000000E+00  0.00000000000E+00  0.43247808504E+02  0.43247808504E+02  0.00000000000E+00 0.  1.
          1   -1    0    0  504    0 -0.00000000000E+00 -0.00000000000E+00 -0.30991977865E+04  0.30991977865E+04  0.00000000000E+00 0.  1.
         21    1    1    2  503  501 -0.14853883011E+03  0.37125711852E+02 -0.11657268232E+03  0.19243516517E+03  0.00000000000E+00 0.  1.
         21    1    1    2  504  505  0.19679555126E+02  0.42266112758E+02 -0.34969364237E+03  0.35278797129E+03  0.00000000000E+00 0.  1.
         21    1    1    2  505  502  0.51457328847E+02  0.33030190137E+02 -0.76208900300E+03  0.76453809496E+03  0.00000000000E+00 0.  1.
          1    1    1    2  501    0  0.77401946138E+02 -0.11242201475E+03 -0.18275946503E+04  0.18326843636E+04  0.00000000000E+00 0.  1.
<scales pt_clust_3="149.32236" pt_clust_4="35.22054" pt_clust_5="111.16154" pt_clust_6="14000.00000"></scales>
<clustering>
<clus scale="   35.221">  4  5 -1 -1</clus>
<clus scale="  111.162">  2  4  1 -1</clus>
<clus scale="  149.322">  1  3  2 -1</clus>
<clus scale="  149.322">  1  3  2 -1</clus>
</clustering>
</event>
<event>
 6    0  0.1622933E+002  0.1191806E+03  0.7546771E-02  0.1244455E+00
          1   -1    0    0  504    0 -0.00000000000E+00  0.00000000000E+00  0.14949239339E+04  0.14949239339E+04  0.00000000000E+00 0.  1.
         21   -1    0    0  503  502  0.00000000000E+00 -0.00000000000E+00 -0.83734386870E+02  0.83734386870E+02  0.00000000000E+00 0. -1.
         21    1    1    2  503  501  0.62931886768E+02  0.10529081108E+03 -0.29170962652E+02  0.12608537715E+03  0.00000000000E+00 0. -1.
         21    1    1    2  504  505 -0.31315742497E+02  0.36651531722E+01  0.52890621922E+03  0.52984516400E+03  0.00000000000E+00 0. -1.
         21    1    1    2  505  502 -0.22372918653E+02 -0.41466522621E+02  0.12937946558E+03  0.13769192461E+03  0.00000000000E+00 0.  1.
          1    1    1    2  501    0 -0.92432256173E+01 -0.67489441632E+02  0.78207482485E+03  0.78503585498E+03  0.00000000000E+00 0.  1.
<scales pt_clust_3="119.18065" pt_clust_4="31.52950" pt_clust_5="48.89570" pt_clust_6="14000.00000"></scales>
<clustering>
<clus scale="   31.529">  1  4  2 -1</clus>
<clus scale="   48.896">  1  5  2 -1</clus>
<clus scale="  119.181">  2  3  1 -1</clus>
<clus scale="  119.181">  2  3  1 -1</clus>
</clustering>
</event>
<event>
 6    0  0.1622933E+002  0.9525518E+02  0.7546771E-02  0.1290602E+00
         21   -1    0    0  504  502  0.00000000000E+00  0.00000000000E+00  0.94981099228E+02  0.94981099228E+02  0.00000000000E+00 0.  1.
          1   -1    0    0  505    0 -0.00000000000E+00 -0.00000000000E+00 -0.31591271601E+04  0.31591271601E+04  0.00000000000E+00 0. -1.
         21    1    1    2  503  502  0.36307492801E+02 -0.41336021368E+02 -0.62509759969E+03  0.62751407142E+03  0.00000000000E+00 0. -1.
         21    1    1    2  504  501 -0.92599254661E+02 -0.23743148889E+02  0.66294424251E+02  0.11633275450E+03  0.00000000000E+00 0.  1.
         21    1    1    2  505  503 -0.85153653819E+01  0.51955213626E+02 -0.35313797915E+03  0.35704101723E+03  0.00000000000E+00 0.  1.
          1    1    1    2  501    0  0.64807127242E+02  0.13123956631E+02 -0.21522049062E+04  0.21532204161E+04  0.00000000000E+00 0. -1.
<scales pt_clust_3="45.47191" pt_clust_4="95.25518" pt_clust_5="52.64842" pt_clust_6="14000.00000"></scales>
<clustering>
<clus scale="   52.648">  2  5  1 -1</clus>
<clus scale="   45.472">  2  3  1 -1</clus>
<clus scale="   95.255">  1  4  2 -1</clus>
<clus scale="   95.255">  1  3  2 -1</clus>
</clustering>
</event>
<event>
 6    0  0.1622933E+002  0.1226711E+03  0.7546771E-02  0.1238754E+00
         21   -1    0    0  504  502  0.00000000000E+00  0.00000000000E+00  0.45426930597E+02  0.45426930597E+02  0.00000000000E+00 0. -1.
          2   -1    0    0  505    0 -0.00000000000E+00 -0.00000000000E+00 -0.15571627701E+04  0.15571627701E+04  0.00000000000E+00 0. -1.
         21    1    1    2  503  502  0.35490105657E+02 -0.65971452868E+02 -0.17408259329E+03  0.18951656782E+03  0.00000000000E+00 0.  1.
         21    1    1    2  504  501  0.29798767511E+02  0.12248981087E+02  0.25821791129E+02  0.41288848131E+02  0.00000000000E+00 0. -1.
         21    1    1    2  505  503  0.17811315498E+02 -0.26746689354E+02 -0.19899635158E+03  0.20157424511E+03  0.00000000000E+00 0. -1.
          2    1    1    2  501    0 -0.83100188665E+02  0.80469161135E+02 -0.11644786857E+04  0.11702100396E+04  0.00000000000E+00 0. -1.
<scales pt_clust_3="31.59045" pt_clust_4="32.21807" pt_clust_5="31.59045" pt_clust_6="112.79084"></scales>
<clustering>
<clus scale="   31.590">  3  5 -1 -1</clus>
<clus scale="   32.218">  1  4  2 -1</clus>
<clus scale="  112.791">  2  6  1 -1</clus>
<clus scale="   32.218">  1  3  2 -1</clus>
</clustering>
</event>
<event>
 6    0  0.1622933E+002  0.8739219E+02  0.7546771E-02  0.1309293E+00
          2   -1    0    0  503    0 -0.00000000000E+00  0.00000000000E+00  0.23954589837E+04  0.23954589837E+04  0.00000000000E+00 0. -1.
         21   -1    0    0  505  502  0.00000000000E+00 -0.00000000000E+00 -0.32091289322E+02  0.32091289322E+02  0.00000000000E+00 0. -1.
         21    1    1    2  503  504  0.53728155748E+02  0.19356857926E+02  0.31796174149E+03  0.32304964281E+03  0.00000000000E+00 0. -1.
         21    1    1    2  504  502 -0.20137106153E+02 -0.78852436030E+02  0.69656261641E+03  0.70130071174E+03  0.00000000000E+00 0. -1.
         21    1    1    2  505  501 -0.51540741678E+02 -0.25246060778E+02  0.61555678496E+01  0.57720903086E+02  0.00000000000E+00 0. -1.
          2    1    1    2  501    0  0.17949692082E+02  0.84741638882E+02  0.13426877686E+04  0.13454790154E+04  0.00000000000E+00 0. -1.
<scales pt_clust_3="57.10869" pt_clust_4="87.39219" pt_clust_5="56.51807" pt_clust_6="14000.00000"></scales>
<clustering>
<clus scale="   57.109">  1  3  2 -1</clus>
<clus scale="   56.518">  2  5  1 -1</clus>
<clus scale="   87.392">  2  4  1 -1</clus>
<clus scale="   56.518">  2  3  1 -1</clus>
</clustering>
</event>
<event>
 6    0  0.1622933E+002  0.7520940E+02  0.7546771E-02  0.1343224E+00
         21   -1    0    0  503  502  0.00000000000E+00  0.00000000000E+00  0.16925436377E+03  0.16925436377E+03  0.00000000000E+00 0. -1.
          2   -1    0    0  505    0 -0.00000000000E+00 -0.00000000000E+00 -0.36617190797E+04  0.36617190797E+04  0.00000000000E+00 0.  1.
         21    1    1    2  503  504  0.59820595050E+01 -0.72102126174E+02 -0.11464816835E+03  0.13556807935E+03  0.00000000000E+00 0.  1.
         21    1    1    2  504  501  0.34822399910E+02  0.10448831849E+03 -0.20523103801E+04  0.20552635609E+04  0.00000000000E+00 0.  1.
         21    1    1    2  505  502 -0.18775789173E+02  0.24055205579E+02  0.15521266406E+03  0.15818392541E+03  0.00000000000E+00 0. -1.
          2    1    1    2  501    0 -0.22028670242E+02 -0.56441397898E+02 -0.14807188315E+04  0.14819578779E+04  0.00000000000E+00 0.  1.
<scales pt_clust_3="52.95118" pt_clust_4="14000.00000" pt_clust_5="30.51529" pt_clust_6="75.20940"></scales>
<clustering>
<clus scale="   30.515">  1  5  2 -1</clus>
<clus scale="   52.951">  1  3  2 -1</clus>
<clus scale="   75.209">  2  6  1 -1</clus>
<clus scale="   30.515">  1  3  2 -1</clus>
</clustering>
</event>
<event>
 6    0  0.1622933E+002  0.1266500E+03  0.7546771E-02  0.1232513E+00
         21   -1    0    0  503  502  0.00000000000E+00  0.00000000000E+00  0.10401078151E+03  0.10401078151E+03  0.00000000000E+00 0. -1.
          2   -1    0    0  504    0 -0.00000000000E+00 -0.00000000000E+00 -0.73889181544E+03  0.73889181544E+03  0.00000000000E+00 0. -1.
         21    1    1    2  503  501  0.55350937579E+02  0.35254090415E+02 -0.19595834271E+03  0.20665490379E+03  0.00000000000E+00 0. -1.
         21    1    1    2  504  505 -0.45952770396E+02 -0.61345917089E+02 -0.93350969348E+02  0.12078651468E+03  0.00000000000E+00 0. -1.
         21    1    1    2  505  502 -0.58677386379E+02 -0.44118832303E+02  0.63761347368E+02  0.97236908910E+02  0.00000000000E+00 0. -1.
          2    1    1    2  501    0  0.49279219196E+02  0.70210658977E+02 -0.40933306924E+03  0.41822426956E+03  0.00000000000E+00 0. -1.
<scales pt_clust_3="39.36984" pt_clust_4="118.38163" pt_clust_5="73.41326" pt_clust_6="39.36984"></scales>
<clustering>
<clus scale="   39.370">  3  6 -1 -1</clus>
<clus scale="   73.413">  1  5  2 -1</clus>
<clus scale="  118.382">  1  4  2 -1</clus>
<clus scale="   73.413">  1  3  2 -1</clus>
</clustering>
</event>
<event>
 6    0  0.1622933E+002  0.1306670E+03  0.7546771E-02  0.1226469E+00
         21   -1    0    0  503  502  0.00000000000E+00  0.00000000000E+00  0.21465604770E+02  0.21465604770E+02  0.00000000000E+00 0. -1.
         -1   -1    0    0    0  501 -0.00000000000E+00 -0.00000000000E+00 -0.19636809416E+04  0.19636809416E+04  0.00000000000E+00 0.  1.
         21    1    1    2  503  505  0.10415600940E+03  0.94172502966E+02 -0.48917577425E+03  0.50893012558E+03  0.00000000000E+00 0. -1.
         21    1    1    2  504  502 -0.75031603800E+01 -0.53667791343E+02 -0.18874634265E+03  0.19637136020E+03  0.00000000000E+00 0. -1.
         21    1    1    2  505  501  0.28582099285E+02  0.15744469164E+02 -0.63094044599E+03  0.63178372177E+03  0.00000000000E+00 0. -1.
         -1    1    1    2    0  504 -0.12523494830E+03 -0.56249180787E+02 -0.63335277389E+03  0.64806133877E+03  0.00000000000E+00 0.  1.
<scales pt_clust_3="14000.00000" pt_clust_4="51.50278" pt_clust_5="32.63165" pt_clust_6="130.66703"></scales>
<clustering>
<clus scale="   32.632">  2  5  1 -1</clus>
<clus scale="   51.503">  1  4  2 -1</clus>
<clus scale="  130.667">  2  6  1 -1</clus>
<clus scale="   51.503">  1  3  2 -1</clus>
</clustering>
</event>
<event>
 6    0  0.1622933E+002  0.1103660E+03  0.7546771E-02  0.1259894E+00
         21   -1    0    0  503  502  0.00000000000E+00  0.00000000000E+00  0.34514230369E+02  0.34514230369E+02  0.00000000000E+00 0.  1.
          2   -1    0    0  505    0 -0.00000000000E+00 -0.00000000000E+00 -0.13121241336E+04  0.13121241336E+04  0.00000000000E+00 0. -1.
         21    1    1    2  503  504  0.26929033390E+02  0.22869202006E+02 -0.32401699656E+01  0.35477766857E+02  0.00000000000E+00 0.  1.
         21    1    1    2  504  501  0.23206788997E+02  0.95985011233E+02 -0.16225470073E+03  0.18994279493E+03  0.00000000000E+00 0.  1.
         21    1    1    2  505  502 -0.33380063233E+02 -0.36907969781E+02 -0.24023926418E+03  0.24533921600E+03  0.00000000000E+00 0. -1.
          2    1    1    2  501    0 -0.16755759154E+02 -0.81946243459E+02 -0.87187576841E+03  0.87587858623E+03  0.00000000000E+00 0. -1.
<scales pt_clust_3="35.32950" pt_clust_4="110.36604" pt_clust_5="44.91320" pt_clust_6="14000.00000"></scales>
<clustering>
<clus scale="   35.329">  1  3  2 -1</clus>
<clus scale="   44.913">  2  5  1 -1</clus>
<clus scale="  110.366">  1  4  2 -1</clus>
<clus scale="   35.329">  1  3  2 -1</clus>
</clustering>
</event>
<event>
 6    0  0.1622933E+002  0.1706690E+03  0.7546771E-02  0.1177152E+00
         21   -1    0    0  503  502  0.00000000000E+00  0.00000000000E+00  0.32691749751E+03  0.32691749751E+03  0.00000000000E+00 0. -1.
          2   -1    0    0  505    0 -0.00000000000E+00 -0.00000000000E+00 -0.13022292908E+04  0.13022292908E+04  0.00000000000E+00 0.  1.
         21    1    1    2  503  501  0.89651934535E+02 -0.26254029211E+02  0.23069505574E+03  0.24889144654E+03  0.00000000000E+00 0. -1.
         21    1    1    2  504  502 -0.24136559901E+03  0.59411277919E+02 -0.13859651763E+03  0.28459804466E+03  0.00000000000E+00 0.  1.
         21    1    1    2  505  504 -0.19148514263E+02 -0.43788581847E+02 -0.77486442373E+02  0.91039849792E+02  0.00000000000E+00 0. -1.
          2    1    1    2  501    0  0.17086217873E+03  0.10631333139E+02 -0.98992388901E+03  0.10046174473E+04  0.00000000000E+00 0.  1.
<scales pt_clust_3="93.37237" pt_clust_4="14000.00000" pt_clust_5="47.79232" pt_clust_6="170.66899"></scales>
<clustering>
<clus scale="   47.792">  2  5  1 -1</clus>
<clus scale="   93.372">  1  3  2 -1</clus>
<clus scale="  170.669">  2  6  1 -1</clus>
<clus scale="   93.372">  1  3  2 -1</clus>
</clustering>
</event>
<event>
 6    0  0.1622933E+002  0.3555556E+03  0.7546771E-02  0.1060358E+00
         21   -1    0    0  503  502  0.00000000000E+00  0.00000000000E+00  0.44991708598E+03  0.44991708598E+03  0.00000000000E+00 0.  1.
          2   -1    0    0  505    0 -0.00000000000E+00 -0.00000000000E+00 -0.23989229767E+04  0.23989229767E+04  0.00000000000E+00 0.  1.
         21    1    1    2  503  501 -0.43386886170E+02  0.21100274855E+02  0.31728454496E+03  0.32093165310E+03  0.00000000000E+00 0.  1.
         21    1    1    2  504  502 -0.20222112419E+02  0.32920831435E+03 -0.14473713164E+03  0.36018868020E+03  0.00000000000E+00 0.  1.
         21    1    1    2  505  504 -0.17178824716E+02  0.32371904050E+02 -0.67940763683E+02  0.77194556545E+02  0.00000000000E+00 0. -1.
          2    1    1    2  501    0  0.80787823305E+02 -0.38268049326E+03 -0.20536125404E+04  0.20905251728E+04  0.00000000000E+00 0.  1.
<scales pt_clust_3="48.26887" pt_clust_4="355.55555" pt_clust_5="36.64768" pt_clust_6="14000.00000"></scales>
<clustering>
<clus scale="   36.648">  2  5  1 -1</clus>
<clus scale="   48.269">  1  3  2 -1</clus>
<clus scale="  355.556">  1  4  2 -1</clus>
<clus scale="   48.269">  1  3  2 -1</clus>
</clustering>
</event>
<event>
 6    0  0.1622933E+002  0.1284137E+03  0.7546771E-02  0.1229829E+00
         21   -1    0    0  505  502  0.00000000000E+00  0.00000000000E+00  0.67345294622E+03  0.67345294622E+03  0.00000000000E+00 0.  1.
          2   -1    0    0  503    0 -0.00000000000E+00 -0.00000000000E+00 -0.10585718926E+04  0.10585718926E+04  0.00000000000E+00 0.  1.
         21    1    1    2  503  504 -0.17990018099E+03 -0.73114114877E+01 -0.27006985674E+03  0.32458474914E+03  0.00000000000E+00 0. -1.
         21    1    1    2  504  502  0.16439986041E+01  0.48006987008E+02  0.60954877893E+03  0.61143853937E+03  0.00000000000E+00 0.  1.
         21    1    1    2  505  501  0.68843872108E+02  0.13049653972E+02 -0.96442336179E+01  0.70730357257E+02  0.00000000000E+00 0. -1.
          2    1    1    2  501    0  0.10941231028E+03 -0.53745229492E+02 -0.71495363495E+03  0.72527119305E+03  0.00000000000E+00 0.  1.
<scales pt_clust_3="14000.00000" pt_clust_4="48.03513" pt_clust_5="78.55221" pt_clust_6="128.41372"></scales>
<clustering>
<clus scale="   48.035">  1  4  2 -1</clus>
<clus scale="   78.552">  1  5  2 -1</clus>
<clus scale="  128.414">  2  6  1 -1</clus>
<clus scale="   48.035">  1  3  2 -1</clus>
</clustering>
</event>
<event>
 6    0  0.1622933E+002  0.1150501E+03  0.7546771E-02  0.1251494E+00
         -1   -1    0    0    0  501 -0.00000000000E+00  0.00000000000E+00  0.34934096137E+03  0.34934096137E+03  0.00000000000E+00 0.  1.
         21   -1    0    0  503  502  0.00000000000E+00 -0.00000000000E+00 -0.10167528542E+04  0.10167528542E+04  0.00000000000E+00 0. -1.
         21    1    1    2  503  504 -0.29290621026E+02 -0.57339494430E+02 -0.89932449853E+03  0.90162648129E+03  0.00000000000E+00 0. -1.
         21    1    1    2  504  505 -0.80696270713E+02  0.98291863976E+02 -0.56438649077E+02  0.13913482576E+03  0.00000000000E+00 0. -1.
         21    1    1    2  505  501 -0.36789155297E+01 -0.34401660457E+02  0.45897517872E+02  0.57476871944E+02  0.00000000000E+00 0. -1.
         -1    1    1    2    0  502  0.11366580727E+03 -0.65507090894E+01  0.24245373688E+03  0.26785563660E+03  0.00000000000E+00 0.  1.
<scales pt_clust_3="64.51252" pt_clust_4="14000.00000" pt_clust_5="34.59781" pt_clust_6="115.05011"></scales>
<clustering>
<clus scale="   34.598">  1  5  2 -1</clus>
<clus scale="   64.513">  2  3  1 -1</clus>
<clus scale="  115.050">  1  6  2 -1</clus>
<clus scale="   64.513">  2  3  1 -1</clus>
</clustering>
</event>
<event>
 6    0  0.1622933E+002  0.1350005E+03  0.7546771E-02  0.1220219E+00
         21   -1    0    0  503  502  0.00000000000E+00  0.00000000000E+00  0.12243829291E+03  0.12243829291E+03  0.00000000000E+00 0. -1.
          1   -1    0    0  504    0 -0.00000000000E+00 -0.00000000000E+00 -0.35005825397E+04  0.35005825397E+04  0.00000000000E+00 0.  1.
         21    1    1    2  503  505 -0.32411744370E+02 -0.78019506270E+02  0.99025452810E+02  0.13016760287E+03  0.00000000000E+00 0. -1.
         21    1    1    2  504  502 -0.65480750135E+02  0.40724628628E+01 -0.16017505203E+03  0.17309061467E+03  0.00000000000E+00 0.  1.
         21    1    1    2  505  501  0.43131031740E+02  0.15397134045E+02 -0.67492686318E+03  0.67647884540E+03  0.00000000000E+00 0. -1.
          1    1    1    2  501    0  0.54761462765E+02  0.58549909363E+02 -0.26420677844E+04  0.26432837697E+04  0.00000000000E+00 0.  1.
<scales pt_clust_3="122.08982" pt_clust_4="65.60727" pt_clust_5="43.54475" pt_clust_6="43.54475"></scales>
<clustering>
<clus scale="   43.545">  5  6 -1 -1</clus>
<clus scale="   65.607">  1  4  2 -1</clus>
<clus scale="  122.090">  1  3  2 -1</clus>
<clus scale="   65.607">  1  3  2 -1</clus>
</clustering>
</event>
<event>
 6    0  0.1622933E+002  0.9474501E+02  0.7546771E-02  0.1291751E+00
          3   -1    0    0  504    0 -0.00000000000E+00  0.00000000000E+00  0.11690725778E+03  0.11690725778E+03  0.00000000000E+00 0.  1.
         21   -1    0    0  501  502  0.00000000000E+00 -0.00000000000E+00 -0.97937120632E+03  0.97937120632E+03  0.00000000000E+00 0. -1.
         21    1    1    2  503  502  0.24841671360E+02  0.90867051801E+02 -0.85824981084E+03  0.86340411601E+03  0.00000000000E+00 0. -1.
         21    1    1    2  504  505  0.30076683687E+02 -0.16018612936E+02 -0.23747434987E+02  0.41534847182E+02  0.00000000000E+00 0.  1.
         21    1    1    2  505  503 -0.16161027722E+02  0.34302419413E+02 -0.44921529118E+02  0.58785870521E+02  0.00000000000E+00 0. -1.
          3    1    1    2  501    0 -0.38757327325E+02 -0.10915085828E+03  0.64454826392E+02  0.13255363039E+03  0.00000000000E+00 0.  1.
<scales pt_clust_3="94.74501" pt_clust_4="34.07643" pt_clust_5="36.18974" pt_clust_6="14000.00000"></scales>
<clustering>
<clus scale="   34.076">  1  4  2 -1</clus>
<clus scale="   36.190">  1  5  2 -1</clus>
<clus scale="   94.745">  2  3  1 -1</clus>
<clus scale="   94.745">  2  3  1 -1</clus>
</clustering>
</event>
<event>
 6    0  0.1622933E+002  0.8929797E+02  0.7546771E-02  0.1304561E+00
         -1   -1    0    0    0  501 -0.00000000000E+00  0.00000000000E+00  0.20864766656E+03  0.20864766656E+03  0.00000000000E+00 0.  1.
         21   -1    0    0  504  502  0.00000000000E+00 -0.00000000000E+00 -0.28411679255E+03  0.28411679255E+03  0.00000000000E+00 0. -1.
         21    1    1    2  503  501 -0.35977379640E+02  0.36983092020E+02  0.11658396457E+03  0.12749094766E+03  0.00000000000E+00 0.  1.
         21    1    1    2  504  503 -0.40046307649E+02  0.92292843722E+01 -0.13613865392E+02  0.43292306213E+02  0.00000000000E+00 0.  1.
         21    1    1    2  505  502  0.26001474583E+02 -0.10604783010E+03 -0.21091268055E+03  0.23750026898E+03  0.00000000000E+00 0. -1.
         -1    1    1    2    0  505  0.50022212706E+02  0.59835453709E+02  0.32473455386E+02  0.84480936247E+02  0.00000000000E+00 0.  1.
<scales pt_clust_3="52.33465" pt_clust_4="41.09606" pt_clust_5="89.29797" pt_clust_6="14000.00000"></scales>
<clustering>
<clus scale="   41.096">  2  4  1 -1</clus>
<clus scale="   52.335">  1  3  2 -1</clus>
<clus scale="   89.298">  2  5  1 -1</clus>
<clus scale="   41.096">  2  3  1 -1</clus>
</clustering>
</event>
<event>
 6    0  0.1622933E+002  0.8492446E+02  0.7546771E-02  0.1315630E+00
         21   -1    0    0  503  502  0.00000000000E+00  0.00000000000E+00  0.45133817821E+02  0.45133817821E+02  0.00000000000E+00 0.  1.
          1   -1    0    0  504    0 -0.00000000000E+00 -0.00000000000E+00 -0.68428098129E+03  0.68428098129E+03  0.00000000000E+00 0.  1.
         21    1    1    2  503  501  0.88256423913E+02 -0.13616420746E+02 -0.46916897766E+02  0.10087516331E+03  0.00000000000E+00 0.  1.
         21    1    1    2  504  505  0.22690806386E+01 -0.39507661811E+02 -0.14259935645E+03  0.14798844728E+03  0.00000000000E+00 0.  1.
         21    1    1    2  505  502 -0.21035628515E+02  0.78700457611E+02 -0.13806093064E+03  0.16030308876E+03  0.00000000000E+00 0.  1.
          1    1    1    2  501    0 -0.69489876037E+02 -0.25576375054E+02 -0.31156997861E+03  0.32024809976E+03  0.00000000000E+00 0.  1.
<scales pt_clust_3="84.92446" pt_clust_4="39.57277" pt_clust_5="70.77164" pt_clust_6="14000.00000"></scales>
<clustering>
<clus scale="   39.573">  2  4  1 -1</clus>
<clus scale="   70.772">  2  5  1 -1</clus>
<clus scale="   84.924">  1  3  2 -1</clus>
<clus scale="   84.924">  1  3  2 -1</clus>
</clustering>
</event>
<event>
 6    0  0.1622933E+002  0.1063902E+03  0.7546771E-02  0.1267405E+00
         21   -1    0    0  504  502  0.00000000000E+00  0.00000000000E+00  0.11339618080E+03  0.11339618080E+03  0.00000000000E+00 0. -1.
          2   -1    0    0  505    0 -0.00000000000E+00 -0.00000000000E+00 -0.46879632993E+03  0.46879632993E+03  0.00000000000E+00 0. -1.
         21    1    1    2  503  502 -0.89348917084E+02 -0.40993441497E+02 -0.85479406222E+02  0.13027056505E+03  0.00000000000E+00 0. -1.
         21    1    1    2  504  501  0.10087087570E+03 -0.47741277429E+02  0.24625382318E+02  0.11428286219E+03  0.00000000000E+00 0. -1.
         21    1    1    2  505  503  0.77118323541E+01 -0.36683066120E+02 -0.80748852183E+02  0.89025259490E+02  0.00000000000E+00 0.  1.
          2    1    1    2  501    0 -0.19233790975E+02  0.12541778505E+03 -0.21379727304E+03  0.24861382399E+03  0.00000000000E+00 0. -1.
<scales pt_clust_3="101.15578" pt_clust_4="106.39016" pt_clust_5="37.48493" pt_clust_6="14000.00000"></scales>
<clustering>
<clus scale="   37.485">  2  5  1 -1</clus>
<clus scale="  101.156">  2  3  1 -1</clus>
<clus scale="  106.390">  1  4  2 -1</clus>
<clus scale="  106.390">  1  3  2 -1</clus>
</clustering>
</event>
<event>
 6    0  0.1622933E+002  0.1064733E+03  0.7546771E-02  0.1267244E+00
          2   -1    0    0  505    0 -0.00000000000E+00  0.00000000000E+00  0.38885197883E+03  0.38885197883E+03  0.00000000000E+00 0.  1.
         21   -1    0    0  504  502  0.00000000000E+00 -0.00000000000E+00 -0.56649207877E+02  0.56649207877E+02  0.00000000000E+00 0.  1.
         21    1    1    2  503  501  0.33080131166E+02 -0.24963097601E+02  0.36681411375E+02  0.55344170969E+02  0.00000000000E+00 0.  1.
         21    1    1    2  504  503 -0.33623825382E+02 -0.31911445071E+02  0.36690061880E+02  0.59119054463E+02  0.00000000000E+00 0.  1.
         21    1    1    2  505  502 -0.76028258237E+02  0.57428870799E+02  0.23045561407E+03  0.24937554272E+03  0.00000000000E+00 0.  1.
          2    1    1    2  501    0  0.76571952454E+02 -0.55432812704E+00  0.28375683627E+02  0.81662418550E+02  0.00000000000E+00 0.  1.
<scales pt_clust_3="31.75880" pt_clust_4="46.35625" pt_clust_5="97.32883" pt_clust_6="31.75880"></scales>
<clustering>
<clus scale="   31.759">  3  6 -1 -1</clus>
<clus scale="   46.356">  2  4  1 -1</clus>
<clus scale="   97.329">  1  5  2 -1</clus>
<clus scale="   46.356">  2  3  1 -1</clus>
</clustering>
</event>
<event>
 6    0  0.1622933E+002  0.7663801E+02  0.7546771E-02  0.1338872E+00
         21   -1    0    0  501  502  0.00000000000E+00  0.00000000000E+00  0.55255376037E+03  0.55255376037E+03  0.00000000000E+00 0.  1.
          1   -1    0    0  503    0 -0.00000000000E+00 -0.00000000000E+00 -0.82514922166E+03  0.82514922166E+03  0.00000000000E+00 0. -1.
         21    1    1    2  503  505 -0.49120993712E+02  0.21382852810E+02 -0.17317675909E+03  0.18127406959E+03  0.00000000000E+00 0. -1.
         21    1    1    2  504  502  0.29327997069E+02  0.70839708621E+02  0.51761163189E+03  0.52325920651E+03  0.00000000000E+00 0.  1.
         21    1    1    2  505  504  0.52831393608E+02 -0.30589695909E+02 -0.96848783049E+01  0.61811669725E+02  0.00000000000E+00 0.  1.
          1    1    1    2  501    0 -0.33038396966E+02 -0.61632865522E+02 -0.60734545577E+03  0.61135803621E+03  0.00000000000E+00 0. -1.
<scales pt_clust_3="53.57330" pt_clust_4="14000.00000" pt_clust_5="58.11265" pt_clust_6="76.63801"></scales>
<clustering>
<clus scale="   53.573">  2  3  1 -1</clus>
<clus scale="   58.113">  2  5  1 -1</clus>
<clus scale="   76.638">  2  6  1 -1</clus>
<clus scale="   76.638">  1  3  2 -1</clus>
</clustering>
</event>
<event>
 6    0  0.1622933E+002  0.1359021E+03  0.7546771E-02  0.1218952E+00
          1   -1    0    0  504    0 -0.00000000000E+00  0.00000000000E+00  0.18968739913E+04  0.18968739913E+04  0.00000000000E+00 0.  1.
         21   -1    0    0  501  502  0.00000000000E+00 -0.00000000000E+00 -0.19483703833E+04  0.19483703833E+04  0.00000000000E+00 0.  1.
         21    1    1    2  503  505 -0.15538653281E+03  0.15497432004E+02  0.11205120461E+04  0.11313409700E+04  0.00000000000E+00 0.  1.
         21    1    1    2  504  503  0.32072122028E+02  0.16191979966E+02  0.56582018168E+03  0.56695968042E+03  0.00000000000E+00 0. -1.
         21    1    1    2  505  502 -0.31443211614E+02  0.40139911614E+02 -0.19064098900E+04  0.19070916487E+04  0.00000000000E+00 0.  1.
          1    1    1    2  501    0  0.15475762239E+03 -0.71829323585E+02  0.16858127024E+03  0.23985207544E+03  0.00000000000E+00 0.  1.
<scales pt_clust_3="135.90215" pt_clust_4="35.92772" pt_clust_5="50.98730" pt_clust_6="14000.00000"></scales>
<clustering>
<clus scale="   35.928">  1  4  2 -1</clus>
<clus scale="   50.987">  2  5  1 -1</clus>
<clus scale="  135.902">  1  3  2 -1</clus>
<clus scale="   50.987">  2  3  1 -1</clus>
</clustering>
</event>
<event>
 6    0  0.1622933E+002  0.1307356E+03  0.7546771E-02  0.1226368E+00
         -3   -1    0    0    0  501 -0.00000000000E+00  0.00000000000E+00  0.20277235910E+04  0.20277235910E+04  0.00000000000E+00 0.  1.
         21   -1    0    0  505  502  0.00000000000E+00 -0.00000000000E+00 -0.22316799793E+03  0.22316799793E+03  0.00000000000E+00 0.  1.
         21    1    1    2  503  504  0.42261806090E+02 -0.87778875731E+02  0.44264495437E+03  0.45323917186E+03  0.00000000000E+00 0. -1.
         21    1    1    2  504  501 -0.18130571410E+02  0.54255550217E+02  0.21317844206E+03  0.22072025396E+03  0.00000000000E+00 0. -1.
         21    1    1    2  505  503 -0.12287366293E+03  0.46128151517E+02 -0.19196580923E+03  0.23254379226E+03  0.00000000000E+00 0.  1.
         -3    1    1    2    0  502  0.98742428250E+02 -0.12604826004E+02  0.13406980058E+04  0.13443883708E+04  0.00000000000E+00 0.  1.
<scales pt_clust_3="83.40323" pt_clust_4="57.20474" pt_clust_5="130.73559" pt_clust_6="14000.00000"></scales>
<clustering>
<clus scale="   57.205">  1  4  2 -1</clus>
<clus scale="   83.403">  1  3  2 -1</clus>
<clus scale="  130.736">  2  5  1 -1</clus>
<clus scale="  130.736">  2  3  1 -1</clus>
</clustering>
</event>
<event>
 6    0  0.1622933E+002  0.8909337E+02  0.7546771E-02  0.1305062E+00
          1   -1    0    0  505    0 -0.00000000000E+00  0.00000000000E+00  0.96407981808E+03  0.96407981808E+03  0.00000000000E+00 0.  1.
         21   -1    0    0  504  502  0.00000000000E+00 -0.00000000000E+00 -0.27495007378E+03  0.27495007378E+03  0.00000000000E+00 0. -1.
         21    1    1    2  503  502  0.52207287428E+02 -0.10546839247E+02  0.32621375107E+03  0.33053327831E+03  0.00000000000E+00 0.  1.
         21    1    1    2  504  501 -0.38833509542E+02 -0.79864520823E+02 -0.25210388917E+03  0.26728777391E+03  0.00000000000E+00 0. -1.
         21    1    1    2  505  503  0.15896855859E+02 -0.42410792531E+02  0.14551836417E+03  0.15240400145E+03  0.00000000000E+00 0. -1.
          1    1    1    2  501    0 -0.29270633745E+02  0.13282215260E+03  0.46950151823E+03  0.48880483819E+03  0.00000000000E+00 0.  1.
<scales pt_clust_3="64.79840" pt_clust_4="89.09337" pt_clust_5="45.29222" pt_clust_6="14000.00000"></scales>
<clustering>
<clus scale="   45.292">  1  5  2 -1</clus>
<clus scale="   64.798">  1  3  2 -1</clus>
<clus scale="   89.093">  2  4  1 -1</clus>
<clus scale="   89.093">  2  3  1 -1</clus>
</clustering>
</event>
<event>
 6    0  0.1622933E+002  0.1370687E+03  0.7546771E-02  0.1217329E+00
         21   -1    0    0  505  502  0.00000000000E+00  0.00000000000E+00  0.12676515185E+03  0.12676515185E+03  0.00000000000E+00 0.  1.
          1   -1    0    0  504    0 -0.00000000000E+00 -0.00000000000E+00 -0.85529697863E+03  0.85529697863E+03  0.00000000000E+00 0.  1.
         21    1    1    2  503  501  0.44910119441E+02  0.70223480581E+01 -0.11222573199E+03  0.12108198513E+03  0.00000000000E+00 0.  1.
         21    1    1    2  504  502 -0.14220969608E+03  0.19777417326E+02 -0.47777937488E+03  0.49888663537E+03  0.00000000000E+00 0.  1.
         21    1    1    2  505  503  0.30524331494E+02  0.15066998000E+02  0.10276494911E+03  0.10825610379E+03  0.00000000000E+00 0.  1.
          1    1    1    2  501    0  0.66775245141E+02 -0.41866763384E+02 -0.24129166903E+03  0.25383740620E+03  0.00000000000E+00 0.  1.
<scales pt_clust_3="33.12258" pt_clust_4="129.94456" pt_clust_5="34.04041" pt_clust_6="33.12258"></scales>
<clustering>
<clus scale="   33.123">  3  6 -1 -1</clus>
<clus scale="   34.040">  1  5  2 -1</clus>
<clus scale="  129.945">  1  4  2 -1</clus>
<clus scale="   34.040">  1  3  2 -1</clus>
</clustering>
</event>
<event>
 6    0  0.1622933E+002  0.7331048E+02  0.7546771E-02  0.1349184E+00
         -1   -1    0    0    0  501 -0.00000000000E+00  0.00000000000E+00  0.86368848725E+03  0.86368848725E+03  0.00000000000E+00 0. -1.
         21   -1    0    0  505  502  0.00000000000E+00 -0.00000000000E+00 -0.46906457265E+03  0.46906457265E+03  0.00000000000E+00 0. -1.
         21    1    1    2  503  501 -0.91763939873E+02  0.64690851831E+02  0.15003494409E+03  0.18739266640E+03  0.00000000000E+00 0. -1.
         21    1    1    2  504  502 -0.96704394400E+01 -0.37924258209E+02 -0.42868034297E+03  0.43046324258E+03  0.00000000000E+00 0. -1.
         21    1    1    2  505  503  0.31987129376E+02 -0.15031921864E+02 -0.25337677554E+01  0.35433812944E+02  0.00000000000E+00 0. -1.
         -1    1    1    2    0  504  0.69447249937E+02 -0.11734671758E+02  0.67580308123E+03  0.67946333797E+03  0.00000000000E+00 0. -1.
<scales pt_clust_3="14000.00000" pt_clust_4="56.27951" pt_clust_5="35.34311" pt_clust_6="73.31048"></scales>
<clustering>
<clus scale="   35.343">  2  5  1 -1</clus>
<clus scale="   56.280">  2  4  1 -1</clus>
<clus scale="   73.310">  1  6  2 -1</clus>
<clus scale="   35.343">  2  3  1 -1</clus>
</clustering>
</event>
<event>
 6    0  0.1622933E+002  0.2158945E+03  0.7546771E-02  0.1136981E+00
          1   -1    0    0  505    0 -0.00000000000E+00  0.00000000000E+00  0.60982697676E+03  0.60982697676E+03  0.00000000000E+00 0.  1.
         21   -1    0    0  503  502  0.00000000000E+00 -0.00000000000E+00 -0.94416994767E+02  0.94416994767E+02  0.00000000000E+00 0.  1.
         21    1    1    2  503  501 -0.20522620816E+02  0.11527198347E+03  0.22532578245E+03  0.25393014074E+03  0.00000000000E+00 0.  1.
         21    1    1    2  504  502 -0.27221737340E+01 -0.14919318480E+03  0.39390524219E+02  0.15432961484E+03  0.00000000000E+00 0.  1.
         21    1    1    2  505  504 -0.12726841310E+02 -0.55445215643E+02  0.62141112500E+02  0.84247624834E+02  0.00000000000E+00 0.  1.
          1    1    1    2  501    0  0.35971635860E+02  0.89366416973E+02  0.18855256283E+03  0.21173659111E+03  0.00000000000E+00 0.  1.
<scales pt_clust_3="53.15982" pt_clust_4="41.39571" pt_clust_5="41.39571" pt_clust_6="213.42498"></scales>
<clustering>
<clus scale="   41.396">  4  5 -1 -1</clus>
<clus scale="   53.160">  3  6 -1 -1</clus>
<clus scale="  213.425">  1  3  2 -1</clus>
<clus scale="  215.894">  2  3  1 -1</clus>
</clustering>
</event>
<event>
 6    0  0.1622933E+002  0.9724676E+02  0.7546771E-02  0.1286195E+00
         21   -1    0    0  504  502  0.00000000000E+00  0.00000000000E+00  0.28665038734E+02  0.28665038734E+02  0.00000000000E+00 0. -1.
          1   -1    0    0  503    0 -0.00000000000E+00 -0.00000000000E+00 -0.18945978920E+04  0.18945978920E+04  0.00000000000E+00 0. -1.
         21    1    1    2  503  502 -0.26197239632E+02  0.40486938282E+02 -0.36339126019E+03  0.36657699808E+03  0.00000000000E+00 0. -1.
         21    1    1    2  504  505  0.64952256287E+01  0.76628999494E+02 -0.37221693308E+02  0.85437965636E+02  0.00000000000E+00 0. -1.
         21    1    1    2  505  501 -0.17494532191E+02 -0.34554571244E+02 -0.31563571899E+03  0.31800311972E+03  0.00000000000E+00 0.  1.
          1    1    1    2  501    0  0.37196546194E+02 -0.82561366532E+02 -0.11496841808E+04  0.11532448473E+04  0.00000000000E+00 0. -1.
<scales pt_clust_3="48.22331" pt_clust_4="78.44152" pt_clust_5="37.59120" pt_clust_6="37.59120"></scales>
<clustering>
<clus scale="   37.591">  5  6 -1 -1</clus>
<clus scale="   48.223">  2  3  1 -1</clus>
<clus scale="   78.442">  1  4  2 -1</clus>
<clus scale="   78.442">  1  3  2 -1</clus>
</clustering>
</event>
<event>
 6    0  0.1622933E+002  0.2660537E+03  0.7546771E-02  0.1103560E+00
         21   -1    0    0  503  502  0.00000000000E+00  0.00000000000E+00  0.11616326120E+04  0.11616326120E+04  0.00000000000E+00 0. -1.
          3   -1    0    0  504    0 -0.00000000000E+00 -0.00000000000E+00 -0.28767692427E+03  0.28767692427E+03  0.00000000000E+00 0. -1.
         21    1    1    2  503  501  0.17553836262E+02  0.12409476969E+03  0.56392438853E+01  0.12545696515E+03  0.00000000000E+00 0. -1.
         21    1    1    2  504  505  0.65967613718E+01 -0.26227309770E+03  0.20360776915E+00  0.26235612532E+03  0.00000000000E+00 0. -1.
         21    1    1    2  505  502 -0.42047435492E+02  0.32042679853E+01  0.91614661417E+03  0.91711660808E+03  0.00000000000E+00 0. -1.
          3    1    1    2  501    0  0.17896837858E+02  0.13497406002E+03 -0.48033778141E+02  0.14437983767E+03  0.00000000000E+00 0. -1.
<scales pt_clust_3="49.30210" pt_clust_4="261.04288" pt_clust_5="42.16935" pt_clust_6="49.30210"></scales>
<clustering>
<clus scale="   42.169">  1  5  2 -1</clus>
<clus scale="   49.302">  3  6 -1 -1</clus>
<clus scale="  261.043">  1  4  2 -1</clus>
<clus scale="   42.169">  1  3  2 -1</clus>
</clustering>
</event>
<event>
 6    0  0.1622933E+002  0.8579947E+02  0.7546771E-02  0.1313355E+00
         -3   -1    0    0    0  501 -0.00000000000E+00  0.00000000000E+00  0.76119199142E+02  0.76119199142E+02  0.00000000000E+00 0.  1.
         21   -1    0    0  504  502  0.00000000000E+00 -0.00000000000E+00 -0.55818038308E+03  0.55818038308E+03  0.00000000000E+00 0.  1.
         21    1    1    2  503  502  0.30759224318E+02  0.20432345064E+02 -0.26255767539E+03  0.26514174231E+03  0.00000000000E+00 0.  1.
         21    1    1    2  504  505  0.76215221323E+01 -0.99802674403E+02 -0.15297203897E+03  0.18280893339E+03  0.00000000000E+00 0.  1.
         21    1    1    2  505  501 -0.50625926471E+02  0.45184119656E+01  0.33455304099E+02  0.60849468774E+02  0.00000000000E+00 0.  1.
         -3    1    1    2    0  503  0.12245180021E+02  0.74851917373E+02 -0.99986773670E+02  0.12549943776E+03  0.00000000000E+00 0.  1.
<scales pt_clust_3="36.92710" pt_clust_4="85.79947" pt_clust_5="49.49760" pt_clust_6="14000.00000"></scales>
<clustering>
<clus scale="   36.927">  2  3  1 -1</clus>
<clus scale="   49.498">  1  5  2 -1</clus>
<clus scale="   85.799">  2  4  1 -1</clus>
<clus scale="   36.927">  2  3  1 -1</clus>
</clustering>
</event>
<event>
 6    0  0.1622933E+002  0.6409835E+02  0.7546771E-02  0.1381396E+00
          1   -1    0    0  504    0 -0.00000000000E+00  0.00000000000E+00  0.37660372554E+03  0.37660372554E+03  0.00000000000E+00 0.  1.
         21   -1    0    0  501  502  0.00000000000E+00 -0.00000000000E+00 -0.46319042602E+03  0.46319042602E+03  0.00000000000E+00 0. -1.
         21    1    1    2  503  505 -0.52853482669E+02  0.16826212424E+02  0.62093372760E+02  0.83259828222E+02  0.00000000000E+00 0. -1.
         21    1    1    2  504  503 -0.16373832722E+02 -0.32010732367E+02  0.90194115769E+02  0.97096693580E+02  0.00000000000E+00 0. -1.
         21    1    1    2  505  502 -0.51695494796E+02 -0.36651973259E+02 -0.42600141297E+03  0.43068897731E+03  0.00000000000E+00 0. -1.
          1    1    1    2  501    0  0.12092281019E+03  0.51836493201E+02  0.18712722396E+03  0.22874865245E+03  0.00000000000E+00 0.  1.
<scales pt_clust_3="57.70415" pt_clust_4="35.95538" pt_clust_5="64.09835" pt_clust_6="14000.00000"></scales>
<clustering>
<clus scale="   35.955">  1  4  2 -1</clus>
<clus scale="   57.704">  1  3  2 -1</clus>
<clus scale="   64.098">  2  5  1 -1</clus>
<clus scale="   64.098">  2  3  1 -1</clus>
</clustering>
</event>
<event>
 6    0  0.1622933E+002  0.9152495E+02  0.7546771E-02  0.1299200E+00
          1   -1    0    0  503    0 -0.00000000000E+00  0.00000000000E+00  0.92556094002E+03  0.92556094002E+03  0.00000000000E+00 0. -1.
         21   -1    0    0  501  502  0.00000000000E+00 -0.00000000000E+00 -0.10016513367E+03  0.10016513367E+03  0.00000000000E+00 0. -1.
         21    1    1    2  503  504 -0.21998106622E+02  0.43826445303E+02  0.19458490004E+03  0.20066877517E+03  0.00000000000E+00 0. -1.
         21    1    1    2  504  505 -0.69211330380E+02 -0.13237994972E+02  0.32003963973E+03  0.32770539172E+03  0.00000000000E+00 0. -1.
         21    1    1    2  505  502 -0.26079085162E+02  0.16485256301E+02 -0.80481993496E+02  0.86193002241E+02  0.00000000000E+00 0. -1.
          1    1    1    2  501    0  0.11728852216E+03 -0.47073706632E+02  0.39125326007E+03  0.41115890456E+03  0.00000000000E+00 0. -1.
<scales pt_clust_3="53.89250" pt_clust_4="14000.00000" pt_clust_5="30.85259" pt_clust_6="91.52495"></scales>
<clustering>
<clus scale="   30.853">  2  5  1 -1</clus>
<clus scale="   53.893">  1  3  2 -1</clus>
<clus scale="   91.525">  2  6  1 -1</clus>
<clus scale="   30.853">  2  3  1 -1</clus>
</clustering>
</event>
<event>
 6    0  0.1622933E+002  0.2133356E+03  0.7546771E-02  0.1138951E+00
         21   -1    0    0  501  502  0.00000000000E+00  0.00000000000E+00  0.16090717039E+03  0.16090717039E+03  0.00000000000E+00 0.  1.
          2   -1    0    0  505    0 -0.00000000000E+00 -0.00000000000E+00 -0.29448382441E+04  0.29448382441E+04  0.00000000000E+00 0.  1.
         21    1    1    2  503  502 -0.44317783570E+02 -0.62714953494E+01  0.12357029737E+03  0.13142684652E+03  0.00000000000E+00 0.  1.
         21    1    1    2  504  503 -0.30151723490E+02  0.20670098143E+03 -0.39150224591E+03  0.44374365427E+03  0.00000000000E+00 0. -1.
         21    1    1    2  505  504  0.42675528747E+02  0.20889531178E+02 -0.41416156130E+03  0.41687812623E+03  0.00000000000E+00 0. -1.
          2    1    1    2  501    0  0.31793978313E+02 -0.22131901726E+03 -0.21018375639E+04  0.21136967875E+04  0.00000000000E+00 0.  1.
<scales pt_clust_3="44.75933" pt_clust_4="14000.00000" pt_clust_5="45.78696" pt_clust_6="213.33558"></scales>
<clustering>
<clus scale="   44.759">  1  3  2 -1</clus>
<clus scale="   45.787">  2  5  1 -1</clus>
<clus scale="  213.336">  2  6  1 -1</clus>
<clus scale="   44.759">  1  3  2 -1</clus>
</clustering>
</event>
<event>
 6    0  0.1622933E+002  0.1907620E+03  0.7546771E-02  0.1157776E+00
          1   -1    0    0  503    0 -0.00000000000E+00  0.00000000000E+00  0.23073797830E+04  0.23073797830E+04  0.00000000000E+00 0.  1.
         21   -1    0    0  505  502  0.00000000000E+00 -0.00000000000E+00 -0.11686011863E+03  0.11686011863E+03  0.00000000000E+00 0.  1.
         21    1    1    2  503  504 -0.43559586895E+02  0.90288315711E+02  0.10194957380E+04  0.10244125035E+04  0.00000000000E+00 0.  1.
         21    1    1    2  504  502 -0.18927451758E+00 -0.19995883340E+03 -0.12553847498E+02  0.20035261408E+03  0.00000000000E+00 0.  1.
         21    1    1    2  505  501  0.89151778469E+01  0.77503677475E+02  0.19885060088E+03  0.21360679270E+03  0.00000000000E+00 0. -1.
          1    1    1    2  501    0  0.34833683565E+02  0.32166840216E+02  0.98472717298E+03  0.98586799133E+03  0.00000000000E+00 0.  1.
<scales pt_clust_3="14000.00000" pt_clust_4="190.76200" pt_clust_5="83.75951" pt_clust_6="47.41404"></scales>
<clustering>
<clus scale="   47.414">  1  6  2 -1</clus>
<clus scale="   83.760">  1  5  2 -1</clus>
<clus scale="  190.762">  2  4  1 -1</clus>
<clus scale="  190.762">  2  3  1 -1</clus>
</clustering>
</event>
<event>
 6    0  0.1622933E+002  0.1164893E+03  0.7546771E-02  0.1249004E+00
         21   -1    0    0  503  502  0.00000000000E+00  0.00000000000E+00  0.12572798070E+04  0.12572798070E+04  0.00000000000E+00 0. -1.
         -4   -1    0    0    0  501 -0.00000000000E+00 -0.00000000000E+00 -0.31958084996E+03  0.31958084996E+03  0.00000000000E+00 0. -1.
         21    1    1    2  503  505  0.10463097454E+03 -0.53422135477E+02  0.11998695134E+04  0.12056070730E+04  0.00000000000E+00 0. -1.
         21    1    1    2  504  501 -0.13114412301E+02 -0.45870526438E+02 -0.16190723520E+03  0.16878994584E+03  0.00000000000E+00 0. -1.
         21    1    1    2  505  504 -0.52632295731E+02  0.18247271921E+02  0.13651062164E+02  0.57353927369E+02  0.00000000000E+00 0. -1.
         -4    1    1    2    0  502 -0.38884266504E+02  0.81045389994E+02 -0.11391438331E+03  0.14510971072E+03  0.00000000000E+00 0. -1.
<scales pt_clust_3="116.48932" pt_clust_4="47.70842" pt_clust_5="55.74245" pt_clust_6="14000.00000"></scales>
<clustering>
<clus scale="   47.708">  2  4  1 -1</clus>
<clus scale="   55.742">  2  5  1 -1</clus>
<clus scale="  116.489">  1  3  2 -1</clus>
<clus scale="  116.489">  1  3  2 -1</clus>
</clustering>
</event>
<event>
 6    0  0.1622933E+002  0.1253410E+03  0.7546771E-02  0.1234537E+00
          1   -1    0    0  505    0 -0.00000000000E+00  0.00000000000E+00  0.83283848746E+03  0.83283848746E+03  0.00000000000E+00 0. -1.
         21   -1    0    0  503  502  0.00000000000E+00 -0.00000000000E+00 -0.12057930496E+03  0.12057930496E+03  0.00000000000E+00 0. -1.
         21    1    1    2  503  504  0.33129794665E+02  0.95758427719E+01 -0.78729204030E+02  0.85950960592E+02  0.00000000000E+00 0. -1.
         21    1    1    2  504  501 -0.42178033648E+01  0.13000300928E+03  0.11603568394E+03  0.17430677622E+03  0.00000000000E+00 0.  1.
         21    1    1    2  505  502  0.53252944496E+01 -0.41075951733E+02  0.33557931952E+03  0.33812582312E+03  0.00000000000E+00 0. -1.
          1    1    1    2  501    0 -0.34237285750E+02 -0.98502900318E+02  0.33937338307E+03  0.35503423249E+03  0.00000000000E+00 0. -1.
<scales pt_clust_3="34.48594" pt_clust_4="125.34097" pt_clust_5="41.26095" pt_clust_6="14000.00000"></scales>
<clustering>
<clus scale="   34.486">  2  3  1 -1</clus>
<clus scale="   41.261">  1  5  2 -1</clus>
<clus scale="  125.341">  2  4  1 -1</clus>
<clus scale="   34.486">  2  3  1 -1</clus>
</clustering>
</event>
<event>
 6    0  0.1622933E+002  0.6746333E+02  0.7546771E-02  0.1368938E+00
          2   -1    0    0  503    0 -0.00000000000E+00  0.00000000000E+00  0.95700924257E+03  0.95700924257E+03  0.00000000000E+00 0.  1.
         21   -1    0    0  505  502  0.00000000000E+00 -0.00000000000E+00 -0.22966705968E+03  0.22966705968E+03  0.00000000000E+00 0.  1.
         21    1    1    2  503  502 -0.76465838908E+02 -0.39807841765E+02  0.14811839758E+03  0.17137896162E+03  0.00000000000E+00 0.  1.
         21    1    1    2  504  501  0.55135454683E+02 -0.43039361323E+02  0.12344575402E+03  0.14188431616E+03  0.00000000000E+00 0.  1.
         21    1    1    2  505  504  0.33604077116E+02  0.13919567619E+02 -0.20537115074E+03  0.20856725034E+03  0.00000000000E+00 0.  1.
          2    1    1    2  501    0 -0.12273692890E+02  0.68927635469E+02  0.66114918203E+03  0.66484577413E+03  0.00000000000E+00 0.  1.
<scales pt_clust_3="67.66038" pt_clust_4="14000.00000" pt_clust_5="36.37291" pt_clust_6="67.46333"></scales>
<clustering>
<clus scale="   36.373">  2  5  1 -1</clus>
<clus scale="   67.660">  2  3  1 -1</clus>
<clus scale="   67.463">  1  6  2 -1</clus>
<clus scale="   36.373">  2  3  1 -1</clus>
</clustering>
</event>
<event>
 6    0  0.1622933E+002  0.9048195E+02  0.7546771E-02  0.1301689E+00
         21   -1    0    0  503  502  0.00000000000E+00  0.00000000000E+00  0.27340187015E+03  0.27340187015E+03  0.00000000000E+00 0.  1.
          2   -1    0    0  504    0 -0.00000000000E+00 -0.00000000000E+00 -0.15513247870E+04  0.15513247870E+04  0.00000000000E+00 0.  1.
         21    1    1    2  503  501 -0.56185813884E+02 -0.10795111891E+02  0.23623922834E+03  0.24306861815E+03  0.00000000000E+00 0.  1.
         21    1    1    2  504  505  0.11606280589E+02 -0.71646648212E+02 -0.13808756469E+03  0.15600039574E+03  0.00000000000E+00 0. -1.
         21    1    1    2  505  502 -0.75999905773E+01 -0.54493326280E+02 -0.15428154612E+02  0.57142894751E+02  0.00000000000E+00 0.  1.
          2    1    1    2  501    0  0.52179523872E+02  0.13693508638E+03 -0.13606464259E+04  0.13685147485E+04  0.00000000000E+00 0.  1.
<scales pt_clust_3="14000.00000" pt_clust_4="74.44747" pt_clust_5="55.02075" pt_clust_6="90.48195"></scales>
<clustering>
<clus scale="   55.021">  1  5  2 -1</clus>
<clus scale="   74.447">  2  4  1 -1</clus>
<clus scale="   90.482">  2  6  1 -1</clus>
<clus scale="   55.021">  1  3  2 -1</clus>
</clustering>
</event>
<event>
 6    0  0.1622933E+002  0.2665945E+03  0.7546771E-02  0.1103245E+00
          1   -1    0    0  504    0 -0.00000000000E+00  0.00000000000E+00  0.31262315167E+04  0.31262315167E+04  0.00000000000E+00 0. -1.
         21   -1    0    0  505  502  0.00000000000E+00 -0.00000000000E+00 -0.85294801080E+02  0.85294801080E+02  0.00000000000E+00 0. -1.
         21    1    1    2  503  502 -0.27992830997E+02  0.31003758612E+02 -0.45547169019E+02  0.61801102263E+02  0.00000000000E+00 0. -1.
         21    1    1    2  504  503 -0.24712702482E+03 -0.12014594079E+03  0.16763759262E+04  0.16987474972E+04  0.00000000000E+00 0. -1.
         21    1    1    2  505  501  0.26908144451E+02  0.13434018394E+02  0.18344680411E+02  0.35228516679E+02  0.00000000000E+00 0. -1.
          1    1    1    2  501    0  0.24821171137E+03  0.75708163781E+02  0.13917632781E+04  0.14157492016E+04  0.00000000000E+00 0. -1.
<scales pt_clust_3="41.42076" pt_clust_4="14000.00000" pt_clust_5="30.07526" pt_clust_6="266.59447"></scales>
<clustering>
<clus scale="   30.075">  2  5  1 -1</clus>
<clus scale="   41.421">  2  3  1 -1</clus>
<clus scale="  266.594">  2  6  1 -1</clus>
<clus scale="   30.075">  2  3  1 -1</clus>
</clustering>
</event>
<event>
 6    0  0.1622933E+002  0.1004507E+03  0.7546771E-02  0.1279351E+00
          1   -1    0    0  504    0 -0.00000000000E+00  0.00000000000E+00  0.55605020299E+03  0.55605020299E+03  0.00000000000E+00 0.  1.
         21   -1    0    0  505  502  0.00000000000E+00 -0.00000000000E+00 -0.45202625136E+03  0.45202625136E+03  0.00000000000E+00 0.  1.
         21    1    1    2  503  501  0.34517483944E+02 -0.66495180902E+02  0.15870896252E+03  0.17550384772E+03  0.00000000000E+00 0.  1.
         21    1    1    2  504  502 -0.32077170335E+02  0.10128840052E+03  0.31706695269E+02  0.11087650546E+03  0.00000000000E+00 0. -1.
         21    1    1    2  505  503 -0.73246637485E+02 -0.21381474703E+02 -0.39626946232E+03  0.40354891170E+03  0.00000000000E+00 0.  1.
          1    1    1    2  501    0  0.70806323876E+02 -0.13411744918E+02  0.30987775617E+03  0.31814718947E+03  0.00000000000E+00 0.  1.
<scales pt_clust_3="100.45070" pt_clust_4="14000.00000" pt_clust_5="75.33959" pt_clust_6="72.06532"></scales>
<clustering>
<clus scale="   72.065">  1  6  2 -1</clus>
<clus scale="   75.340">  2  5  1 -1</clus>
<clus scale="  100.451">  1  3  2 -1</clus>
<clus scale="   75.340">  2  3  1 -1</clus>
</clustering>
</event>
<event>
 6    0  0.1622933E+002  0.1608423E+03  0.7546771E-02  0.1187749E+00
          1   -1    0    0  505    0 -0.00000000000E+00  0.00000000000E+00  0.12849425211E+04  0.12849425211E+04  0.00000000000E+00 0.  1.
         21   -1    0    0  504  502  0.00000000000E+00 -0.00000000000E+00 -0.77784336874E+02  0.77784336874E+02  0.00000000000E+00 0.  1.
         21    1    1    2  503  502 -0.97095429508E+02 -0.10078964259E+02 -0.17090722945E+02  0.99101971538E+02  0.00000000000E+00 0.  1.
         21    1    1    2  504  501  0.86697418462E+02  0.10012117225E+03  0.53589775602E+03  0.55202092027E+03  0.00000000000E+00 0.  1.
         21    1    1    2  505  503 -0.49033114977E+02 -0.91914087221E+02  0.27633350567E+03  0.29531788323E+03  0.00000000000E+00 0.  1.
          1    1    1    2  501    0  0.59431126023E+02  0.18718792279E+01  0.41201764552E+03  0.41628608299E+03  0.00000000000E+00 0.  1.
<scales pt_clust_3="97.61715" pt_clust_4="57.32185" pt_clust_5="136.20399" pt_clust_6="57.32185"></scales>
<clustering>
<clus scale="   57.322">  4  6 -1 -1</clus>
<clus scale="   97.617">  2  3  1 -1</clus>
<clus scale="  136.204">  2  5  1 -1</clus>
<clus scale="   97.617">  2  3  1 -1</clus>
</clustering>
</event>
<event>
 6    0  0.1622933E+002  0.1343716E+03  0.7546771E-02  0.1221110E+00
         21   -1    0    0  503  502  0.00000000000E+00  0.00000000000E+00  0.15560859800E+03  0.15560859800E+03  0.00000000000E+00 0. -1.
          2   -1    0    0  502    0 -0.00000000000E+00 -0.00000000000E+00 -0.38446193910E+04  0.38446193910E+04  0.00000000000E+00 0.  1.
         21    1    1    2  503  505 -0.66093130269E+02 -0.10317125303E+03  0.12550416980E+03  0.17539642516E+03  0.00000000000E+00 0. -1.
         21    1    1    2  504  501  0.14428233160E+02  0.68816161764E+02 -0.68553280554E+03  0.68912920814E+03  0.00000000000E+00 0.  1.
         21    1    1    2  505  504  0.10739232767E+02  0.49590280105E+02 -0.19809837700E+03  0.20449326143E+03  0.00000000000E+00 0.  1.
          2    1    1    2  501    0  0.40925664342E+02 -0.15235188836E+02 -0.29308837803E+04  0.29312090943E+04  0.00000000000E+00 0.  1.
<scales pt_clust_3="122.27899" pt_clust_4="46.22222" pt_clust_5="46.22222" pt_clust_6="43.66945"></scales>
<clustering>
<clus scale="   43.669">  2  6  1 -1</clus>
<clus scale="   46.222">  4  5 -1 -1</clus>
<clus scale="  122.279">  1  3  2 -1</clus>
<clus scale="  122.279">  1  3  2 -1</clus>
</clustering>
</event>
<event>
 6    0  0.1622933E+002  0.9214263E+02  0.7546771E-02  0.1297744E+00
         21   -1    0    0  503  502  0.00000000000E+00  0.00000000000E+00  0.19962045861E+03  0.19962045861E+03  0.00000000000E+00 0.  1.
          1   -1    0    0  504    0 -0.00000000000E+00 -0.00000000000E+00 -0.12008711505E+04  0.12008711505E+04  0.00000000000E+00 0.  1.
         21    1    1    2  503  505 -0.57675085415E+02 -0.25281402747E+02  0.16302702015E+03  0.17476662754E+03  0.00000000000E+00 0.  1.
         21    1    1    2  504  502 -0.29322660640E+02  0.10764357213E+02 -0.12540939135E+03  0.12924088073E+03  0.00000000000E+00 0.  1.
         21    1    1    2  505  501  0.13446940216E+03 -0.25966707221E+02 -0.14140370219E+03  0.19685349119E+03  0.00000000000E+00 0.  1.
          1    1    1    2  501    0 -0.47471656102E+02  0.40483752756E+02 -0.89746461853E+03  0.89963060969E+03  0.00000000000E+00 0.  1.
<scales pt_clust_3="63.09605" pt_clust_4="31.23603" pt_clust_5="14000.00000" pt_clust_6="92.14263"></scales>
<clustering>
<clus scale="   31.236">  2  4  1 -1</clus>
<clus scale="   63.096">  1  3  2 -1</clus>
<clus scale="   92.143">  2  6  1 -1</clus>
<clus scale="   63.096">  1  3  2 -1</clus>
</clustering>
</event>
<event>
 6    0  0.1622933E+002  0.1764531E+03  0.7546771E-02  0.1171281E+00
          2   -1    0    0  505    0 -0.00000000000E+00  0.00000000000E+00  0.14701194289E+04  0.14701194289E+04  0.00000000000E+00 0. -1.
         21   -1    0    0  503  502  0.00000000000E+00 -0.00000000000E+00 -0.18058299433E+03  0.18058299433E+03  0.00000000000E+00 0. -1.
         21    1    1    2  503  501  0.15694158380E+03 -0.13419371705E+03 -0.89367624572E+02  0.22500041499E+03  0.00000000000E+00 0. -1.
         21    1    1    2  504  502 -0.11108052317E+03  0.18440049865E+02  0.15649475493E+03  0.19279399987E+03  0.00000000000E+00 0.  1.
         21    1    1    2  505  504 -0.45168163317E+02  0.24537335049E+02  0.20229939675E+03  0.20872778856E+03  0.00000000000E+00 0.  1.
          2    1    1    2  501    0 -0.69289731103E+00  0.91216332135E+02  0.10201099074E+04  0.10241802198E+04  0.00000000000E+00 0. -1.
<scales pt_clust_3="14000.00000" pt_clust_4="176.45307" pt_clust_5="51.40276" pt_clust_6="117.11462"></scales>
<clustering>
<clus scale="   51.403">  1  5  2 -1</clus>
<clus scale="  117.115">  1  6  2 -1</clus>
<clus scale="  176.453">  1  4  2 -1</clus>
<clus scale="  176.453">  2  3  1 -1</clus>
</clustering>
</event>
<event>
 6    0  0.1622933E+002  0.9341594E+02  0.7546771E-02  0.1294784E+00
          2   -1    0    0  505    0 -0.00000000000E+00  0.00000000000E+00  0.35112502673E+04  0.35112502673E+04  0.00000000000E+00 0. -1.
         21   -1    0    0  501  502  0.00000000000E+00 -0.00000000000E+00 -0.26085902785E+03  0.26085902785E+03  0.00000000000E+00 0. -1.
         21    1    1    2  503  502 -0.22873500322E+02  0.25069793983E+02 -0.22631753908E+03  0.22884780987E+03  0.00000000000E+00 0. -1.
         21    1    1    2  504  503 -0.42846702217E+02 -0.92572829336E+02  0.49692027090E+02  0.11346746749E+03  0.00000000000E+00 0. -1.
         21    1    1    2  505  504  0.14092577522E+02  0.82829550400E+02  0.20171984099E+04  0.20189474386E+04  0.00000000000E+00 0. -1.
          2    1    1    2  501    0  0.51627625017E+02 -0.15326515047E+02  0.14098183416E+04  0.14108465792E+04  0.00000000000E+00 0. -1.
<scales pt_clust_3="33.93658" pt_clust_4="14000.00000" pt_clust_5="93.41594" pt_clust_6="53.40624"></scales>
<clustering>
<clus scale="   33.937">  2  3  1 -1</clus>
<clus scale="   53.406">  1  6  2 -1</clus>
<clus scale="   93.416">  1  5  2 -1</clus>
<clus scale="   33.937">  2  3  1 -1</clus>
</clustering>
</event>
<event>
 6    0  0.1622933E+002  0.9453361E+02  0.7546771E-02  0.1292230E+00
         21   -1    0    0  504  502  0.00000000000E+00  0.00000000000E+00  0.10486966334E+03  0.10486966334E+03  0.00000000000E+00 0. -1.
          2   -1    0    0  503    0 -0.00000000000E+00 -0.00000000000E+00 -0.59970961997E+03  0.59970961997E+03  0.00000000000E+00 0. -1.
         21    1    1    2  503  505  0.79524986604E+01 -0.94163930391E+02 -0.14931324829E+03  0.17670465228E+03  0.00000000000E+00 0. -1.
         21    1    1    2  504  501 -0.14376854263E+01  0.33339973259E+02 -0.68610888841E+01  0.34068978514E+02  0.00000000000E+00 0. -1.
         21    1    1    2  505  502  0.49793982761E+02 -0.20002038508E+02  0.61543071329E+02  0.81652139545E+02  0.00000000000E+00 0. -1.
          2    1    1    2  501    0 -0.56308795995E+02  0.80825995640E+02 -0.40020869079E+03  0.41215351298E+03  0.00000000000E+00 0. -1.
<scales pt_clust_3="94.53361" pt_clust_4="33.37096" pt_clust_5="49.05356" pt_clust_6="14000.00000"></scales>
<clustering>
<clus scale="   33.371">  1  4  2 -1</clus>
<clus scale="   49.054">  1  5  2 -1</clus>
<clus scale="   94.534">  1  3  2 -1</clus>
<clus scale="   33.371">  1  3  2 -1</clus>
</clustering>
</event>
<event>
 6    0  0.1622933E+002  0.1887440E+03  0.7546771E-02  0.1159599E+00
         21   -1    0    0  505  502  0.00000000000E+00  0.00000000000E+00  0.12208159243E+04  0.12208159243E+04  0.00000000000E+00 0.  1.
         -2   -1    0    0    0  501 -0.00000000000E+00 -0.00000000000E+00 -0.95019300129E+03  0.95019300129E+03  0.00000000000E+00 0. -1.
         21    1    1    2  503  504  0.36314156744E+02 -0.92336344107E+02 -0.42696294269E+03  0.43834013375E+03  0.00000000000E+00 0. -1.
         21    1    1    2  504  502 -0.54895164015E+02  0.52253346071E+02  0.12805246141E+03  0.14879961049E+03  0.00000000000E+00 0.  1.
         21    1    1    2  505  501 -0.35952906443E+02  0.10975573203E+03  0.10697103123E+04  0.10759270814E+04  0.00000000000E+00 0.  1.
         -2    1    1    2    0  503  0.54533913714E+02 -0.69672733997E+02 -0.50017690801E+03  0.50794209997E+03  0.00000000000E+00 0. -1.
<scales pt_clust_3="34.84304" pt_clust_4="75.78846" pt_clust_5="185.10227" pt_clust_6="34.84304"></scales>
<clustering>
<clus scale="   34.843">  3  6 -1 -1</clus>
<clus scale="   75.788">  1  4  2 -1</clus>
<clus scale="  185.102">  1  5  2 -1</clus>
<clus scale="   75.788">  1  3  2 -1</clus>
</clustering>
</event>
<event>
 6    0  0.1622933E+002  0.7890382E+02  0.7546771E-02  0.1332191E+00
         21   -1    0    0  503  502  0.00000000000E+00  0.00000000000E+00  0.91361794168E+03  0.91361794168E+03  0.00000000000E+00 0.  1.
          2   -1    0    0  504    0 -0.00000000000E+00 -0.00000000000E+00 -0.30162725063E+04  0.30162725063E+04  0.00000000000E+00 0. -1.
         21    1    1    2  503  501  0.25266168271E+02  0.27289595012E+02  0.89832926635E+03  0.89909875544E+03  0.00000000000E+00 0.  1.
         21    1    1    2  504  505 -0.44962157990E+02  0.26929127169E+02 -0.41925444589E+03  0.42251753092E+03  0.00000000000E+00 0.  1.
         21    1    1    2  505  502 -0.22393119001E+02 -0.10400661725E+03 -0.20781738942E+03  0.23346711879E+03  0.00000000000E+00 0. -1.
          2    1    1    2  501    0  0.42089108720E+02  0.49787895065E+02 -0.23739119956E+04  0.23748070428E+04  0.00000000000E+00 0. -1.
<scales pt_clust_3="37.19007" pt_clust_4="51.72546" pt_clust_5="14000.00000" pt_clust_6="78.90382"></scales>
<clustering>
<clus scale="   37.190">  1  3  2 -1</clus>
<clus scale="   51.725">  2  4  1 -1</clus>
<clus scale="   78.904">  2  6  1 -1</clus>
<clus scale="   37.190">  1  3  2 -1</clus>
</clustering>
</event>
<event>
 6    0  0.1622933E+002  0.1368793E+03  0.7546771E-02  0.1217591E+00
         21   -1    0    0  503  502  0.00000000000E+00  0.00000000000E+00  0.18126052155E+03  0.18126052155E+03  0.00000000000E+00 0.  1.
          2   -1    0    0  505    0 -0.00000000000E+00 -0.00000000000E+00 -0.42811399723E+03  0.42811399723E+03  0.00000000000E+00 0. -1.
         21    1    1    2  503  501 -0.81927885541E+02 -0.11101335046E+03  0.10926083648E+03  0.17599452491E+03  0.00000000000E+00 0.  1.
         21    1    1    2  504  502  0.11779269897E+02  0.48099552954E+02 -0.19168903518E+02  0.53101460015E+02  0.00000000000E+00 0. -1.
         21    1    1    2  505  504 -0.95218131396E+01 -0.39228988666E+02 -0.13009154743E+03  0.13621082625E+03  0.00000000000E+00 0.  1.
          2    1    1    2  501    0  0.79670428783E+02  0.10214278617E+03 -0.20685386122E+03  0.24406770760E+03  0.00000000000E+00 0. -1.
<scales pt_clust_3="136.87933" pt_clust_4="44.57551" pt_clust_5="40.36804" pt_clust_6="14000.00000"></scales>
<clustering>
<clus scale="   40.368">  2  5  1 -1</clus>
<clus scale="   44.576">  2  4  1 -1</clus>
<clus scale="  136.879">  1  3  2 -1</clus>
<clus scale="  136.879">  1  3  2 -1</clus>
</clustering>
</event>
<event>
 6    0  0.1622933E+002  0.2140110E+03  0.7546771E-02  0.1138428E+00
          2   -1    0    0  504    0 -0.00000000000E+00  0.00000000000E+00  0.19451960088E+04  0.19451960088E+04  0.00000000000E+00 0. -1.
         21   -1    0    0  505  502  0.00000000000E+00 -0.00000000000E+00 -0.18567268801E+03  0.18567268801E+03  0.00000000000E+00 0. -1.
         21    1    1    2  503  501  0.61439892624E+01 -0.49475982933E+02  0.88148231282E+03  0.88289109708E+03  0.00000000000E+00 0. -1.
         21    1    1    2  504  502  0.20809966248E+02 -0.81922054721E+02  0.25268499179E+03  0.26644696062E+03  0.00000000000E+00 0.  1.
         21    1    1    2  505  503  0.72684340032E+01  0.20883465417E+03 -0.11352981398E+03  0.23781034792E+03  0.00000000000E+00 0. -1.
          2    1    1    2  501    0 -0.34222389514E+02 -0.77436616520E+02  0.73888583014E+03  0.74372029117E+03  0.00000000000E+00 0. -1.
<scales pt_clust_3="44.59105" pt_clust_4="84.52383" pt_clust_5="205.97143" pt_clust_6="44.59105"></scales>
<clustering>
<clus scale="   44.591">  3  6 -1 -1</clus>
<clus scale="   84.524">  1  4  2 -1</clus>
<clus scale="  205.971">  2  5  1 -1</clus>
<clus scale="  205.971">  2  3  1 -1</clus>
</clustering>
</event>
<event>
 6    0  0.1622933E+002  0.7950035E+02  0.7546771E-02  0.1330475E+00
          2   -1    0    0  503    0 -0.00000000000E+00  0.00000000000E+00  0.25030889947E+03  0.25030889947E+03  0.00000000000E+00 0.  1.
         21   -1    0    0  501  502  0.00000000000E+00 -0.00000000000E+00 -0.14669938067E+03  0.14669938067E+03  0.00000000000E+00 0. -1.
         21    1    1    2  503  505 -0.60886811453E+01  0.42643242367E+02  0.16655423696E+02  0.46183560887E+02  0.00000000000E+00 0.  1.
         21    1    1    2  504  502  0.25332606664E+02 -0.75691504295E+02 -0.83170087326E+02  0.11527449071E+03  0.00000000000E+00 0. -1.
         21    1    1    2  505  504  0.47235996340E+02 -0.23824367298E+02  0.11110708552E+02  0.54058187834E+02  0.00000000000E+00 0. -1.
          2    1    1    2  501    0 -0.66479921859E+02  0.56872629225E+02  0.15901347388E+03  0.18149204071E+03  0.00000000000E+00 0.  1.
<scales pt_clust_3="43.07573" pt_clust_4="14000.00000" pt_clust_5="49.51624" pt_clust_6="79.50035"></scales>
<clustering>
<clus scale="   43.076">  1  3  2 -1</clus>
<clus scale="   49.516">  1  5  2 -1</clus>
<clus scale="   79.500">  1  6  2 -1</clus>
<clus scale="   79.500">  2  3  1 -1</clus>
</clustering>
</event>
<event>
 6    0  0.1622933E+002  0.1299111E+03  0.7546771E-02  0.1227588E+00
          2   -1    0    0  503    0 -0.00000000000E+00  0.00000000000E+00  0.57782042564E+02  0.57782042564E+02  0.00000000000E+00 0.  1.
         21   -1    0    0  505  502  0.00000000000E+00 -0.00000000000E+00 -0.70780530277E+03  0.70780530277E+03  0.00000000000E+00 0. -1.
         21    1    1    2  503  502 -0.65232153231E+02  0.23287445184E+02 -0.97027304570E+02  0.11921340843E+03  0.00000000000E+00 0. -1.
         21    1    1    2  504  501  0.37599034813E+02  0.28956582636E+02 -0.59707125222E+02  0.76269993438E+02  0.00000000000E+00 0. -1.
         21    1    1    2  505  504 -0.20196700510E+02 -0.11862219678E+03 -0.46982661865E+03  0.48499091112E+03  0.00000000000E+00 0. -1.
          2    1    1    2  501    0  0.47829818928E+02  0.66378168959E+02 -0.23462211765E+02  0.85113032339E+02  0.00000000000E+00 0.  1.
<scales pt_clust_3="69.26427" pt_clust_4="39.87043" pt_clust_5="118.89639" pt_clust_6="39.87043"></scales>
<clustering>
<clus scale="   39.870">  4  6 -1 -1</clus>
<clus scale="   69.264">  1  3  2 -1</clus>
<clus scale="  118.896">  2  5  1 -1</clus>
<clus scale="  118.896">  2  3  1 -1</clus>
</clustering>
</event>
<event>
 6    0  0.1622933E+002  0.9148258E+02  0.7546771E-02  0.1299301E+00
          2   -1    0    0  504    0 -0.00000000000E+00  0.00000000000E+00  0.14447211763E+04  0.14447211763E+04  0.00000000000E+00 0. -1.
         21   -1    0    0  501  502  0.00000000000E+00 -0.00000000000E+00 -0.24369097228E+03  0.24369097228E+03  0.00000000000E+00 0.  1.
         21    1    1    2  503  505  0.66612542876E+00 -0.52045538106E+02  0.10249475326E+03  0.11495371332E+03  0.00000000000E+00 0.  1.
         21    1    1    2  504  503  0.32064544080E+02 -0.11107713775E+02  0.66491063731E+02  0.74649700927E+02  0.00000000000E+00 0.  1.
         21    1    1    2  505  502 -0.34501450059E+01 -0.90973469093E+02 -0.21941607838E+03  0.23755313307E+03  0.00000000000E+00 0.  1.
          2    1    1    2  501    0 -0.29280524503E+02  0.15412672097E+03  0.12514604654E+04  0.12612556012E+04  0.00000000000E+00 0. -1.
<scales pt_clust_3="53.02123" pt_clust_4="33.93400" pt_clust_5="14000.00000" pt_clust_6="91.48258"></scales>
<clustering>
<clus scale="   33.934">  1  4  2 -1</clus>
<clus scale="   53.021">  1  3  2 -1</clus>
<clus scale="   91.483">  1  6  2 -1</clus>
<clus scale="   91.483">  2  3  1 -1</clus>
</clustering>
</event>
<event>
 6    0  0.1622933E+002  0.7053368E+02  0.7546771E-02  0.1358288E+00
         21   -1    0    0  503  502  0.00000000000E+00  0.00000000000E+00  0.58559185914E+03  0.58559185914E+03  0.00000000000E+00 0. -1.
          4   -1    0    0  505    0 -0.00000000000E+00 -0.00000000000E+00 -0.84294714749E+02  0.84294714749E+02  0.00000000000E+00 0. -1.
         21    1    1    2  503  501 -0.54090144196E+01  0.35172593740E+02  0.41557430773E+03  0.41709516185E+03  0.00000000000E+00 0. -1.
         21    1    1    2  504  502  0.36800196060E+02 -0.63845894850E+02  0.72617561867E+02  0.10345947521E+03  0.00000000000E+00 0. -1.
         21    1    1    2  505  504 -0.83785369644E+02  0.71616064738E+01 -0.16082759452E+02  0.85615021610E+02  0.00000000000E+00 0. -1.
          4    1    1    2  501    0  0.52394188003E+02  0.21511694637E+02  0.29188034246E+02  0.63716915225E+02  0.00000000000E+00 0. -1.
<scales pt_clust_3="35.58608" pt_clust_4="56.83300" pt_clust_5="70.53368" pt_clust_6="14000.00000"></scales>
<clustering>
<clus scale="   35.586">  1  3  2 -1</clus>
<clus scale="   56.833">  1  4  2 -1</clus>
<clus scale="   70.534">  2  5  1 -1</clus>
<clus scale="   35.586">  1  3  2 -1</clus>
</clustering>
</event>
<event>
 6    0  0.1622933E+002  0.1406555E+03  0.7546771E-02  0.1212450E+00
         -1   -1    0    0    0  501 -0.00000000000E+00  0.00000000000E+00  0.10083439552E+04  0.10083439552E+04  0.00000000000E+00 0.  1.
         21   -1    0    0  504  502  0.00000000000E+00 -0.00000000000E+00 -0.53394386522E+02  0.53394386522E+02  0.00000000000E+00 0.  1.
         21    1    1    2  503  502  0.75371426309E+01 -0.41822452317E+02  0.11586155732E+02  0.44047304588E+02  0.00000000000E+00 0. -1.
         21    1    1    2  504  505  0.34267356340E+02  0.16093617387E+03  0.24666200229E+03  0.29650775225E+03  0.00000000000E+00 0.  1.
         21    1    1    2  505  501  0.34598374487E+02 -0.33431718996E+01  0.27657946943E+03  0.27875513847E+03  0.00000000000E+00 0.  1.
         -1    1    1    2    0  503 -0.76402873457E+02 -0.11577054965E+03  0.42012194123E+03  0.44242814641E+03  0.00000000000E+00 0.  1.
<scales pt_clust_3="42.87398" pt_clust_4="140.65554" pt_clust_5="34.75952" pt_clust_6="14000.00000"></scales>
<clustering>
<clus scale="   34.760">  1  5  2 -1</clus>
<clus scale="   42.874">  2  3  1 -1</clus>
<clus scale="  140.656">  2  4  1 -1</clus>
<clus scale="   42.874">  2  3  1 -1</clus>
</clustering>
</event>
<event>
 6    0  0.1622933E+002  0.1267035E+03  0.7546771E-02  0.1232431E+00
         -3   -1    0    0    0  501 -0.00000000000E+00  0.00000000000E+00  0.34262801477E+03  0.34262801477E+03  0.00000000000E+00 0.  1.
         21   -1    0    0  503  502  0.00000000000E+00 -0.00000000000E+00 -0.14653038263E+03  0.14653038263E+03  0.00000000000E+00 0.  1.
         21    1    1    2  503  505  0.51723592413E+02  0.11690134278E+03  0.56094281303E+02  0.13959879065E+03  0.00000000000E+00 0.  1.
         21    1    1    2  504  502  0.58540287030E+02  0.10054574485E+02 -0.42570657829E+02  0.73077497094E+02  0.00000000000E+00 0.  1.
         21    1    1    2  505  501  0.47104750516E+01 -0.45634282688E+02  0.10753086227E+03  0.11690835160E+03  0.00000000000E+00 0.  1.
         -3    1    1    2    0  504 -0.11497435449E+03 -0.81321634576E+02  0.75043146392E+02  0.15957375806E+03  0.00000000000E+00 0.  1.
<scales pt_clust_3="126.70355" pt_clust_4="59.27093" pt_clust_5="45.87675" pt_clust_6="14000.00000"></scales>
<clustering>
<clus scale="   45.877">  1  5  2 -1</clus>
<clus scale="   59.271">  2  4  1 -1</clus>
<clus scale="  126.704">  1  3  2 -1</clus>
<clus scale="   59.271">  2  3  1 -1</clus>
</clustering>
</event>
<event>
 6    0  0.1622933E+002  0.1387428E+03  0.7546771E-02  0.1215031E+00
         21   -1    0    0  501  502  0.00000000000E+00  0.00000000000E+00  0.91987797902E+02  0.91987797902E+02  0.00000000000E+00 0. -1.
          2   -1    0    0  504    0 -0.00000000000E+00 -0.00000000000E+00 -0.23975437257E+04  0.23975437257E+04  0.00000000000E+00 0. -1.
         21    1    1    2  503  502  0.56618936458E+02  0.12788749707E+03  0.25267131248E+02  0.14212439549E+03  0.00000000000E+00 0. -1.
         21    1    1    2  504  505 -0.39632696440E+02  0.51815775404E+01 -0.66580365275E+03  0.66700232637E+03  0.00000000000E+00 0. -1.
         21    1    1    2  505  503  0.77884531009E+02 -0.48531019727E+02 -0.48865230738E+03  0.49719446654E+03  0.00000000000E+00 0.  1.
          2    1    1    2  501    0 -0.94870771027E+02 -0.84538054879E+02 -0.11763670989E+04  0.11832103352E+04  0.00000000000E+00 0. -1.
<scales pt_clust_3="14000.00000" pt_clust_4="39.96998" pt_clust_5="81.54589" pt_clust_6="138.74275"></scales>
<clustering>
<clus scale="   39.970">  2  4  1 -1</clus>
<clus scale="   81.546">  2  5  1 -1</clus>
<clus scale="  138.743">  2  6  1 -1</clus>
<clus scale="  138.743">  1  3  2 -1</clus>
</clustering>
</event>
<event>
 6    0  0.1622933E+002  0.1220486E+03  0.7546771E-02  0.1239755E+00
          1   -1    0    0  503    0 -0.00000000000E+00  0.00000000000E+00  0.13008029766E+03  0.13008029766E+03  0.00000000000E+00 0. -1.
         21   -1    0    0  504  502  0.00000000000E+00 -0.00000000000E+00 -0.42357571294E+03  0.42357571294E+03  0.00000000000E+00 0. -1.
         21    1    1    2  503  505  0.29346336905E+02 -0.19534018928E+02 -0.64136861812E+01  0.35831839970E+02  0.00000000000E+00 0. -1.
         21    1    1    2  504  501 -0.12595352457E+02 -0.97966518146E+02  0.36954304846E+02  0.10545948145E+03  0.00000000000E+00 0. -1.
         21    1    1    2  505  502  0.19210827200E+02  0.12417900318E+03 -0.34708553908E+03  0.36913121265E+03  0.00000000000E+00 0. -1.
          1    1    1    2  501    0 -0.35961811647E+02 -0.66784661038E+01  0.23049505135E+02  0.43233476536E+02  0.00000000000E+00 0. -1.
<scales pt_clust_3="35.25316" pt_clust_4="122.04864" pt_clust_5="14000.00000" pt_clust_6="30.15027"></scales>
<clustering>
<clus scale="   35.253">  1  3  2 -1</clus>
<clus scale="   30.150">  1  6  2 -1</clus>
<clus scale="  122.049">  1  4  2 -1</clus>
<clus scale="  122.049">  2  3  1 -1</clus>
</clustering>
</event>
<event>
 6    0  0.1622933E+002  0.1689881E+03  0.7546771E-02  0.1178907E+00
          2   -1    0    0  503    0 -0.00000000000E+00  0.00000000000E+00  0.40348489425E+03  0.40348489425E+03  0.00000000000E+00 0. -1.
         21   -1    0    0  505  502  0.00000000000E+00 -0.00000000000E+00 -0.38911060082E+03  0.38911060082E+03  0.00000000000E+00 0. -1.
         21    1    1    2  503  502  0.65399210266E+02  0.14765318480E+03  0.30666569233E+02  0.16437444496E+03  0.00000000000E+00 0. -1.
         21    1    1    2  504  501 -0.39008922477E+02  0.39334705342E+02  0.24058326965E+00  0.55398311864E+02  0.00000000000E+00 0. -1.
         21    1    1    2  505  504  0.22785487263E+02 -0.21773776560E+02 -0.26695425670E+03  0.26880820476E+03  0.00000000000E+00 0. -1.
          2    1    1    2  501    0 -0.49175775053E+02 -0.16521411359E+03  0.25042139763E+03  0.30401453348E+03  0.00000000000E+00 0. -1.
<scales pt_clust_3="168.98812" pt_clust_4="48.23102" pt_clust_5="31.51628" pt_clust_6="14000.00000"></scales>
<clustering>
<clus scale="   31.516">  2  5  1 -1</clus>
<clus scale="   48.231">  2  4  1 -1</clus>
<clus scale="  168.988">  2  3  1 -1</clus>
<clus scale="   31.516">  2  3  1 -1</clus>
</clustering>
</event>
<event>
 6    0  0.1622933E+002  0.1172347E+03  0.7546771E-02  0.1247730E+00
          2   -1    0    0  504    0 -0.00000000000E+00  0.00000000000E+00  0.10094575104E+04  0.10094575104E+04  0.00000000000E+00 0.  1.
         21   -1    0    0  503  502  0.00000000000E+00 -0.00000000000E+00 -0.22754879718E+03  0.22754879718E+03  0.00000000000E+00 0. -1.
         21    1    1    2  503  505 -0.68932980835E+02  0.10023617764E+03 -0.19984887473E+03  0.23396286006E+03  0.00000000000E+00 0. -1.
         21    1    1    2  504  502  0.35403819344E+02  0.48085775097E+01  0.13930998458E+03  0.14381872147E+03  0.00000000000E+00 0.  1.
         21    1    1    2  505  501  0.38058492409E+02 -0.62045670370E+02  0.16431493775E+03  0.17971508791E+03  0.00000000000E+00 0. -1.
          2    1    1    2  501    0 -0.45293309174E+01 -0.42999084783E+02  0.67813266561E+03  0.67950963812E+03  0.00000000000E+00 0.  1.
<scales pt_clust_3="117.23473" pt_clust_4="35.72888" pt_clust_5="14000.00000" pt_clust_6="45.56413"></scales>
<clustering>
<clus scale="   35.729">  1  4  2 -1</clus>
<clus scale="   45.564">  1  6  2 -1</clus>
<clus scale="  117.235">  2  3  1 -1</clus>
<clus scale="  117.235">  2  3  1 -1</clus>
</clustering>
</event>
<event>
 6    0  0.1622933E+002  0.1327472E+03  0.7546771E-02  0.1223435E+00
          1   -1    0    0  503    0 -0.00000000000E+00  0.00000000000E+00  0.34828365687E+02  0.34828365687E+02  0.00000000000E+00 0.  1.
         21   -1    0    0  504  502  0.00000000000E+00 -0.00000000000E+00 -0.21743264427E+04  0.21743264427E+04  0.00000000000E+00 0. -1.
         21    1    1    2  503  505  0.11843289287E+03 -0.39682905508E+02 -0.67707515236E+03  0.68849970591E+03  0.00000000000E+00 0. -1.
         21    1    1    2  504  501 -0.11826687793E+03 -0.15423069525E+01 -0.23962695574E+03  0.26722745189E+03  0.00000000000E+00 0.  1.
         21    1    1    2  505  502  0.50207813343E+02 -0.66368836119E+01 -0.11557843816E+04  0.11568934305E+04  0.00000000000E+00 0. -1.
          1    1    1    2  501    0 -0.50373828287E+02  0.47862096072E+02 -0.67011587331E+02  0.96534220116E+02  0.00000000000E+00 0.  1.
<scales pt_clust_3="132.74719" pt_clust_4="14000.00000" pt_clust_5="50.64457" pt_clust_6="66.23817"></scales>
<clustering>
<clus scale="   50.645">  2  5  1 -1</clus>
<clus scale="   66.238">  1  6  2 -1</clus>
<clus scale="  132.747">  2  3  1 -1</clus>
<clus scale="   50.645">  2  3  1 -1</clus>
</clustering>
</event>
<event>
 6    0  0.1622933E+002  0.1239156E+03  0.7546771E-02  0.1236774E+00
         21   -1    0    0  503  502  0.00000000000E+00  0.00000000000E+00  0.23045419490E+02  0.23045419490E+02  0.00000000000E+00 0. -1.
          2   -1    0    0  504    0 -0.00000000000E+00 -0.00000000000E+00 -0.45149063899E+04  0.45149063899E+04  0.00000000000E+00 0. -1.
         21    1    1    2  503  505  0.39452680482E+02  0.23556855921E+02 -0.18374175638E+02  0.49487875166E+02  0.00000000000E+00 0. -1.
         21    1    1    2  504  502 -0.52621692649E+01  0.13962070484E+03 -0.15281126172E+04  0.15344868206E+04  0.00000000000E+00 0. -1.
         21    1    1    2  505  501 -0.27283774745E+02 -0.45618179385E+02 -0.23047724214E+03  0.23652733838E+03  0.00000000000E+00 0. -1.
          2    1    1    2  501    0 -0.69067364713E+01 -0.11755938138E+03 -0.27148969354E+04  0.27174497753E+04  0.00000000000E+00 0. -1.
<scales pt_clust_3="45.95040" pt_clust_4="14000.00000" pt_clust_5="37.84336" pt_clust_6="123.91558"></scales>
<clustering>
<clus scale="   45.950">  1  3  2 -1</clus>
<clus scale="   37.843">  1  5  2 -1</clus>
<clus scale="  123.916">  2  6  1 -1</clus>
<clus scale="   45.950">  1  3  2 -1</clus>
</clustering>
</event>
<event>
 6    0  0.1622933E+002  0.1780922E+03  0.7546771E-02  0.1169662E+00
         21   -1    0    0  504  502  0.00000000000E+00  0.00000000000E+00  0.11084748679E+03  0.11084748679E+03  0.00000000000E+00 0.  1.
          2   -1    0    0  503    0 -0.00000000000E+00 -0.00000000000E+00 -0.13153587032E+04  0.13153587032E+04  0.00000000000E+00 0.  1.
         21    1    1    2  503  502  0.20154319171E+02 -0.29489408354E+02 -0.36188607877E+02  0.50847193889E+02  0.00000000000E+00 0.  1.
         21    1    1    2  504  505 -0.51581716529E+02  0.10487774193E+03  0.27450173684E+02  0.12005634622E+03  0.00000000000E+00 0.  1.
         21    1    1    2  505  501  0.12924726342E+03  0.92025417309E+02 -0.30644277312E+03  0.34508072350E+03  0.00000000000E+00 0.  1.
          2    1    1    2  501    0 -0.97819866061E+02 -0.16741375089E+03 -0.88933000912E+03  0.91022192640E+03  0.00000000000E+00 0.  1.
<scales pt_clust_3="35.71865" pt_clust_4="91.75659" pt_clust_5="178.09225" pt_clust_6="14000.00000"></scales>
<clustering>
<clus scale="   35.719">  1  3  2 -1</clus>
<clus scale="   91.757">  1  4  2 -1</clus>
<clus scale="  178.092">  1  5  2 -1</clus>
<clus scale="   35.719">  1  3  2 -1</clus>
</clustering>
</event>
<event>
 6    0  0.1622933E+002  0.9006900E+02  0.7546771E-02  0.1302685E+00
         21   -1    0    0  503  502  0.00000000000E+00  0.00000000000E+00  0.33968569614E+04  0.33968569614E+04  0.00000000000E+00 0. -1.
         -3   -1    0    0    0  501 -0.00000000000E+00 -0.00000000000E+00 -0.10679747450E+02  0.10679747450E+02  0.00000000000E+00 0.  1.
         21    1    1    2  503  505 -0.47312936360E+02  0.17393904966E+02  0.28242074075E+03  0.28688418688E+03  0.00000000000E+00 0. -1.
         21    1    1    2  504  502 -0.12816599863E+02 -0.87025071133E+02  0.21895092977E+04  0.21912755630E+04  0.00000000000E+00 0. -1.
         21    1    1    2  505  501 -0.29338605941E+02 -0.20162009691E+02  0.30589562426E+03  0.30796005159E+03  0.00000000000E+00 0. -1.
         -3    1    1    2    0  504  0.89468142164E+02  0.89793175859E+02  0.60835155121E+03  0.62141690736E+03  0.00000000000E+00 0.  1.
<scales pt_clust_3="55.57724" pt_clust_4="14000.00000" pt_clust_5="35.59860" pt_clust_6="90.06900"></scales>
<clustering>
<clus scale="   35.599">  2  5  1 -1</clus>
<clus scale="   55.577">  2  3  1 -1</clus>
<clus scale="   90.069">  2  6  1 -1</clus>
<clus scale="   90.069">  1  3  2 -1</clus>
</clustering>
</event>
<event>
 6    0  0.1622933E+002  0.7318754E+02  0.7546771E-02  0.1349577E+00
          2   -1    0    0  504    0 -0.00000000000E+00  0.00000000000E+00  0.67536449817E+03  0.67536449817E+03  0.00000000000E+00 0. -1.
         21   -1    0    0  505  502  0.00000000000E+00 -0.00000000000E+00 -0.10402619703E+03  0.10402619703E+03  0.00000000000E+00 0. -1.
         21    1    1    2  503  501  0.65763312531E+02  0.21298670168E+02  0.11370640585E+03  0.13306988148E+03  0.00000000000E+00 0.  1.
         21    1    1    2  504  502  0.80507166543E+01  0.53963198971E+02  0.19873755526E+03  0.20609089440E+03  0.00000000000E+00 0. -1.
         21    1    1    2  505  503  0.78826907391E+01 -0.71506302499E+02 -0.70565649082E+02  0.10077102233E+03  0.00000000000E+00 0. -1.
          2    1    1    2  501    0 -0.81696719924E+02 -0.37555666407E+01  0.32945998911E+03  0.33945889700E+03  0.00000000000E+00 0. -1.
<scales pt_clust_3="73.18754" pt_clust_4="54.56043" pt_clust_5="70.25622" pt_clust_6="14000.00000"></scales>
<clustering>
<clus scale="   54.560">  1  4  2 -1</clus>
<clus scale="   70.256">  2  5  1 -1</clus>
<clus scale="   73.188">  2  3  1 -1</clus>
<clus scale="   70.256">  2  3  1 -1</clus>
</clustering>
</event>
<event>
 6    0  0.1622933E+002  0.8330996E+02  0.7546771E-02  0.1319912E+00
         21   -1    0    0  504  502  0.00000000000E+00  0.00000000000E+00  0.37216137034E+03  0.37216137034E+03  0.00000000000E+00 0.  1.
          2   -1    0    0  505    0 -0.00000000000E+00 -0.00000000000E+00 -0.54402673345E+03  0.54402673345E+03  0.00000000000E+00 0. -1.
         21    1    1    2  503  502  0.31880440178E+02  0.42166032393E+02  0.33402950116E+03  0.33818640481E+03  0.00000000000E+00 0.  1.
         21    1    1    2  504  501  0.55417529330E+02  0.19835557042E+02 -0.69261917344E+02  0.90894252153E+02  0.00000000000E+00 0.  1.
         21    1    1    2  505  503  0.33794197893E+02 -0.26750725478E+02 -0.12878636755E+02  0.44983423719E+02  0.00000000000E+00 0.  1.
          2    1    1    2  501    0 -0.12109216740E+03 -0.35250863957E+02 -0.42375431017E+03  0.44212402310E+03  0.00000000000E+00 0. -1.
<scales pt_clust_3="52.85791" pt_clust_4="14000.00000" pt_clust_5="43.10045" pt_clust_6="83.30996"></scales>
<clustering>
<clus scale="   43.100">  2  5  1 -1</clus>
<clus scale="   52.858">  1  3  2 -1</clus>
<clus scale="   83.310">  2  6  1 -1</clus>
<clus scale="   52.858">  1  3  2 -1</clus>
</clustering>
</event>
<event>
 6    0  0.1622933E+002  0.1406988E+03  0.7546771E-02  0.1212392E+00
          2   -1    0    0  505    0 -0.00000000000E+00  0.00000000000E+00  0.36300979807E+04  0.36300979807E+04  0.00000000000E+00 0. -1.
         21   -1    0    0  501  502  0.00000000000E+00 -0.00000000000E+00 -0.15376129827E+02  0.15376129827E+02  0.00000000000E+00 0.  1.
         21    1    1    2  503  502 -0.21185045790E+02  0.21787734161E+02  0.18515681324E+03  0.18763410408E+03  0.00000000000E+00 0.  1.
         21    1    1    2  504  503 -0.13052459180E+03 -0.48438758873E+02  0.78065596330E+03  0.79297333843E+03  0.00000000000E+00 0.  1.
         21    1    1    2  505  504  0.10626723023E+03 -0.10609779778E+03  0.12755842090E+04  0.12843926740E+04  0.00000000000E+00 0. -1.
          2    1    1    2  501    0  0.45442407363E+02  0.13274882250E+03  0.13733248654E+04  0.13804739940E+04  0.00000000000E+00 0. -1.
<scales pt_clust_3="30.38933" pt_clust_4="14000.00000" pt_clust_5="140.69876" pt_clust_6="127.45952"></scales>
<clustering>
<clus scale="   30.389">  2  3  1 -1</clus>
<clus scale="  140.699">  1  5  2 -1</clus>
<clus scale="  127.460">  1  6  2 -1</clus>
<clus scale="   30.389">  2  3  1 -1</clus>
</clustering>
</event>
<event>
 6    0  0.1622933E+002  0.7414114E+02  0.7546771E-02  0.1346551E+00
         21   -1    0    0  503  502  0.00000000000E+00  0.00000000000E+00  0.19272653571E+03  0.19272653571E+03  0.00000000000E+00 0. -1.
         -2   -1    0    0    0  501 -0.00000000000E+00 -0.00000000000E+00 -0.39547363809E+03  0.39547363809E+03  0.00000000000E+00 0. -1.
         21    1    1    2  503  501  0.52219724435E+02 -0.42275588331E+02 -0.73996579866E+02  0.99948080625E+02  0.00000000000E+00 0. -1.
         21    1    1    2  504  505  0.44495977160E+02  0.33647108938E+02 -0.53033492955E+02  0.76971236824E+02  0.00000000000E+00 0. -1.
         21    1    1    2  505  502 -0.15575470418E+02  0.40627852062E+02  0.15691450351E+03  0.16283543550E+03  0.00000000000E+00 0. -1.
         -2    1    1    2    0  504 -0.81140231177E+02 -0.31999372669E+02 -0.23263153307E+03  0.24844542085E+03  0.00000000000E+00 0. -1.
<scales pt_clust_3="53.01094" pt_clust_4="74.14114" pt_clust_5="43.51112" pt_clust_6="14000.00000"></scales>
<clustering>
<clus scale="   43.511">  1  5  2 -1</clus>
<clus scale="   53.011">  1  3  2 -1</clus>
<clus scale="   74.141">  1  4  2 -1</clus>
<clus scale="   43.511">  1  3  2 -1</clus>
</clustering>
</event>
<event>
 6    0  0.1622933E+002  0.1722150E+03  0.7546771E-02  0.1175557E+00
         21   -1    0    0  504  502  0.00000000000E+00  0.00000000000E+00  0.29303290473E+03  0.29303290473E+03  0.00000000000E+00 0. -1.
          2   -1    0    0  505    0 -0.00000000000E+00 -0.00000000000E+00 -0.14691884898E+04  0.14691884898E+04  0.00000000000E+00 0. -1.
         21    1    1    2  503  501 -0.34832229145E+02  0.31650252363E+01 -0.17290372178E+03  0.17640577819E+03  0.00000000000E+00 0. -1.
         21    1    1    2  504  503 -0.12833328644E+03 -0.68854130155E+02 -0.31642219632E+03  0.34832934124E+03  0.00000000000E+00 0. -1.
         21    1    1    2  505  502  0.10927254489E+03  0.11264252976E+03  0.25149495252E+03  0.29644314753E+03  0.00000000000E+00 0. -1.
          2    1    1    2  501    0  0.53892970697E+02 -0.46953424840E+02 -0.93832461945E+03  0.94104312752E+03  0.00000000000E+00 0. -1.
<scales pt_clust_3="34.54484" pt_clust_4="34.54484" pt_clust_5="157.12724" pt_clust_6="71.47780"></scales>
<clustering>
<clus scale="   34.545">  3  4 -1 -1</clus>
<clus scale="   71.478">  2  6  1 -1</clus>
<clus scale="  157.127">  1  5  2 -1</clus>
<clus scale="  157.127">  1  3  2 -1</clus>
</clustering>
</event>
<event>
 6    0  0.1622933E+002  0.2180438E+03  0.7546771E-02  0.1135350E+00
         21   -1    0    0  505  502  0.00000000000E+00  0.00000000000E+00  0.62445962004E+02  0.62445962004E+02  0.00000000000E+00 0.  1.
          1   -1    0    0  504    0 -0.00000000000E+00 -0.00000000000E+00 -0.10538086797E+04  0.10538086797E+04  0.00000000000E+00 0. -1.
         21    1    1    2  503  502  0.18890751584E+03  0.85414960940E+02 -0.23555496370E+03  0.31379596240E+03  0.00000000000E+00 0.  1.
         21    1    1    2  504  503 -0.10706222494E+02  0.41588468886E+02 -0.12097815817E+03  0.12837421353E+03  0.00000000000E+00 0.  1.
         21    1    1    2  505  501 -0.13002863458E+03 -0.57756884374E+02 -0.40469625916E+03  0.42897828113E+03  0.00000000000E+00 0. -1.
          1    1    1    2  501    0 -0.48172658762E+02 -0.69246545452E+02 -0.23013333671E+03  0.24510618469E+03  0.00000000000E+00 0. -1.
<scales pt_clust_3="209.87480" pt_clust_4="42.94443" pt_clust_5="43.96735" pt_clust_6="43.96735"></scales>
<clustering>
<clus scale="   42.944">  2  4  1 -1</clus>
<clus scale="   43.967">  5  6 -1 -1</clus>
<clus scale="  209.875">  1  3  2 -1</clus>
<clus scale="  209.875">  1  3  2 -1</clus>
</clustering>
</event>
<event>
 6    0  0.1622933E+002  0.1151966E+03  0.7546771E-02  0.1251238E+00
          1   -1    0    0  504    0 -0.00000000000E+00  0.00000000000E+00  0.33945879027E+03  0.33945879027E+03  0.00000000000E+00 0.  1.
         21   -1    0    0  505  502  0.00000000000E+00 -0.00000000000E+00 -0.18749045709E+03  0.18749045709E+03  0.00000000000E+00 0.  1.
         21    1    1    2  503  502  0.92560827362E+02  0.30089746024E+02 -0.14541252115E+03  0.17497914414E+03  0.00000000000E+00 0.  1.
         21    1    1    2  504  503  0.35932868763E+02  0.15232653256E+02  0.47885129788E+02  0.61775322238E+02  0.00000000000E+00 0.  1.
         21    1    1    2  505  501 -0.23545648396E+02 -0.23229694440E+02  0.25216298421E+02  0.41591801695E+02  0.00000000000E+00 0. -1.
          1    1    1    2  501    0 -0.10494804773E+03 -0.22092704840E+02  0.22427942612E+03  0.24860297929E+03  0.00000000000E+00 0.  1.
<scales pt_clust_3="99.34846" pt_clust_4="39.02826" pt_clust_5="32.38244" pt_clust_6="32.38244"></scales>
<clustering>
<clus scale="   32.382">  5  6 -1 -1</clus>
<clus scale="   39.028">  1  4  2 -1</clus>
<clus scale="   99.348">  2  3  1 -1</clus>
<clus scale="   99.348">  2  3  1 -1</clus>
</clustering>
</event>
<event>
 6    0  0.1622933E+002  0.8611623E+02  0.7546771E-02  0.1312539E+00
         -1   -1    0    0    0  501 -0.00000000000E+00  0.00000000000E+00  0.28735237268E+03  0.28735237268E+03  0.00000000000E+00 0. -1.
         21   -1    0    0  504  502  0.00000000000E+00 -0.00000000000E+00 -0.67092972669E+03  0.67092972669E+03  0.00000000000E+00 0. -1.
         21    1    1    2  503  502  0.86525684443E+02  0.21434832548E+01 -0.63464873399E+03  0.64052346104E+03  0.00000000000E+00 0. -1.
         21    1    1    2  504  505  0.17885097415E+02 -0.47672011165E+02  0.76752305248E+02  0.92105448910E+02  0.00000000000E+00 0.  1.
         21    1    1    2  505  501 -0.43236603040E+02  0.12248275509E+02  0.84064976564E+01  0.45717538191E+02  0.00000000000E+00 0. -1.
         -1    1    1    2    0  503 -0.61174178818E+02  0.33280252401E+02  0.16591257707E+03  0.17993565123E+03  0.00000000000E+00 0. -1.
<scales pt_clust_3="14000.00000" pt_clust_4="43.86932" pt_clust_5="44.93800" pt_clust_6="86.11623"></scales>
<clustering>
<clus scale="   44.938">  1  5  2 -1</clus>
<clus scale="   43.869">  1  4  2 -1</clus>
<clus scale="   86.116">  1  6  2 -1</clus>
<clus scale="   86.116">  2  3  1 -1</clus>
</clustering>
</event>
<event>
 6    0  0.1622933E+002  0.1337263E+03  0.7546771E-02  0.1222029E+00
         -1   -1    0    0    0  501 -0.00000000000E+00  0.00000000000E+00  0.33952409972E+03  0.33952409972E+03  0.00000000000E+00 0.  1.
         21   -1    0    0  505  502  0.00000000000E+00 -0.00000000000E+00 -0.94274071243E+03  0.94274071243E+03  0.00000000000E+00 0.  1.
         21    1    1    2  503  502 -0.23493203323E+02 -0.51336402203E+02  0.14213699847E+03  0.15293882152E+03  0.00000000000E+00 0. -1.
         21    1    1    2  504  501  0.73748646189E+02  0.13187712991E+03 -0.97168765411E+01  0.15140957003E+03  0.00000000000E+00 0.  1.
         21    1    1    2  505  504  0.10123951149E+02 -0.44172723997E+02 -0.84586518779E+03  0.84707829618E+03  0.00000000000E+00 0.  1.
         -1    1    1    2    0  503 -0.60379394015E+02 -0.36368003707E+02  0.11022845316E+03  0.13083812442E+03  0.00000000000E+00 0.  1.
<scales pt_clust_3="41.15238" pt_clust_4="125.57216" pt_clust_5="45.31803" pt_clust_6="41.15238"></scales>
<clustering>
<clus scale="   41.152">  3  6 -1 -1</clus>
<clus scale="   45.318">  2  5  1 -1</clus>
<clus scale="  125.572">  2  4  1 -1</clus>
<clus scale="   45.318">  2  3  1 -1</clus>
</clustering>
</event>
<event>
 6    0  0.1622933E+002  0.7692107E+02  0.7546771E-02  0.1338023E+00
          2   -1    0    0  503    0 -0.00000000000E+00  0.00000000000E+00  0.90668759778E+03  0.90668759778E+03  0.00000000000E+00 0. -1.
         21   -1    0    0  505  502  0.00000000000E+00 -0.00000000000E+00 -0.42068798711E+02  0.42068798711E+02  0.00000000000E+00 0. -1.
         21    1    1    2  503  504  0.63559197964E+02 -0.12879827555E+02  0.29060141784E+03  0.29774963586E+03  0.00000000000E+00 0.  1.
         21    1    1    2  504  502  0.63426980140E+02  0.19624934922E+02  0.75506382069E+01  0.66821643333E+02  0.00000000000E+00 0. -1.
         21    1    1    2  505  501 -0.35919747393E+02 -0.15808209611E+02  0.79097629208E+02  0.88298146584E+02  0.00000000000E+00 0.  1.
          2    1    1    2  501    0 -0.91066430710E+02  0.90631022428E+01  0.48736911381E+03  0.49588697071E+03  0.00000000000E+00 0. -1.
<scales pt_clust_3="14000.00000" pt_clust_4="35.73332" pt_clust_5="39.24446" pt_clust_6="76.92107"></scales>
<clustering>
<clus scale="   39.244">  2  5  1 -1</clus>
<clus scale="   35.733">  2  4  1 -1</clus>
<clus scale="   76.921">  2  6  1 -1</clus>
<clus scale="   39.244">  2  3  1 -1</clus>
</clustering>
</event>
<event>
 6    0  0.1622933E+002  0.2755564E+03  0.7546771E-02  0.1098141E+00
         21   -1    0    0  501  502  0.00000000000E+00  0.00000000000E+00  0.11498869591E+03  0.11498869591E+03  0.00000000000E+00 0.  1.
          1   -1    0    0  503    0 -0.00000000000E+00 -0.00000000000E+00 -0.14446388002E+04  0.14446388002E+04  0.00000000000E+00 0.  1.
         21    1    1    2  503  504 -0.20284578031E+02  0.80406198660E+02 -0.20108005029E+03  0.21750817804E+03  0.00000000000E+00 0. -1.
         21    1    1    2  504  505  0.25013578309E+03 -0.26489553461E+02 -0.14201036066E+03  0.28885385398E+03  0.00000000000E+00 0.  1.
         21    1    1    2  505  502  0.40323393896E+02  0.46818464154E+02 -0.74924117186E+02  0.97116260312E+02  0.00000000000E+00 0.  1.
          1    1    1    2  501    0 -0.27017459896E+03 -0.10073510935E+03 -0.91163557615E+03  0.95614920378E+03  0.00000000000E+00 0.  1.
<scales pt_clust_3="85.82781" pt_clust_4="275.55643" pt_clust_5="61.78952" pt_clust_6="14000.00000"></scales>
<clustering>
<clus scale="   61.790">  1  5  2 -1</clus>
<clus scale="   85.828">  2  3  1 -1</clus>
<clus scale="  275.556">  1  4  2 -1</clus>
<clus scale="   61.790">  1  3  2 -1</clus>
</clustering>
</event>
<event>
 6    0  0.1622933E+002  0.7842692E+02  0.7546771E-02  0.1333576E+00
          2   -1    0    0  503    0 -0.00000000000E+00  0.00000000000E+00  0.65069045855E+03  0.65069045855E+03  0.00000000000E+00 0.  1.
         21   -1    0    0  504  502  0.00000000000E+00 -0.00000000000E+00 -0.17562826726E+03  0.17562826726E+03  0.00000000000E+00 0. -1.
         21    1    1    2  503  505  0.99494981339E+01  0.30781413598E+02  0.22165172879E+03  0.22399994824E+03  0.00000000000E+00 0.  1.
         21    1    1    2  504  501  0.59844072009E+02  0.50247054663E+02  0.15787933528E+02  0.79720375702E+02  0.00000000000E+00 0. -1.
         21    1    1    2  505  502  0.20226721154E+02 -0.66967714550E+02 -0.12795961833E+03  0.14583366882E+03  0.00000000000E+00 0. -1.
          2    1    1    2  501    0 -0.90020291297E+02 -0.14060753710E+02  0.36558214730E+03  0.37676473304E+03  0.00000000000E+00 0.  1.
<scales pt_clust_3="32.34947" pt_clust_4="78.42692" pt_clust_5="69.40133" pt_clust_6="14000.00000"></scales>
<clustering>
<clus scale="   32.349">  1  3  2 -1</clus>
<clus scale="   69.401">  2  5  1 -1</clus>
<clus scale="   78.427">  2  4  1 -1</clus>
<clus scale="   69.401">  2  3  1 -1</clus>
</clustering>
</event>
<event>
 6    0  0.1622933E+002  0.8811572E+02  0.7546771E-02  0.1307480E+00
          2   -1    0    0  503    0 -0.00000000000E+00  0.00000000000E+00  0.49261103061E+04  0.49261103061E+04  0.00000000000E+00 0.  1.
         21   -1    0    0  505  502  0.00000000000E+00 -0.00000000000E+00 -0.51727304879E+03  0.51727304879E+03  0.00000000000E+00 0.  1.
         21    1    1    2  503  504 -0.57641601346E+02 -0.45228749912E+02  0.65326151593E+03  0.65735743871E+03  0.00000000000E+00 0.  1.
         21    1    1    2  504  502  0.60541000232E+02 -0.30692154297E+02 -0.50065948815E+03  0.50523968977E+03  0.00000000000E+00 0.  1.
         21    1    1    2  505  501  0.65235084787E+02  0.12892474438E+03  0.43095451701E+03  0.45453162896E+03  0.00000000000E+00 0.  1.
          2    1    1    2  501    0 -0.68134483673E+02 -0.53003840170E+02  0.38252807125E+04  0.38262545974E+04  0.00000000000E+00 0.  1.
<scales pt_clust_3="69.72398" pt_clust_4="67.87651" pt_clust_5="14000.00000" pt_clust_6="88.11572"></scales>
<clustering>
<clus scale="   67.877">  2  4  1 -1</clus>
<clus scale="   69.724">  2  3  1 -1</clus>
<clus scale="   88.116">  1  6  2 -1</clus>
<clus scale="   67.877">  2  3  1 -1</clus>
</clustering>
</event>
<event>
 6    0  0.1622933E+002  0.7832867E+02  0.7546771E-02  0.1333862E+00
         21   -1    0    0  504  502  0.00000000000E+00  0.00000000000E+00  0.80622355378E+03  0.80622355378E+03  0.00000000000E+00 0. -1.
          1   -1    0    0  503    0 -0.00000000000E+00 -0.00000000000E+00 -0.31735513538E+04  0.31735513538E+04  0.00000000000E+00 0.  1.
         21    1    1    2  503  502 -0.46469974801E+02  0.35514263975E+02 -0.74130175504E+03  0.74360541521E+03  0.00000000000E+00 0.  1.
         21    1    1    2  504  505  0.35420441036E+02  0.28400035433E+02  0.80081268194E+03  0.80209857325E+03  0.00000000000E+00 0. -1.
         21    1    1    2  505  501 -0.46934209099E+02  0.16911141013E+02 -0.24828506831E+03  0.25324747149E+03  0.00000000000E+00 0.  1.
          1    1    1    2  501    0  0.57983742865E+02 -0.80825440421E+02 -0.21785536586E+04  0.21808234477E+04  0.00000000000E+00 0.  1.
<scales pt_clust_3="78.32867" pt_clust_4="45.40011" pt_clust_5="42.62183" pt_clust_6="14000.00000"></scales>
<clustering>
<clus scale="   45.400">  1  4  2 -1</clus>
<clus scale="   42.622">  1  5  2 -1</clus>
<clus scale="   78.329">  1  3  2 -1</clus>
<clus scale="   45.400">  1  3  2 -1</clus>
</clustering>
</event>
<event>
 6    0  0.1622933E+002  0.7144486E+02  0.7546771E-02  0.1355248E+00
         -2   -1    0    0    0  501 -0.00000000000E+00  0.00000000000E+00  0.88572463263E+02  0.88572463263E+02  0.00000000000E+00 0. -1.
         21   -1    0    0  504  502  0.00000000000E+00 -0.00000000000E+00 -0.76128533702E+03  0.76128533702E+03  0.00000000000E+00 0.  1.
         21    1    1    2  503  501 -0.55660918602E+02  0.28571810091E+02 -0.49671919149E+02  0.79886079785E+02  0.00000000000E+00 0.  1.
         21    1    1    2  504  503  0.15078781017E+02  0.30634693077E+02 -0.57214854097E+02  0.66628774461E+02  0.00000000000E+00 0.  1.
         21    1    1    2  505  502 -0.12358872913E+02  0.42872011163E+02 -0.58505680235E+03  0.58675566725E+03  0.00000000000E+00 0.  1.
         -2    1    1    2    0  505  0.52941010498E+02 -0.10207851433E+03  0.19230701837E+02  0.11658727878E+03  0.00000000000E+00 0. -1.
<scales pt_clust_3="62.69893" pt_clust_4="34.14461" pt_clust_5="14000.00000" pt_clust_6="71.44486"></scales>
<clustering>
<clus scale="   34.145">  2  4  1 -1</clus>
<clus scale="   62.699">  1  3  2 -1</clus>
<clus scale="   71.445">  1  6  2 -1</clus>
<clus scale="   34.145">  2  3  1 -1</clus>
</clustering>
</event>
<event>
 6    0  0.1622933E+002  0.1717298E+03  0.7546771E-02  0.1176056E+00
         -2   -1    0    0    0  501 -0.00000000000E+00  0.00000000000E+00  0.11711002020E+04  0.11711002020E+04  0.00000000000E+00 0.  1.
         21   -1    0    0  505  502  0.00000000000E+00 -0.00000000000E+00 -0.46305138896E+02  0.46305138896E+02  0.00000000000E+00 0.  1.
         21    1    1    2  503  501  0.79124896406E+02 -0.12875454475E+03  0.28442328265E+03  0.32207931591E+03  0.00000000000E+00 0.  1.
         21    1    1    2  504  502 -0.50828796972E+02  0.35797980547E+02  0.44859369791E+03  0.45288118510E+03  0.00000000000E+00 0. -1.
         21    1    1    2  505  503  0.47938742681E+02  0.18567510346E+02  0.19097392966E+02  0.54841461582E+02  0.00000000000E+00 0.  1.
         -2    1    1    2    0  504 -0.76234842115E+02  0.74389053856E+02  0.37268068954E+03  0.38760337827E+03  0.00000000000E+00 0.  1.
<scales pt_clust_3="160.79424" pt_clust_4="46.06967" pt_clust_5="51.40890" pt_clust_6="46.06967"></scales>
<clustering>
<clus scale="   46.070">  4  6 -1 -1</clus>
<clus scale="   51.409">  2  5  1 -1</clus>
<clus scale="  160.794">  2  3  1 -1</clus>
<clus scale="   51.409">  2  3  1 -1</clus>
</clustering>
</event>
<event>
 6    0  0.1622933E+002  0.1794881E+03  0.7546771E-02  0.1168299E+00
         21   -1    0    0  505  502  0.00000000000E+00  0.00000000000E+00  0.55431360067E+02  0.55431360067E+02  0.00000000000E+00 0. -1.
          2   -1    0    0  503    0 -0.00000000000E+00 -0.00000000000E+00 -0.37118346087E+04  0.37118346087E+04  0.00000000000E+00 0.  1.
         21    1    1    2  503  502  0.23354446287E+02  0.53107233354E+02  0.13817266005E+02  0.59638286660E+02  0.00000000000E+00 0. -1.
         21    1    1    2  504  501  0.17718989291E+03 -0.23586101198E+02 -0.67834286556E+03  0.70149954068E+03  0.00000000000E+00 0.  1.
         21    1    1    2  505  504 -0.24594078829E+02  0.18833478706E+02 -0.51531507279E+02  0.60125409571E+02  0.00000000000E+00 0. -1.
          2    1    1    2  501    0 -0.17595026037E+03 -0.48354610862E+02 -0.29403461418E+04  0.29460027318E+04  0.00000000000E+00 0.  1.
<scales pt_clust_3="66.87701" pt_clust_4="179.48809" pt_clust_5="30.97690" pt_clust_6="14000.00000"></scales>
<clustering>
<clus scale="   30.977">  1  5  2 -1</clus>
<clus scale="   66.877">  1  3  2 -1</clus>
<clus scale="  179.488">  1  4  2 -1</clus>
<clus scale="   30.977">  1  3  2 -1</clus>
</clustering>
</event>
<event>
 6    0  0.1622933E+002  0.1244589E+03  0.7546771E-02  0.1235917E+00
         21   -1    0    0  504  502  0.00000000000E+00  0.00000000000E+00  0.17209520858E+03  0.17209520858E+03  0.00000000000E+00 0. -1.
         -2   -1    0    0    0  501 -0.00000000000E+00 -0.00000000000E+00 -0.58565564844E+03  0.58565564844E+03  0.00000000000E+00 0. -1.
         21    1    1    2  503  505 -0.36500999948E+02 -0.47689052566E+02 -0.19175920376E+03  0.20094317843E+03  0.00000000000E+00 0. -1.
         21    1    1    2  504  501  0.17090810183E+02  0.96901619713E+02  0.13767016644E+03  0.16921907228E+03  0.00000000000E+00 0. -1.
         21    1    1    2  505  502  0.35425303295E+02  0.95330334874E+01 -0.18244911504E+02  0.40972034814E+02  0.00000000000E+00 0. -1.
         -2    1    1    2    0  503 -0.16015113530E+02 -0.58745600635E+02 -0.34122649103E+03  0.34661657150E+03  0.00000000000E+00 0. -1.
<scales pt_clust_3="40.30504" pt_clust_4="117.59402" pt_clust_5="36.68557" pt_clust_6="40.30504"></scales>
<clustering>
<clus scale="   36.686">  1  5  2 -1</clus>
<clus scale="   40.305">  3  6 -1 -1</clus>
<clus scale="  117.594">  1  4  2 -1</clus>
<clus scale="   36.686">  1  3  2 -1</clus>
</clustering>
</event>
<event>
 6    0  0.1622933E+002  0.1534878E+03  0.7546771E-02  0.1196252E+00
          2   -1    0    0  505    0 -0.00000000000E+00  0.00000000000E+00  0.27432157057E+04  0.27432157057E+04  0.00000000000E+00 0. -1.
         21   -1    0    0  501  502  0.00000000000E+00 -0.00000000000E+00 -0.32786339171E+02  0.32786339171E+02  0.00000000000E+00 0.  1.
         21    1    1    2  503  504  0.12765808900E+03 -0.60933296519E+02  0.42707406066E+03  0.44989077297E+03  0.00000000000E+00 0.  1.
         21    1    1    2  504  502  0.33487778412E+02  0.35408519320E+01  0.33374676211E+00  0.33676109073E+02  0.00000000000E+00 0.  1.
         21    1    1    2  505  503 -0.29656726241E+02 -0.67371668358E+01  0.10975012901E+04  0.10979225804E+04  0.00000000000E+00 0. -1.
          2    1    1    2  501    0 -0.13148914117E+03  0.64129611423E+02  0.11855202690E+04  0.11945125824E+04  0.00000000000E+00 0. -1.
<scales pt_clust_3="153.48776" pt_clust_4="33.36238" pt_clust_5="30.41235" pt_clust_6="14000.00000"></scales>
<clustering>
<clus scale="   30.412">  1  5  2 -1</clus>
<clus scale="   33.362">  2  4  1 -1</clus>
<clus scale="  153.488">  2  3  1 -1</clus>
<clus scale="   33.362">  2  3  1 -1</clus>
</clustering>
</event>
<event>
 6    0  0.1622933E+002  0.1247395E+03  0.7546771E-02  0.1235477E+00
         21   -1    0    0  501  502  0.00000000000E+00  0.00000000000E+00  0.14641118670E+03  0.14641118670E+03  0.00000000000E+00 0. -1.
          1   -1    0    0  503    0 -0.00000000000E+00 -0.00000000000E+00 -0.31935428503E+03  0.31935428503E+03  0.00000000000E+00 0. -1.
         21    1    1    2  503  504 -0.57154125128E+02  0.81574088474E+01 -0.26403571346E+02  0.63484532904E+02  0.00000000000E+00 0.  1.
         21    1    1    2  504  505  0.14349410782E+03 -0.36495892271E+02  0.44187263520E+02  0.15451544709E+03  0.00000000000E+00 0. -1.
         21    1    1    2  505  502 -0.42460460037E+01  0.46547817078E+02 -0.91018725016E+01  0.47619032586E+02  0.00000000000E+00 0.  1.
          1    1    1    2  501    0 -0.82093936684E+02 -0.18209333654E+02 -0.18162491801E+03  0.20014645916E+03  0.00000000000E+00 0. -1.
<scales pt_clust_3="59.67489" pt_clust_4="124.73955" pt_clust_5="46.74108" pt_clust_6="14000.00000"></scales>
<clustering>
<clus scale="   46.741">  1  5  2 -1</clus>
<clus scale="   59.675">  2  3  1 -1</clus>
<clus scale="  124.740">  1  4  2 -1</clus>
<clus scale="   46.741">  1  3  2 -1</clus>
</clustering>
</event>
<event>
 6    0  0.1622933E+002  0.1389898E+03  0.7546771E-02  0.1214695E+00
          2   -1    0    0  504    0 -0.00000000000E+00  0.00000000000E+00  0.31963245354E+03  0.31963245354E+03  0.00000000000E+00 0. -1.
         21   -1    0    0  505  502  0.00000000000E+00 -0.00000000000E+00 -0.75556926277E+02  0.75556926277E+02  0.00000000000E+00 0. -1.
         21    1    1    2  503  501 -0.17710141017E+01 -0.78085074308E+02  0.80983231023E+02  0.11251088404E+03  0.00000000000E+00 0. -1.
         21    1    1    2  504  502  0.38822644334E+02  0.73151761496E+01  0.43456219119E+02  0.58729485740E+02  0.00000000000E+00 0. -1.
         21    1    1    2  505  503  0.84000751530E+01 -0.47819301939E+02 -0.13135144286E+01  0.48569251803E+02  0.00000000000E+00 0. -1.
          2    1    1    2  501    0 -0.45451705385E+02  0.11858920010E+03  0.12094959155E+03  0.17537975823E+03  0.00000000000E+00 0. -1.
<scales pt_clust_3="48.54500" pt_clust_4="39.50582" pt_clust_5="48.54500" pt_clust_6="124.95792"></scales>
<clustering>
<clus scale="   39.506">  1  4  2 -1</clus>
<clus scale="   48.545">  3  5 -1 -1</clus>
<clus scale="  124.958">  1  6  2 -1</clus>
<clus scale="  138.990">  2  3  1 -1</clus>
</clustering>
</event>
<event>
 6    0  0.1622933E+002  0.1358577E+03  0.7546771E-02  0.1219014E+00
         21   -1    0    0  503  502  0.00000000000E+00  0.00000000000E+00  0.47705182621E+03  0.47705182621E+03  0.00000000000E+00 0.  1.
          2   -1    0    0  505    0 -0.00000000000E+00 -0.00000000000E+00 -0.29298691258E+04  0.29298691258E+04  0.00000000000E+00 0. -1.
         21    1    1    2  503  504 -0.32090343226E+02 -0.91663194354E+02  0.45678048408E+03  0.46699073006E+03  0.00000000000E+00 0.  1.
         21    1    1    2  504  501 -0.11466625119E+03 -0.28321080463E+02 -0.54229999745E+03  0.55501326109E+03  0.00000000000E+00 0. -1.
         21    1    1    2  505  502  0.66025096539E+02  0.47459782098E+01 -0.16018229548E+03  0.17332110508E+03  0.00000000000E+00 0. -1.
          2    1    1    2  501    0  0.80731497874E+02  0.11523829661E+03 -0.22071154908E+04  0.22115958558E+04  0.00000000000E+00 0. -1.
<scales pt_clust_3="97.06961" pt_clust_4="14000.00000" pt_clust_5="66.19545" pt_clust_6="135.85767"></scales>
<clustering>
<clus scale="   66.195">  2  5  1 -1</clus>
<clus scale="   97.070">  1  3  2 -1</clus>
<clus scale="  135.858">  2  6  1 -1</clus>
<clus scale="   97.070">  1  3  2 -1</clus>
</clustering>
</event>
<event>
 6    0  0.1622933E+002  0.1665206E+03  0.7546771E-02  0.1181526E+00
          1   -1    0    0  503    0 -0.00000000000E+00  0.00000000000E+00  0.26487089159E+04  0.26487089159E+04  0.00000000000E+00 0.  1.
         21   -1    0    0  505  502  0.00000000000E+00 -0.00000000000E+00 -0.63842109554E+02  0.63842109554E+02  0.00000000000E+00 0. -1.
         21    1    1    2  503  504  0.36569790008E+02 -0.29354276772E+02  0.56308736097E+03  0.56503663527E+03  0.00000000000E+00 0.  1.
         21    1    1    2  504  502  0.26092309546E+02 -0.15411245781E+03  0.47947577384E+02  0.16349442941E+03  0.00000000000E+00 0. -1.
         21    1    1    2  505  501 -0.35108275065E+02  0.36812941870E+02  0.43231533245E+03  0.43529797879E+03  0.00000000000E+00 0. -1.
          1    1    1    2  501    0 -0.27553824489E+02  0.14665379271E+03  0.15415165355E+04  0.15487219820E+04  0.00000000000E+00 0.  1.
<scales pt_clust_3="46.89374" pt_clust_4="158.09093" pt_clust_5="30.54267" pt_clust_6="30.54267"></scales>
<clustering>
<clus scale="   30.543">  5  6 -1 -1</clus>
<clus scale="   46.894">  1  3  2 -1</clus>
<clus scale="  158.091">  2  4  1 -1</clus>
<clus scale="  158.091">  2  3  1 -1</clus>
</clustering>
</event>
<event>
 6    0  0.1622933E+002  0.1953546E+03  0.7546771E-02  0.1153719E+00
          2   -1    0    0  503    0 -0.00000000000E+00  0.00000000000E+00  0.14633861863E+04  0.14633861863E+04  0.00000000000E+00 0. -1.
         21   -1    0    0  501  502  0.00000000000E+00 -0.00000000000E+00 -0.14856702106E+03  0.14856702106E+03  0.00000000000E+00 0.  1.
         21    1    1    2  503  504 -0.98527552173E+02 -0.65938744705E+02  0.27450163377E+03  0.29900960441E+03  0.00000000000E+00 0. -1.
         21    1    1    2  504  505 -0.36954338051E+02  0.23437755203E+03  0.26500958942E+03  0.35570850774E+03  0.00000000000E+00 0.  1.
         21    1    1    2  505  502 -0.98693062130E+01 -0.50983775464E+02 -0.72441871311E+02  0.89132335798E+02  0.00000000000E+00 0.  1.
          2    1    1    2  501    0  0.14535119644E+03 -0.11745503186E+03  0.84774981334E+03  0.86810275938E+03  0.00000000000E+00 0. -1.
<scales pt_clust_3="125.34317" pt_clust_4="14000.00000" pt_clust_5="51.93023" pt_clust_6="195.35459"></scales>
<clustering>
<clus scale="   51.930">  2  5  1 -1</clus>
<clus scale="  125.343">  1  3  2 -1</clus>
<clus scale="  195.355">  1  6  2 -1</clus>
<clus scale="   51.930">  2  3  1 -1</clus>
</clustering>
</event>
<event>
 6    0  0.1622933E+002  0.7638388E+02  0.7546771E-02  0.1339638E+00
         21   -1    0    0  503  502  0.00000000000E+00  0.00000000000E+00  0.32317642443E+02  0.32317642443E+02  0.00000000000E+00 0. -1.
          2   -1    0    0  504    0 -0.00000000000E+00 -0.00000000000E+00 -0.38649823070E+04  0.38649823070E+04  0.00000000000E+00 0.  1.
         21    1    1    2  503  501 -0.60678849963E+02 -0.35362674307E+02 -0.93374032414E+03  0.93637782678E+03  0.00000000000E+00 0.  1.
         21    1    1    2  504  505 -0.19869543880E+01  0.35974131669E+02 -0.32228349686E+03  0.32429113230E+03  0.00000000000E+00 0. -1.
         21    1    1    2  505  502 -0.29741217949E+02  0.45004583049E+02  0.38519172730E+01  0.54081325864E+02  0.00000000000E+00 0. -1.
          2    1    1    2  501    0  0.92407022300E+02 -0.45616040412E+02 -0.25804927608E+04  0.25825496645E+04  0.00000000000E+00 0.  1.
<scales pt_clust_3="14000.00000" pt_clust_4="36.02896" pt_clust_5="54.16472" pt_clust_6="76.38388"></scales>
<clustering>
<clus scale="   36.029">  2  4  1 -1</clus>
<clus scale="   54.165">  1  5  2 -1</clus>
<clus scale="   76.384">  2  6  1 -1</clus>
<clus scale="   54.165">  1  3  2 -1</clus>
</clustering>
</event>
<event>
 6    0  0.1622933E+002  0.1058332E+03  0.7546771E-02  0.1268487E+00
         21   -1    0    0  501  502  0.00000000000E+00  0.00000000000E+00  0.13463193278E+03  0.13463193278E+03  0.00000000000E+00 0.  1.
          2   -1    0    0  504    0 -0.00000000000E+00 -0.00000000000E+00 -0.81826154053E+03  0.81826154053E+03  0.00000000000E+00 0. -1.
         21    1    1    2  503  502 -0.31496712199E+02 -0.42789246543E+02  0.11498557866E+03  0.12666746148E+03  0.00000000000E+00 0.  1.
         21    1    1    2  504  505  0.35150141363E+02 -0.17216573553E+02 -0.17176211229E+03  0.17616516700E+03  0.00000000000E+00 0. -1.
         21    1    1    2  505  503  0.21096579419E+02 -0.51911306702E+02 -0.16754694623E+03  0.17666869733E+03  0.00000000000E+00 0. -1.
          2    1    1    2  501    0 -0.24750008583E+02  0.11191712680E+03 -0.45930612789E+03  0.47339214750E+03  0.00000000000E+00 0. -1.
<scales pt_clust_3="53.13156" pt_clust_4="31.48002" pt_clust_5="31.48002" pt_clust_6="98.90364"></scales>
<clustering>
<clus scale="   31.480">  4  5 -1 -1</clus>
<clus scale="   53.132">  1  3  2 -1</clus>
<clus scale="   98.904">  1  6  2 -1</clus>
<clus scale="   53.132">  1  3  2 -1</clus>
</clustering>
</event>
<event>
 6    0  0.1622933E+002  0.1815862E+03  0.7546771E-02  0.1166277E+00
         21   -1    0    0  503  502  0.00000000000E+00  0.00000000000E+00  0.48048065693E+02  0.48048065693E+02  0.00000000000E+00 0.  1.
          2   -1    0    0  504    0 -0.00000000000E+00 -0.00000000000E+00 -0.12540215435E+04  0.12540215435E+04  0.00000000000E+00 0. -1.
         21    1    1    2  503  501 -0.65173058387E+02 -0.41648376013E+02 -0.26815528040E+03  0.27908666964E+03  0.00000000000E+00 0. -1.
         21    1    1    2  504  505 -0.17090030340E+02 -0.25748150583E+02 -0.38243570226E+03  0.38368229403E+03  0.00000000000E+00 0. -1.
         21    1    1    2  505  502  0.11851046360E+03  0.13976649109E+03 -0.18581095264E+03  0.26096956171E+03  0.00000000000E+00 0.  1.
          2    1    1    2  501    0 -0.36247374877E+02 -0.72369964497E+02 -0.36957154255E+03  0.37833108385E+03  0.00000000000E+00 0. -1.
<scales pt_clust_3="45.08206" pt_clust_4="30.90366" pt_clust_5="175.37739" pt_clust_6="45.08206"></scales>
<clustering>
<clus scale="   30.904">  2  4  1 -1</clus>
<clus scale="   45.082">  3  6 -1 -1</clus>
<clus scale="  175.377">  1  5  2 -1</clus>
<clus scale="  175.377">  1  3  2 -1</clus>
</clustering>
</event>
<event>
 6    0  0.1622933E+002  0.1409247E+03  0.7546771E-02  0.1212090E+00
         21   -1    0    0  503  502  0.00000000000E+00  0.00000000000E+00  0.71997032527E+02  0.71997032527E+02  0.00000000000E+00 0.  1.
          2   -1    0    0  505    0 -0.00000000000E+00 -0.00000000000E+00 -0.28944189555E+04  0.28944189555E+04  0.00000000000E+00 0.  1.
         21    1    1    2  503  501 -0.10541123475E+02 -0.66882163583E+02 -0.61310485851E+02  0.91341747109E+02  0.00000000000E+00 0.  1.
         21    1    1    2  504  502 -0.89554725416E+02  0.15983004027E+03 -0.10560424858E+03  0.21146618627E+03  0.00000000000E+00 0.  1.
         21    1    1    2  505  504  0.13503417514E+02  0.43618306925E+02 -0.53612134430E+03  0.53806225922E+03  0.00000000000E+00 0.  1.
          2    1    1    2  501    0  0.86592431378E+02 -0.13656618362E+03 -0.21193858443E+04  0.21255457955E+04  0.00000000000E+00 0.  1.
<scales pt_clust_3="66.24495" pt_clust_4="140.92471" pt_clust_5="45.66069" pt_clust_6="14000.00000"></scales>
<clustering>
<clus scale="   45.661">  2  5  1 -1</clus>
<clus scale="   66.245">  1  3  2 -1</clus>
<clus scale="  140.925">  1  4  2 -1</clus>
<clus scale="   66.245">  1  3  2 -1</clus>
</clustering>
</event>
<event>
 6    0  0.1622933E+002  0.3496307E+03  0.7546771E-02  0.1062767E+00
          1   -1    0    0  503    0 -0.00000000000E+00  0.00000000000E+00  0.74254053484E+03  0.74254053484E+03  0.00000000000E+00 0.  1.
         21   -1    0    0  504  502  0.00000000000E+00 -0.00000000000E+00 -0.43005256192E+03  0.43005256192E+03  0.00000000000E+00 0. -1.
         21    1    1    2  503  505 -0.10152795960E+03 -0.99811924199E+01  0.38226718567E+03  0.39564599331E+03  0.00000000000E+00 0.  1.
         21    1    1    2  504  501  0.93375204562E+02 -0.95677391428E+02  0.72197379523E+01  0.13388508757E+03  0.00000000000E+00 0.  1.
         21    1    1    2  505  502 -0.15125429538E+03  0.29594281778E+03 -0.17568623720E+03  0.37593306214E+03  0.00000000000E+00 0. -1.
          1    1    1    2  501    0  0.15940705043E+03 -0.19028423394E+03  0.98687286505E+02  0.26712895374E+03  0.00000000000E+00 0.  1.
<scales pt_clust_3="102.01740" pt_clust_4="45.96565" pt_clust_5="343.97470" pt_clust_6="45.96565"></scales>
<clustering>
<clus scale="   45.966">  4  6 -1 -1</clus>
<clus scale="  102.017">  1  3  2 -1</clus>
<clus scale="  343.975">  2  5  1 -1</clus>
<clus scale="  343.975">  2  3  1 -1</clus>
</clustering>
</event>
<event>
 6    0  0.1622933E+002  0.2770250E+03  0.7546771E-02  0.1097325E+00
          1   -1    0    0  505    0 -0.00000000000E+00  0.00000000000E+00  0.16622529058E+04  0.16622529058E+04  0.00000000000E+00 0. -1.
         21   -1    0    0  501  502  0.00000000000E+00 -0.00000000000E+00 -0.44850621453E+03  0.44850621453E+03  0.00000000000E+00 0. -1.
         21    1    1    2  503  504 -0.22898952492E+03 -0.99319048404E+02  0.54483753423E+03  0.59928992533E+03  0.00000000000E+00 0.  1.
         21    1    1    2  504  502 -0.60455785573E+02 -0.42657392816E+02 -0.37069680060E+03  0.37800882681E+03  0.00000000000E+00 0. -1.
         21    1    1    2  505  503 -0.17791175968E+02  0.44603981162E+02  0.51863981391E+03  0.52085823181E+03  0.00000000000E+00 0. -1.
          1    1    1    2  501    0  0.30723648646E+03  0.97372460059E+02  0.52096614371E+03  0.61260213636E+03  0.00000000000E+00 0. -1.
<scales pt_clust_3="277.02503" pt_clust_4="73.95462" pt_clust_5="48.02126" pt_clust_6="14000.00000"></scales>
<clustering>
<clus scale="   48.021">  1  5  2 -1</clus>
<clus scale="   73.955">  2  4  1 -1</clus>
<clus scale="  277.025">  1  3  2 -1</clus>
<clus scale="   73.955">  2  3  1 -1</clus>
</clustering>
</event>
<event>
 6    0  0.2196509E+002  0.1137416E+03  0.7546771E-02  0.1253794E+00
          1   -1    0    0  503    0 -0.00000000000E+00  0.00000000000E+00  0.90673312308E+03  0.90673312308E+03  0.00000000000E+00 0. -1.
         21   -1    0    0  505  502  0.00000000000E+00 -0.00000000000E+00 -0.38303164251E+03  0.38303164251E+03  0.00000000000E+00 0. -1.
         21    1    1    2  503  504  0.21803384668E+02  0.26621326971E+02  0.44221937567E+02  0.56032690412E+02  0.00000000000E+00 0. -1.
         21    1    1    2  504  502 -0.98074112731E+02  0.61899951554E+02 -0.35702036230E+03  0.37538470225E+03  0.00000000000E+00 0. -1.
         21    1    1    2  505  501  0.55593102997E+02 -0.56293068412E+02  0.14010330079E+03  0.16089884258E+03  0.00000000000E+00 0. -1.
          1    1    1    2  501    0  0.20677625067E+02 -0.32228210113E+02  0.69639660451E+03  0.69744853034E+03  0.00000000000E+00 0. -1.
<scales pt_clust_3="34.41050" pt_clust_4="14000.00000" pt_clust_5="113.74159" pt_clust_6="39.84401"></scales>
<clustering>
<clus scale="   34.411">  1  3  2 -1</clus>
<clus scale="   39.844">  1  6  2 -1</clus>
<clus scale="  113.742">  1  5  2 -1</clus>
<clus scale="  113.742">  2  3  1 -1</clus>
</clustering>
</event>
<event>
 6    0  0.1622933E+002  0.1268260E+03  0.7546771E-02  0.1232243E+00
          2   -1    0    0  503    0 -0.00000000000E+00  0.00000000000E+00  0.19601502306E+04  0.19601502306E+04  0.00000000000E+00 0. -1.
         21   -1    0    0  505  502  0.00000000000E+00 -0.00000000000E+00 -0.93196837613E+02  0.93196837613E+02  0.00000000000E+00 0.  1.
         21    1    1    2  503  504 -0.38969792468E+02 -0.67664360964E+02  0.62743140929E+03  0.63227152698E+03  0.00000000000E+00 0. -1.
         21    1    1    2  504  502  0.45707840545E+02 -0.76774506019E+02  0.80464042665E+03  0.80958615827E+03  0.00000000000E+00 0. -1.
         21    1    1    2  505  501  0.10639792620E+03  0.13056445346E+02 -0.33288410546E+02  0.11224574710E+03  0.00000000000E+00 0.  1.
          2    1    1    2  501    0 -0.11313597428E+03  0.13138242164E+03  0.46816996756E+03  0.49924363583E+03  0.00000000000E+00 0. -1.
<scales pt_clust_3="78.08400" pt_clust_4="126.82598" pt_clust_5="105.81979" pt_clust_6="14000.00000"></scales>
<clustering>
<clus scale="   78.084">  1  3  2 -1</clus>
<clus scale="  105.820">  2  5  1 -1</clus>
<clus scale="  126.826">  1  4  2 -1</clus>
<clus scale="  105.820">  2  3  1 -1</clus>
</clustering>
</event>
<event>
 6    0  0.1622933E+002  0.2262005E+03  0.7546771E-02  0.1129343E+00
          2   -1    0    0  505    0 -0.00000000000E+00  0.00000000000E+00  0.39516567530E+03  0.39516567530E+03  0.00000000000E+00 0. -1.
         21   -1    0    0  504  502  0.00000000000E+00 -0.00000000000E+00 -0.26880787060E+03  0.26880787060E+03  0.00000000000E+00 0. -1.
         21    1    1    2  503  501  0.10561122672E+03 -0.23748960762E+02  0.68372155756E+02  0.12803318331E+03  0.00000000000E+00 0. -1.
         21    1    1    2  504  503  0.20677374394E+01  0.35976957124E+02 -0.13676720667E+03  0.14143509395E+03  0.00000000000E+00 0.  1.
         21    1    1    2  505  502 -0.21507317240E+03 -0.50149121512E+02  0.85900722263E+02  0.23696062534E+03  0.00000000000E+00 0. -1.
          2    1    1    2  501    0  0.10739420825E+03  0.37921125151E+02  0.10885213334E+03  0.15754464329E+03  0.00000000000E+00 0. -1.
<scales pt_clust_3="64.83084" pt_clust_4="36.03633" pt_clust_5="215.85317" pt_clust_6="64.83084"></scales>
<clustering>
<clus scale="   36.036">  2  4  1 -1</clus>
<clus scale="   64.831">  3  6 -1 -1</clus>
<clus scale="  215.853">  2  5  1 -1</clus>
<clus scale="   36.036">  2  3  1 -1</clus>
</clustering>
</event>
<event>
 6    0  0.1622933E+002  0.1102711E+03  0.7546771E-02  0.1260069E+00
          2   -1    0    0  505    0 -0.00000000000E+00  0.00000000000E+00  0.11473608244E+04  0.11473608244E+04  0.00000000000E+00 0.  1.
         21   -1    0    0  504  502  0.00000000000E+00 -0.00000000000E+00 -0.32115871009E+02  0.32115871009E+02  0.00000000000E+00 0.  1.
         21    1    1    2  503  502 -0.55361149663E+02  0.32915843051E+02  0.76694684379E+02  0.10015180591E+03  0.00000000000E+00 0.  1.
         21    1    1    2  504  501  0.57270795752E+02  0.10484674010E+02  0.59362054304E+02  0.83148817949E+02  0.00000000000E+00 0.  1.
         21    1    1    2  505  503 -0.67100785161E+02 -0.62668951028E+02  0.78664206144E+03  0.79198209930E+03  0.00000000000E+00 0.  1.
          2    1    1    2  501    0  0.65191139072E+02  0.19268433967E+02  0.19254615324E+03  0.20419397222E+03  0.00000000000E+00 0.  1.
<scales pt_clust_3="64.40737" pt_clust_4="52.56392" pt_clust_5="94.51859" pt_clust_6="52.56392"></scales>
<clustering>
<clus scale="   52.564">  4  6 -1 -1</clus>
<clus scale="   64.407">  2  3  1 -1</clus>
<clus scale="   94.519">  1  5  2 -1</clus>
<clus scale="   64.407">  2  3  1 -1</clus>
</clustering>
</event>
<event>
 6    0  0.1622933E+002  0.8895261E+02  0.7546771E-02  0.1305408E+00
          1   -1    0    0  503    0 -0.00000000000E+00  0.00000000000E+00  0.89678798733E+03  0.89678798733E+03  0.00000000000E+00 0.  1.
         21   -1    0    0  501  502  0.00000000000E+00 -0.00000000000E+00 -0.48123299417E+03  0.48123299417E+03  0.00000000000E+00 0.  1.
         21    1    1    2  503  505 -0.18212172251E+01 -0.32839468295E+02  0.37464995386E+02  0.49853519327E+02  0.00000000000E+00 0. -1.
         21    1    1    2  504  502  0.32251168512E+01 -0.88412517560E+02 -0.45840091274E+03  0.46686033398E+03  0.00000000000E+00 0.  1.
         21    1    1    2  505  504  0.28006121113E+02 -0.33702372205E+02  0.25829017320E+03  0.26198092733E+03  0.00000000000E+00 0.  1.
          1    1    1    2  501    0 -0.29410020740E+02  0.15495435806E+03  0.57820073732E+03  0.59932620086E+03  0.00000000000E+00 0.  1.
<scales pt_clust_3="32.88993" pt_clust_4="14000.00000" pt_clust_5="51.61990" pt_clust_6="88.95261"></scales>
<clustering>
<clus scale="   32.890">  1  3  2 -1</clus>
<clus scale="   51.620">  1  5  2 -1</clus>
<clus scale="   88.953">  1  6  2 -1</clus>
<clus scale="   88.953">  2  3  1 -1</clus>
</clustering>
</event>
<event>
 6    0  0.1622933E+002  0.1291368E+03  0.7546771E-02  0.1228742E+00
          1   -1    0    0  503    0 -0.00000000000E+00  0.00000000000E+00  0.79410458452E+02  0.79410458452E+02  0.00000000000E+00 0. -1.
         21   -1    0    0  504  502  0.00000000000E+00 -0.00000000000E+00 -0.11361971433E+04  0.11361971433E+04  0.00000000000E+00 0. -1.
         21    1    1    2  503  505  0.43560722148E+02  0.19261834301E+02  0.38391044432E+02  0.61175379584E+02  0.00000000000E+00 0. -1.
         21    1    1    2  504  501 -0.15783591809E+02  0.33765032061E+02 -0.48405413999E+03  0.48548698191E+03  0.00000000000E+00 0. -1.
         21    1    1    2  505  502  0.23761113847E+02 -0.11980622148E+03 -0.12211437303E+03  0.17271375550E+03  0.00000000000E+00 0. -1.
          1    1    1    2  501    0 -0.51538244186E+02  0.66779355121E+02 -0.48900921622E+03  0.49623148472E+03  0.00000000000E+00 0. -1.
<scales pt_clust_3="47.62935" pt_clust_4="31.72207" pt_clust_5="119.99526" pt_clust_6="31.72207"></scales>
<clustering>
<clus scale="   31.722">  4  6 -1 -1</clus>
<clus scale="   47.629">  1  3  2 -1</clus>
<clus scale="  119.995">  1  5  2 -1</clus>
<clus scale="  129.137">  2  3  1 -1</clus>
</clustering>
</event>
<event>
 6    0  0.1622933E+002  0.6500324E+02  0.7546771E-02  0.1377959E+00
         21   -1    0    0  505  502  0.00000000000E+00  0.00000000000E+00  0.26870998469E+03  0.26870998469E+03  0.00000000000E+00 0. -1.
          1   -1    0    0  503    0 -0.00000000000E+00 -0.00000000000E+00 -0.11889211184E+04  0.11889211184E+04  0.00000000000E+00 0. -1.
         21    1    1    2  503  504 -0.60055761628E+02  0.17452165672E+02 -0.90659915148E+03  0.90875370374E+03  0.00000000000E+00 0. -1.
         21    1    1    2  504  502 -0.52285539276E+02 -0.36533748229E+01 -0.52705423010E+02  0.74330252116E+02  0.00000000000E+00 0. -1.
         21    1    1    2  505  501 -0.31715825387E+01 -0.47554224351E+02  0.23764218545E+03  0.24237423851E+03  0.00000000000E+00 0. -1.
          1    1    1    2  501    0  0.11551288344E+03  0.33755433501E+02 -0.19854874464E+03  0.23217290869E+03  0.00000000000E+00 0. -1.
<scales pt_clust_3="65.00324" pt_clust_4="57.66555" pt_clust_5="47.65987" pt_clust_6="14000.00000"></scales>
<clustering>
<clus scale="   47.660">  1  5  2 -1</clus>
<clus scale="   57.666">  1  4  2 -1</clus>
<clus scale="   65.003">  2  3  1 -1</clus>
<clus scale="   47.660">  1  3  2 -1</clus>
</clustering>
</event>
<event>
 6    0  0.1756239E+002  0.2420487E+03  0.7546771E-02  0.1118436E+00
         21   -1    0    0  501  502  0.00000000000E+00  0.00000000000E+00  0.79665876892E+03  0.79665876892E+03  0.00000000000E+00 0. -1.
          1   -1    0    0  505    0 -0.00000000000E+00 -0.00000000000E+00 -0.22187348429E+04  0.22187348429E+04  0.00000000000E+00 0. -1.
         21    1    1    2  503  502  0.23338963693E+03  0.66014108360E+02  0.76341003790E+03  0.80101402678E+03  0.00000000000E+00 0. -1.
         21    1    1    2  504  503 -0.67875796105E+02 -0.10355748884E+02 -0.15116606796E+03  0.16602874852E+03  0.00000000000E+00 0.  1.
         21    1    1    2  505  504  0.89429807115E+01  0.33373187435E+02 -0.15247089770E+03  0.15633656383E+03  0.00000000000E+00 0.  1.
          1    1    1    2  501    0 -0.17445682154E+03 -0.89031546911E+02 -0.18818491462E+04  0.18920142727E+04  0.00000000000E+00 0. -1.
<scales pt_clust_3="242.04867" pt_clust_4="67.63902" pt_clust_5="34.55064" pt_clust_6="14000.00000"></scales>
<clustering>
<clus scale="   34.551">  2  5  1 -1</clus>
<clus scale="   67.639">  2  4  1 -1</clus>
<clus scale="  242.049">  1  3  2 -1</clus>
<clus scale="  242.049">  1  3  2 -1</clus>
</clustering>
</event>
<event>
 6    0  0.1622933E+002  0.9690289E+02  0.7546771E-02  0.1286947E+00
         21   -1    0    0  505  502  0.00000000000E+00  0.00000000000E+00  0.67236433250E+02  0.67236433250E+02  0.00000000000E+00 0.  1.
          2   -1    0    0  504    0 -0.00000000000E+00 -0.00000000000E+00 -0.13878345848E+04  0.13878345848E+04  0.00000000000E+00 0. -1.
         21    1    1    2  503  502  0.50909766086E+02  0.56820899524E+02 -0.76990390120E+02  0.10838791020E+03  0.00000000000E+00 0.  1.
         21    1    1    2  504  503 -0.14968300162E+02  0.29620012757E+02 -0.34854251687E+03  0.35011895298E+03  0.00000000000E+00 0. -1.
         21    1    1    2  505  501  0.30745641387E+02  0.26777298364E+01  0.42439728959E+02  0.52474711009E+02  0.00000000000E+00 0.  1.
          2    1    1    2  501    0 -0.66687107311E+02 -0.89118642118E+02 -0.93750497348E+03  0.94408944383E+03  0.00000000000E+00 0. -1.
<scales pt_clust_3="96.90289" pt_clust_4="32.74981" pt_clust_5="30.86203" pt_clust_6="14000.00000"></scales>
<clustering>
<clus scale="   30.862">  1  5  2 -1</clus>
<clus scale="   32.750">  2  4  1 -1</clus>
<clus scale="   96.903">  1  3  2 -1</clus>
<clus scale="   30.862">  1  3  2 -1</clus>
</clustering>
</event>
<event>
 6    0  0.1622933E+002  0.1680183E+03  0.7546771E-02  0.1179930E+00
         21   -1    0    0  504  502  0.00000000000E+00  0.00000000000E+00  0.23780384223E+02  0.23780384223E+02  0.00000000000E+00 0. -1.
          2   -1    0    0  503    0 -0.00000000000E+00 -0.00000000000E+00 -0.22742596078E+04  0.22742596078E+04  0.00000000000E+00 0.  1.
         21    1    1    2  503  505 -0.32990190470E+02  0.21186619859E+02 -0.35201821649E+03  0.35419493259E+03  0.00000000000E+00 0.  1.
         21    1    1    2  504  501 -0.67056943983E+01 -0.42930318083E+02 -0.63307689284E+03  0.63456625406E+03  0.00000000000E+00 0. -1.
         21    1    1    2  505  502  0.52663417257E+02  0.14871998542E+03 -0.33630023403E+03  0.37146859489E+03  0.00000000000E+00 0. -1.
          2    1    1    2  501    0 -0.12967532390E+02 -0.12697628720E+03 -0.92908388021E+03  0.93781021047E+03  0.00000000000E+00 0.  1.
<scales pt_clust_3="39.20747" pt_clust_4="30.68678" pt_clust_5="159.57435" pt_clust_6="30.68678"></scales>
<clustering>
<clus scale="   30.687">  4  6 -1 -1</clus>
<clus scale="   39.207">  2  3  1 -1</clus>
<clus scale="  159.574">  1  5  2 -1</clus>
<clus scale="  159.574">  1  3  2 -1</clus>
</clustering>
</event>
<event>
 6    0  0.1622933E+002  0.9106304E+02  0.7546771E-02  0.1300298E+00
          1   -1    0    0  505    0 -0.00000000000E+00  0.00000000000E+00  0.21439926552E+04  0.21439926552E+04  0.00000000000E+00 0.  1.
         21   -1    0    0  503  502  0.00000000000E+00 -0.00000000000E+00 -0.87955476586E+02  0.87955476586E+02  0.00000000000E+00 0. -1.
         21    1    1    2  503  504 -0.49935824875E+02 -0.78375736922E+02 -0.52994258902E+02  0.10698006459E+03  0.00000000000E+00 0. -1.
         21    1    1    2  504  501  0.74347324425E+02 -0.33947028574E+02  0.47077822247E+03  0.47782011275E+03  0.00000000000E+00 0. -1.
         21    1    1    2  505  502 -0.59880095561E+02  0.54797484521E+02  0.47122386370E+03  0.47816348656E+03  0.00000000000E+00 0. -1.
          1    1    1    2  501    0  0.35468596011E+02  0.57525280974E+02  0.11670293514E+04  0.11689844679E+04  0.00000000000E+00 0.  1.
<scales pt_clust_3="91.06304" pt_clust_4="80.45002" pt_clust_5="14000.00000" pt_clust_6="67.58091"></scales>
<clustering>
<clus scale="   67.581">  1  6  2 -1</clus>
<clus scale="   91.063">  2  3  1 -1</clus>
<clus scale="   80.450">  1  4  2 -1</clus>
<clus scale="   91.063">  2  3  1 -1</clus>
</clustering>
</event>
<event>
 6    0  0.1622933E+002  0.7957121E+02  0.7546771E-02  0.1330273E+00
          2   -1    0    0  503    0 -0.00000000000E+00  0.00000000000E+00  0.57646735414E+03  0.57646735414E+03  0.00000000000E+00 0. -1.
         21   -1    0    0  501  502  0.00000000000E+00 -0.00000000000E+00 -0.34963526219E+02  0.34963526219E+02  0.00000000000E+00 0. -1.
         21    1    1    2  503  505  0.20048894064E+02 -0.24007440148E+02  0.11250737236E+03  0.11677424446E+03  0.00000000000E+00 0. -1.
         21    1    1    2  504  502 -0.75164174216E+02 -0.73263682367E+02  0.22882978302E+03  0.25175442367E+03  0.00000000000E+00 0. -1.
         21    1    1    2  505  504 -0.32622289617E+01  0.56293861546E+02  0.13494981399E+03  0.14625694267E+03  0.00000000000E+00 0. -1.
          2    1    1    2  501    0  0.58377509114E+02  0.40977260968E+02  0.65216858563E+02  0.96645269556E+02  0.00000000000E+00 0. -1.
<scales pt_clust_3="31.27803" pt_clust_4="14000.00000" pt_clust_5="49.06714" pt_clust_6="79.57121"></scales>
<clustering>
<clus scale="   31.278">  1  3  2 -1</clus>
<clus scale="   49.067">  1  5  2 -1</clus>
<clus scale="   79.571">  2  6  1 -1</clus>
<clus scale="   79.571">  2  3  1 -1</clus>
</clustering>
</event>
<event>
 6    0  0.1622933E+002  0.9078416E+02  0.7546771E-02  0.1300964E+00
         21   -1    0    0  504  502  0.00000000000E+00  0.00000000000E+00  0.47556058348E+03  0.47556058348E+03  0.00000000000E+00 0.  1.
          2   -1    0    0  503    0 -0.00000000000E+00 -0.00000000000E+00 -0.16082948246E+03  0.16082948246E+03  0.00000000000E+00 0. -1.
         21    1    1    2  503  502  0.13028056519E+03 -0.11634642765E+02 -0.35073221426E+02  0.13541979707E+03  0.00000000000E+00 0. -1.
         21    1    1    2  504  505 -0.48689439972E+02 -0.75930661815E+01  0.36460329185E+03  0.36791830159E+03  0.00000000000E+00 0.  1.
         21    1    1    2  505  501 -0.51778466712E+02  0.32887230432E+02  0.37080932552E+02  0.71676879811E+02  0.00000000000E+00 0. -1.
          2    1    1    2  501    0 -0.29812658503E+02 -0.13659521485E+02 -0.51879901955E+02  0.61375087463E+02  0.00000000000E+00 0. -1.
<scales pt_clust_3="90.78416" pt_clust_4="49.78019" pt_clust_5="14000.00000" pt_clust_6="32.79294"></scales>
<clustering>
<clus scale="   32.793">  2  6  1 -1</clus>
<clus scale="   49.780">  1  4  2 -1</clus>
<clus scale="   90.784">  2  3  1 -1</clus>
<clus scale="   49.780">  1  3  2 -1</clus>
</clustering>
</event>
<event>
 6    0  0.1622933E+002  0.9022782E+02  0.7546771E-02  0.1302301E+00
         21   -1    0    0  504  502  0.00000000000E+00  0.00000000000E+00  0.54311952771E+02  0.54311952771E+02  0.00000000000E+00 0. -1.
          2   -1    0    0  503    0 -0.00000000000E+00 -0.00000000000E+00 -0.94711335651E+03  0.94711335651E+03  0.00000000000E+00 0. -1.
         21    1    1    2  503  502 -0.70839356072E+02 -0.53261545455E+02  0.15325901931E+00  0.88628607578E+02  0.00000000000E+00 0. -1.
         21    1    1    2  504  505  0.78988872435E+02  0.72182119520E+02 -0.44553109218E+03  0.45820023401E+03  0.00000000000E+00 0. -1.
         21    1    1    2  505  501 -0.42168211540E+02 -0.55846359457E+01 -0.19858543528E+03  0.20308993409E+03  0.00000000000E+00 0.  1.
          2    1    1    2  501    0  0.34018695177E+02 -0.13335938119E+02 -0.24883813529E+03  0.25150653359E+03  0.00000000000E+00 0. -1.
<scales pt_clust_3="14000.00000" pt_clust_4="90.22782" pt_clust_5="33.71018" pt_clust_6="36.53928"></scales>
<clustering>
<clus scale="   36.539">  2  6  1 -1</clus>
<clus scale="   33.710">  2  5  1 -1</clus>
<clus scale="   90.228">  2  4  1 -1</clus>
<clus scale="   90.228">  1  3  2 -1</clus>
</clustering>
</event>
<event>
 6    0  0.1622933E+002  0.1150588E+03  0.7546771E-02  0.1251479E+00
         21   -1    0    0  503  502  0.00000000000E+00  0.00000000000E+00  0.62186147063E+03  0.62186147063E+03  0.00000000000E+00 0. -1.
         -3   -1    0    0    0  501 -0.00000000000E+00 -0.00000000000E+00 -0.15816559971E+03  0.15816559971E+03  0.00000000000E+00 0. -1.
         21    1    1    2  503  501 -0.34547732304E+02  0.12445988461E+02  0.18696324451E+02  0.41206807497E+02  0.00000000000E+00 0.  1.
         21    1    1    2  504  505  0.92698465129E+02 -0.48110206949E+02 -0.24465389232E+02  0.10726673632E+03  0.00000000000E+00 0. -1.
         21    1    1    2  505  502 -0.81159018533E+02  0.83637359616E+02  0.53476817248E+03  0.54731982653E+03  0.00000000000E+00 0. -1.
         -3    1    1    2    0  504  0.23008285707E+02 -0.47973141129E+02 -0.65303236778E+02  0.84233699994E+02  0.00000000000E+00 0. -1.
<scales pt_clust_3="36.72123" pt_clust_4="14000.00000" pt_clust_5="115.05875" pt_clust_6="41.99088"></scales>
<clustering>
<clus scale="   36.721">  2  3  1 -1</clus>
<clus scale="   41.991">  2  6  1 -1</clus>
<clus scale="  115.059">  1  5  2 -1</clus>
<clus scale="  115.059">  1  3  2 -1</clus>
</clustering>
</event>
<event>
 6    0  0.1622933E+002  0.1345557E+03  0.7546771E-02  0.1220848E+00
          2   -1    0    0  504    0 -0.00000000000E+00  0.00000000000E+00  0.80716993435E+03  0.80716993435E+03  0.00000000000E+00 0.  1.
         21   -1    0    0  505  502  0.00000000000E+00 -0.00000000000E+00 -0.16583992927E+04  0.16583992927E+04  0.00000000000E+00 0.  1.
         21    1    1    2  503  501  0.51471674227E+02 -0.16305544109E+03  0.17654512476E+03  0.24577345503E+03  0.00000000000E+00 0.  1.
         21    1    1    2  504  502 -0.12330635822E+01  0.91981637615E+02  0.40842392331E+02  0.10064910887E+03  0.00000000000E+00 0.  1.
         21    1    1    2  505  503 -0.11540878283E+03  0.43372544293E+01 -0.15876264272E+04  0.15918214948E+04  0.00000000000E+00 0.  1.
          2    1    1    2  501    0  0.65170172183E+02  0.66736549048E+02  0.51900955178E+03  0.52732516834E+03  0.00000000000E+00 0.  1.
<scales pt_clust_3="134.55573" pt_clust_4="91.98990" pt_clust_5="115.50390" pt_clust_6="14000.00000"></scales>
<clustering>
<clus scale="   91.990">  1  4  2 -1</clus>
<clus scale="  115.504">  2  5  1 -1</clus>
<clus scale="  134.556">  2  3  1 -1</clus>
<clus scale="  115.504">  2  3  1 -1</clus>
</clustering>
</event>
<event>
 6    0  0.1622933E+002  0.9514743E+02  0.7546771E-02  0.1290844E+00
         21   -1    0    0  503  502  0.00000000000E+00  0.00000000000E+00  0.41712196296E+02  0.41712196296E+02  0.00000000000E+00 0. -1.
          2   -1    0    0  504    0 -0.00000000000E+00 -0.00000000000E+00 -0.66178592369E+03  0.66178592369E+03  0.00000000000E+00 0.  1.
         21    1    1    2  503  501 -0.32938655203E+02 -0.10124715899E+02 -0.25518890111E+02  0.42879816128E+02  0.00000000000E+00 0. -1.
         21    1    1    2  504  505 -0.49572450423E+02  0.90732008269E+02 -0.42959100471E+03  0.44185762016E+03  0.00000000000E+00 0. -1.
         21    1    1    2  505  502  0.86427306201E+02 -0.28128108328E+02 -0.99404807812E+02  0.13469293059E+03  0.00000000000E+00 0. -1.
          2    1    1    2  501    0 -0.39162005750E+01 -0.52479184042E+02 -0.65559024759E+02  0.84067753104E+02  0.00000000000E+00 0.  1.
<scales pt_clust_3="34.45961" pt_clust_4="95.14743" pt_clust_5="14000.00000" pt_clust_6="56.85608"></scales>
<clustering>
<clus scale="   34.460">  1  3  2 -1</clus>
<clus scale="   56.856">  1  6  2 -1</clus>
<clus scale="   95.147">  2  4  1 -1</clus>
<clus scale="   34.460">  1  3  2 -1</clus>
</clustering>
</event>
<event>
 6    0  0.1622933E+002  0.8834599E+02  0.7546771E-02  0.1306907E+00
         21   -1    0    0  504  502  0.00000000000E+00  0.00000000000E+00  0.34274086833E+03  0.34274086833E+03  0.00000000000E+00 0.  1.
          1   -1    0    0  503    0 -0.00000000000E+00 -0.00000000000E+00 -0.33648239903E+03  0.33648239903E+03  0.00000000000E+00 0.  1.
         21    1    1    2  503  505  0.70119599420E+01  0.61547665388E+02 -0.10308248672E+03  0.12026338498E+03  0.00000000000E+00 0. -1.
         21    1    1    2  504  501 -0.12311410119E+03  0.16308845002E+02 -0.87886016563E+01  0.12450020023E+03  0.00000000000E+00 0. -1.
         21    1    1    2  505  502  0.82602588646E+02  0.21674504130E+02  0.25098176662E+03  0.26511284193E+03  0.00000000000E+00 0.  1.
          1    1    1    2  501    0  0.33499552602E+02 -0.99531014520E+02 -0.13285220894E+03  0.16934684023E+03  0.00000000000E+00 0.  1.
<scales pt_clust_3="61.94580" pt_clust_4="14000.00000" pt_clust_5="88.34599" pt_clust_6="69.59294"></scales>
<clustering>
<clus scale="   61.946">  2  3  1 -1</clus>
<clus scale="   69.593">  2  6  1 -1</clus>
<clus scale="   88.346">  1  5  2 -1</clus>
<clus scale="   88.346">  1  3  2 -1</clus>
</clustering>
</event>
<event>
 6    0  0.1622933E+002  0.8820866E+02  0.7546771E-02  0.1307249E+00
          2   -1    0    0  505    0 -0.00000000000E+00  0.00000000000E+00  0.74883592267E+03  0.74883592267E+03  0.00000000000E+00 0. -1.
         21   -1    0    0  504  502  0.00000000000E+00 -0.00000000000E+00 -0.59755990101E+02  0.59755990101E+02  0.00000000000E+00 0. -1.
         21    1    1    2  503  502 -0.11352353594E+02 -0.55968468521E+02 -0.49226610996E+01  0.57319961558E+02  0.00000000000E+00 0. -1.
         21    1    1    2  504  501  0.42157773595E+02 -0.17524639401E+02  0.29212842162E+02  0.54201300795E+02  0.00000000000E+00 0. -1.
         21    1    1    2  505  503 -0.78695070979E+02 -0.15397948526E+02  0.12931230029E+03  0.15215676792E+03  0.00000000000E+00 0. -1.
          2    1    1    2  501    0  0.47889650978E+02  0.88891056447E+02  0.53547745121E+03  0.54491388250E+03  0.00000000000E+00 0. -1.
<scales pt_clust_3="69.47363" pt_clust_4="45.65513" pt_clust_5="88.20866" pt_clust_6="14000.00000"></scales>
<clustering>
<clus scale="   45.655">  2  4  1 -1</clus>
<clus scale="   69.474">  2  3  1 -1</clus>
<clus scale="   88.209">  2  5  1 -1</clus>
<clus scale="   45.655">  2  3  1 -1</clus>
</clustering>
</event>
<event>
 6    0  0.1622933E+002  0.9993609E+02  0.7546771E-02  0.1280430E+00
         21   -1    0    0  503  502  0.00000000000E+00  0.00000000000E+00  0.11163427428E+04  0.11163427428E+04  0.00000000000E+00 0.  1.
         -3   -1    0    0    0  501 -0.00000000000E+00 -0.00000000000E+00 -0.64704812970E+03  0.64704812970E+03  0.00000000000E+00 0. -1.
         21    1    1    2  503  504 -0.10490919835E+02 -0.36969836941E+02  0.98646691805E+03  0.98721517850E+03  0.00000000000E+00 0.  1.
         21    1    1    2  504  501 -0.23263245179E+02 -0.38247808524E+02 -0.90977148844E+01  0.45681964157E+02  0.00000000000E+00 0.  1.
         21    1    1    2  505  502  0.13213051191E+03  0.79438391616E+02  0.51327684115E+02  0.16249141945E+03  0.00000000000E+00 0.  1.
         -3    1    1    2    0  505 -0.98376346892E+02 -0.42207461512E+01 -0.55940227415E+03  0.56800231043E+03  0.00000000000E+00 0. -1.
<scales pt_clust_3="38.42952" pt_clust_4="50.01943" pt_clust_5="14000.00000" pt_clust_6="99.93609"></scales>
<clustering>
<clus scale="   38.430">  1  3  2 -1</clus>
<clus scale="   50.019">  1  4  2 -1</clus>
<clus scale="   99.936">  2  6  1 -1</clus>
<clus scale="   38.430">  1  3  2 -1</clus>
</clustering>
</event>
<event>
 6    0  0.1622933E+002  0.1026887E+03  0.7546771E-02  0.1274742E+00
         21   -1    0    0  503  502  0.00000000000E+00  0.00000000000E+00  0.17805805045E+03  0.17805805045E+03  0.00000000000E+00 0. -1.
          2   -1    0    0  504    0 -0.00000000000E+00 -0.00000000000E+00 -0.13241600000E+04  0.13241600000E+04  0.00000000000E+00 0.  1.
         21    1    1    2  503  505  0.79590605043E+02  0.65059660984E+02  0.15083924556E+03  0.18253739863E+03  0.00000000000E+00 0. -1.
         21    1    1    2  504  502 -0.73806271698E+02 -0.67744876967E+02 -0.37970861981E+03  0.39270264839E+03  0.00000000000E+00 0.  1.
         21    1    1    2  505  501 -0.13509170403E+02  0.36727858555E+02 -0.80404243522E+02  0.89421896957E+02  0.00000000000E+00 0.  1.
          2    1    1    2  501    0  0.77248370580E+01 -0.34042642572E+02 -0.83682833174E+03  0.83755610643E+03  0.00000000000E+00 0.  1.
<scales pt_clust_3="102.68868" pt_clust_4="14000.00000" pt_clust_5="33.10671" pt_clust_6="34.90809"></scales>
<clustering>
<clus scale="   34.908">  2  6  1 -1</clus>
<clus scale="   33.107">  2  5  1 -1</clus>
<clus scale="  102.689">  1  3  2 -1</clus>
<clus scale="  102.689">  1  3  2 -1</clus>
</clustering>
</event>
<event>
 6    0  0.1622933E+002  0.2247226E+03  0.7546771E-02  0.1130410E+00
          1   -1    0    0  505    0 -0.00000000000E+00  0.00000000000E+00  0.14548165628E+04  0.14548165628E+04  0.00000000000E+00 0.  1.
         21   -1    0    0  504  502  0.00000000000E+00 -0.00000000000E+00 -0.10733392512E+03  0.10733392512E+03  0.00000000000E+00 0. -1.
         21    1    1    2  503  501  0.15360191475E+02 -0.66445898033E+02  0.28540221950E+03  0.29343725010E+03  0.00000000000E+00 0.  1.
         21    1    1    2  504  503 -0.10858504693E+02  0.22770559839E+03  0.43812396571E+02  0.23213632364E+03  0.00000000000E+00 0. -1.
         21    1    1    2  505  502 -0.47774853886E+02 -0.66204097803E+02  0.30650528089E+03  0.31719222318E+03  0.00000000000E+00 0.  1.
          1    1    1    2  501    0  0.43273167104E+02 -0.95055602552E+02  0.71176274073E+03  0.71938469101E+03  0.00000000000E+00 0.  1.
<scales pt_clust_3="35.68084" pt_clust_4="220.34185" pt_clust_5="81.64202" pt_clust_6="35.68084"></scales>
<clustering>
<clus scale="   35.681">  3  6 -1 -1</clus>
<clus scale="   81.642">  1  5  2 -1</clus>
<clus scale="  220.342">  2  4  1 -1</clus>
<clus scale="  220.342">  2  3  1 -1</clus>
</clustering>
</event>
<event>
 6    0  0.1622933E+002  0.2442728E+03  0.7546771E-02  0.1116979E+00
         21   -1    0    0  501  502  0.00000000000E+00  0.00000000000E+00  0.35018492229E+03  0.35018492229E+03  0.00000000000E+00 0. -1.
          2   -1    0    0  504    0 -0.00000000000E+00 -0.00000000000E+00 -0.23792226214E+03  0.23792226214E+03  0.00000000000E+00 0. -1.
         21    1    1    2  503  502  0.15150479737E+02  0.34381663182E+02  0.98006759265E+02  0.10496171045E+03  0.00000000000E+00 0. -1.
         21    1    1    2  504  505 -0.14198054368E+03 -0.44876888715E+02 -0.28630063996E+02  0.15163142975E+03  0.00000000000E+00 0. -1.
         21    1    1    2  505  503 -0.99235205937E+02  0.21638322409E+02  0.24881530405E+01  0.10159741138E+03  0.00000000000E+00 0. -1.
          2    1    1    2  501    0  0.22606526988E+03 -0.11143096875E+02  0.40397811843E+02  0.22991663284E+03  0.00000000000E+00 0. -1.
<scales pt_clust_3="37.57174" pt_clust_4="57.52745" pt_clust_5="57.52745" pt_clust_6="234.42020"></scales>
<clustering>
<clus scale="   37.572">  1  3  2 -1</clus>
<clus scale="   57.527">  4  5 -1 -1</clus>
<clus scale="  234.420">  1  6  2 -1</clus>
<clus scale="   37.572">  1  3  2 -1</clus>
</clustering>
</event>
<event>
 6    0  0.1622933E+002  0.8046821E+02  0.7546771E-02  0.1327728E+00
          2   -1    0    0  503    0 -0.00000000000E+00  0.00000000000E+00  0.79354086427E+02  0.79354086427E+02  0.00000000000E+00 0.  1.
         21   -1    0    0  505  502  0.00000000000E+00 -0.00000000000E+00 -0.10446886802E+04  0.10446886802E+04  0.00000000000E+00 0.  1.
         21    1    1    2  503  504 -0.31240003597E+02 -0.10545067279E+02  0.21369050426E+02  0.39290871520E+02  0.00000000000E+00 0.  1.
         21    1    1    2  504  502 -0.23252769221E+02  0.24701652417E+02 -0.43785744123E+02  0.55390019832E+02  0.00000000000E+00 0.  1.
         21    1    1    2  505  501 -0.77362916488E+02 -0.12624369676E+02 -0.87959550281E+03  0.88308133494E+03  0.00000000000E+00 0.  1.
          2    1    1    2  501    0  0.13185568931E+03 -0.15322154621E+01 -0.63322397274E+02  0.14628054034E+03  0.00000000000E+00 0.  1.
<scales pt_clust_3="32.97175" pt_clust_4="35.72647" pt_clust_5="14000.00000" pt_clust_6="80.46821"></scales>
<clustering>
<clus scale="   32.972">  1  3  2 -1</clus>
<clus scale="   35.726">  1  4  2 -1</clus>
<clus scale="   80.468">  1  6  2 -1</clus>
<clus scale="   80.468">  2  3  1 -1</clus>
</clustering>
</event>
<event>
 6    0  0.1622933E+002  0.1166478E+03  0.7546771E-02  0.1248732E+00
          4   -1    0    0  504    0 -0.00000000000E+00  0.00000000000E+00  0.20079238659E+03  0.20079238659E+03  0.00000000000E+00 0.  1.
         21   -1    0    0  503  502  0.00000000000E+00 -0.00000000000E+00 -0.99460993180E+02  0.99460993180E+02  0.00000000000E+00 0. -1.
         21    1    1    2  503  505 -0.65116811722E+02 -0.80928952245E+02  0.11705628489E+02  0.10453093427E+03  0.00000000000E+00 0. -1.
         21    1    1    2  504  502 -0.38448697833E+02  0.26561409863E+02  0.34113570556E+02  0.57857986096E+02  0.00000000000E+00 0.  1.
         21    1    1    2  505  501  0.23863325179E+02  0.31771346114E+02  0.33943540584E+02  0.52259359639E+02  0.00000000000E+00 0. -1.
          4    1    1    2  501    0  0.79702184376E+02  0.22596196268E+02  0.21568653777E+02  0.85605099766E+02  0.00000000000E+00 0.  1.
<scales pt_clust_3="106.59898" pt_clust_4="46.73126" pt_clust_5="32.80256" pt_clust_6="32.80256"></scales>
<clustering>
<clus scale="   32.803">  5  6 -1 -1</clus>
<clus scale="   46.731">  1  4  2 -1</clus>
<clus scale="  106.599">  2  3  1 -1</clus>
<clus scale="  106.599">  2  3  1 -1</clus>
</clustering>
</event>
<event>
 6    0  0.1622933E+002  0.1461686E+03  0.7546771E-02  0.1205262E+00
         21   -1    0    0  505  502  0.00000000000E+00  0.00000000000E+00  0.24131381095E+04  0.24131381095E+04  0.00000000000E+00 0. -1.
         -1   -1    0    0    0  501 -0.00000000000E+00 -0.00000000000E+00 -0.48323697784E+03  0.48323697784E+03  0.00000000000E+00 0.  1.
         21    1    1    2  503  502 -0.26008277953E+02  0.19489007751E+02  0.22493285492E+04  0.22495633296E+04  0.00000000000E+00 0. -1.
         21    1    1    2  504  501 -0.40005992542E+02 -0.12317740565E+03 -0.23748314091E+03  0.27050211629E+03  0.00000000000E+00 0.  1.
         21    1    1    2  505  504  0.51775664931E+02 -0.99555361390E+02  0.60716525130E+02  0.12758716975E+03  0.00000000000E+00 0.  1.
         -1    1    1    2    0  503  0.14238605564E+02  0.20324375929E+03 -0.14266080171E+03  0.24872247168E+03  0.00000000000E+00 0.  1.
<scales pt_clust_3="32.50003" pt_clust_4="14000.00000" pt_clust_5="95.71004" pt_clust_6="146.16859"></scales>
<clustering>
<clus scale="   32.500">  1  3  2 -1</clus>
<clus scale="   95.710">  1  5  2 -1</clus>
<clus scale="  146.169">  1  6  2 -1</clus>
<clus scale="   32.500">  1  3  2 -1</clus>
</clustering>
</event>
<event>
 6    0  0.1622933E+002  0.1510617E+03  0.7546771E-02  0.1199174E+00
          2   -1    0    0  503    0 -0.00000000000E+00  0.00000000000E+00  0.53543709633E+04  0.53543709633E+04  0.00000000000E+00 0.  1.
         21   -1    0    0  505  502  0.00000000000E+00 -0.00000000000E+00 -0.72860655481E+02  0.72860655481E+02  0.00000000000E+00 0. -1.
         21    1    1    2  503  502 -0.43729851841E+02  0.40978520626E+02  0.23885445056E+03  0.24625796971E+03  0.00000000000E+00 0. -1.
         21    1    1    2  504  501  0.15685098907E+02 -0.61572408196E+02  0.28116971123E+04  0.28124149472E+04  0.00000000000E+00 0.  1.
         21    1    1    2  505  504  0.18850743105E+02  0.10389995668E+03 -0.27041415905E+02  0.10900362236E+03  0.00000000000E+00 0. -1.
          2    1    1    2  501    0  0.91940098288E+01 -0.83306069112E+02  0.22580001609E+04  0.22595550795E+04  0.00000000000E+00 0.  1.
<scales pt_clust_3="59.92945" pt_clust_4="33.04941" pt_clust_5="146.21510" pt_clust_6="33.04941"></scales>
<clustering>
<clus scale="   33.049">  4  6 -1 -1</clus>
<clus scale="   59.929">  2  3  1 -1</clus>
<clus scale="  146.215">  2  5  1 -1</clus>
<clus scale="   59.929">  2  3  1 -1</clus>
</clustering>
</event>
<event>
 6    0  0.1622933E+002  0.9455079E+02  0.7546771E-02  0.1292191E+00
          2   -1    0    0  503    0 -0.00000000000E+00  0.00000000000E+00  0.54444988600E+03  0.54444988600E+03  0.00000000000E+00 0.  1.
         21   -1    0    0  505  502  0.00000000000E+00 -0.00000000000E+00 -0.53456760109E+03  0.53456760109E+03  0.00000000000E+00 0. -1.
         21    1    1    2  503  502  0.26031001417E+02  0.36076910674E+02  0.18764493764E+01  0.44527267834E+02  0.00000000000E+00 0. -1.
         21    1    1    2  504  501 -0.45835884934E+02 -0.48399788042E+02  0.96286386147E+02  0.11710907731E+03  0.00000000000E+00 0.  1.
         21    1    1    2  505  504  0.22690972060E+02  0.93417139126E+02 -0.49418324462E+03  0.50344684064E+03  0.00000000000E+00 0. -1.
          2    1    1    2  501    0 -0.28860885418E+01 -0.81094261758E+02  0.40590269400E+03  0.41393430130E+03  0.00000000000E+00 0.  1.
<scales pt_clust_3="44.48771" pt_clust_4="14000.00000" pt_clust_5="94.55079" pt_clust_6="55.57811"></scales>
<clustering>
<clus scale="   44.488">  1  3  2 -1</clus>
<clus scale="   55.578">  1  6  2 -1</clus>
<clus scale="   94.551">  2  5  1 -1</clus>
<clus scale="   94.551">  2  3  1 -1</clus>
</clustering>
</event>
<event>
 6    0  0.1622933E+002  0.1141681E+03  0.7546771E-02  0.1253040E+00
          4   -1    0    0  503    0 -0.00000000000E+00  0.00000000000E+00  0.79935361005E+03  0.79935361005E+03  0.00000000000E+00 0. -1.
         21   -1    0    0  501  502  0.00000000000E+00 -0.00000000000E+00 -0.18175458833E+03  0.18175458833E+03  0.00000000000E+00 0. -1.
         21    1    1    2  503  504  0.36482120045E+02 -0.31812229968E+02  0.24531783265E+03  0.25004759962E+03  0.00000000000E+00 0.  1.
         21    1    1    2  504  505 -0.30316693335E+02  0.78914782266E+02  0.54940271753E+02  0.10082201255E+03  0.00000000000E+00 0. -1.
         21    1    1    2  505  502  0.22097405418E+02  0.62613577656E+02 -0.14219943362E+03  0.15693767665E+03  0.00000000000E+00 0. -1.
          4    1    1    2  501    0 -0.28262832127E+02 -0.10971612995E+03  0.45954035093E+03  0.47330090956E+03  0.00000000000E+00 0. -1.
<scales pt_clust_3="48.40416" pt_clust_4="114.16810" pt_clust_5="66.16265" pt_clust_6="14000.00000"></scales>
<clustering>
<clus scale="   48.404">  1  3  2 -1</clus>
<clus scale="   66.163">  2  5  1 -1</clus>
<clus scale="  114.168">  2  4  1 -1</clus>
<clus scale="   66.163">  2  3  1 -1</clus>
</clustering>
</event>
<event>
 6    0  0.1622933E+002  0.7344721E+02  0.7546771E-02  0.1348748E+00
          1   -1    0    0  504    0 -0.00000000000E+00  0.00000000000E+00  0.19897458729E+04  0.19897458729E+04  0.00000000000E+00 0.  1.
         21   -1    0    0  503  502  0.00000000000E+00 -0.00000000000E+00 -0.96104729918E+02  0.96104729918E+02  0.00000000000E+00 0. -1.
         21    1    1    2  503  501 -0.60270972097E+02  0.12421674717E+01 -0.74016706890E+02  0.95459970440E+02  0.00000000000E+00 0. -1.
         21    1    1    2  504  505 -0.47289457422E+02  0.53220282337E+01  0.14956721365E+03  0.15695530627E+03  0.00000000000E+00 0.  1.
         21    1    1    2  505  502  0.53335188852E+01 -0.49079415764E+02  0.97500006463E+02  0.10928626051E+03  0.00000000000E+00 0.  1.
          1    1    1    2  501    0  0.10222691063E+03  0.42515220058E+02  0.17205906298E+04  0.17241490657E+04  0.00000000000E+00 0.  1.
<scales pt_clust_3="73.44721" pt_clust_4="47.58799" pt_clust_5="48.85287" pt_clust_6="14000.00000"></scales>
<clustering>
<clus scale="   47.588">  1  4  2 -1</clus>
<clus scale="   48.853">  2  5  1 -1</clus>
<clus scale="   73.447">  2  3  1 -1</clus>
<clus scale="   48.853">  2  3  1 -1</clus>
</clustering>
</event>
<event>
 6    0  0.1622933E+002  0.1280655E+03  0.7546771E-02  0.1230355E+00
         -1   -1    0    0    0  501 -0.00000000000E+00  0.00000000000E+00  0.65412312248E+03  0.65412312248E+03  0.00000000000E+00 0. -1.
         21   -1    0    0  505  502  0.00000000000E+00 -0.00000000000E+00 -0.57222355279E+02  0.57222355279E+02  0.00000000000E+00 0. -1.
         21    1    1    2  503  501  0.26896122235E+02  0.18922464505E+02  0.13344245603E+03  0.13743489413E+03  0.00000000000E+00 0. -1.
         21    1    1    2  504  503 -0.55928819727E+02 -0.11265414682E+03  0.23143128839E+03  0.26339975497E+03  0.00000000000E+00 0. -1.
         21    1    1    2  505  504 -0.27811034898E+02 -0.41346053807E+02  0.22148235072E+02  0.54529754669E+02  0.00000000000E+00 0. -1.
         -1    1    1    2    0  502  0.56843732390E+02  0.13507773612E+03  0.20987878770E+03  0.25598107398E+03  0.00000000000E+00 0. -1.
<scales pt_clust_3="32.88558" pt_clust_4="128.06555" pt_clust_5="47.56701" pt_clust_6="14000.00000"></scales>
<clustering>
<clus scale="   32.886">  1  3  2 -1</clus>
<clus scale="   47.567">  2  5  1 -1</clus>
<clus scale="  128.066">  1  4  2 -1</clus>
<clus scale="   47.567">  2  3  1 -1</clus>
</clustering>
</event>
<event>
 6    0  0.1622933E+002  0.7140762E+02  0.7546771E-02  0.1355371E+00
         21   -1    0    0  505  502  0.00000000000E+00  0.00000000000E+00  0.21547935861E+04  0.21547935861E+04  0.00000000000E+00 0. -1.
         -4   -1    0    0    0  501 -0.00000000000E+00 -0.00000000000E+00 -0.76396489109E+03  0.76396489109E+03  0.00000000000E+00 0.  1.
         21    1    1    2  503  504 -0.57258744001E+02 -0.12428535474E+02 -0.14105412135E+03  0.15273931193E+03  0.00000000000E+00 0.  1.
         21    1    1    2  504  501 -0.98091853413E+01  0.45944813674E+02 -0.41900638385E+02  0.62950850015E+02  0.00000000000E+00 0. -1.
         21    1    1    2  505  503 -0.23552329993E+02  0.42995062702E+02  0.21319131472E+04  0.21324767185E+04  0.00000000000E+00 0. -1.
         -4    1    1    2    0  502  0.90620259336E+02 -0.76511340902E+02 -0.55812969246E+03  0.57059159676E+03  0.00000000000E+00 0.  1.
<scales pt_clust_3="14000.00000" pt_clust_4="46.98027" pt_clust_5="49.04116" pt_clust_6="71.40762"></scales>
<clustering>
<clus scale="   46.980">  2  4  1 -1</clus>
<clus scale="   49.041">  1  5  2 -1</clus>
<clus scale="   71.408">  2  6  1 -1</clus>
<clus scale="   49.041">  1  3  2 -1</clus>
</clustering>
</event>
<event>
 6    0  0.1622933E+002  0.9593507E+02  0.7546771E-02  0.1289084E+00
         21   -1    0    0  504  502  0.00000000000E+00  0.00000000000E+00  0.69326399939E+02  0.69326399939E+02  0.00000000000E+00 0. -1.
          1   -1    0    0  503    0 -0.00000000000E+00 -0.00000000000E+00 -0.10644357779E+04  0.10644357779E+04  0.00000000000E+00 0.  1.
         21    1    1    2  503  502  0.60961916797E+02  0.68199244363E+02 -0.20898045401E+03  0.22812348058E+03  0.00000000000E+00 0. -1.
         21    1    1    2  504  505 -0.75481667111E+02  0.23002037766E+02  0.29060332664E+02  0.84089706539E+02  0.00000000000E+00 0. -1.
         21    1    1    2  505  501 -0.37483430914E+01 -0.33019805236E+02 -0.15352580841E+03  0.15708128935E+03  0.00000000000E+00 0. -1.
          1    1    1    2  501    0  0.18268093405E+02 -0.58181476893E+02 -0.66166344823E+03  0.66446770141E+03  0.00000000000E+00 0.  1.
<scales pt_clust_3="85.57344" pt_clust_4="78.90865" pt_clust_5="32.01393" pt_clust_6="32.01393"></scales>
<clustering>
<clus scale="   32.014">  5  6 -1 -1</clus>
<clus scale="   78.909">  1  4  2 -1</clus>
<clus scale="   85.573">  1  3  2 -1</clus>
<clus scale="   78.909">  1  3  2 -1</clus>
</clustering>
</event>
<event>
 6    0  0.1622933E+002  0.6681921E+02  0.7546771E-02  0.1371256E+00
          2   -1    0    0  504    0 -0.00000000000E+00  0.00000000000E+00  0.37771035491E+04  0.37771035491E+04  0.00000000000E+00 0.  1.
         21   -1    0    0  505  502  0.00000000000E+00 -0.00000000000E+00 -0.23740139901E+02  0.23740139901E+02  0.00000000000E+00 0.  1.
         21    1    1    2  503  502  0.59039508655E+02 -0.23579038866E+02  0.49028188094E+03  0.49438644544E+03  0.00000000000E+00 0.  1.
         21    1    1    2  504  503 -0.23442356889E+02  0.58903872325E+02  0.16110224557E+04  0.16122693829E+04  0.00000000000E+00 0.  1.
         21    1    1    2  505  501 -0.11025778404E+01  0.46382671229E+02  0.72138245165E+01  0.46953244110E+02  0.00000000000E+00 0.  1.
          2    1    1    2  501    0 -0.34494573925E+02 -0.81707504688E+02  0.16448452481E+04  0.16472346166E+04  0.00000000000E+00 0.  1.
<scales pt_clust_3="58.46369" pt_clust_4="14000.00000" pt_clust_5="46.39577" pt_clust_6="66.81921"></scales>
<clustering>
<clus scale="   46.396">  2  5  1 -1</clus>
<clus scale="   58.464">  2  3  1 -1</clus>
<clus scale="   66.819">  2  6  1 -1</clus>
<clus scale="   46.396">  2  3  1 -1</clus>
</clustering>
</event>
<event>
 6    0  0.1622933E+002  0.1018333E+03  0.7546771E-02  0.1276487E+00
         21   -1    0    0  501  502  0.00000000000E+00  0.00000000000E+00  0.34728645326E+02  0.34728645326E+02  0.00000000000E+00 0. -1.
          1   -1    0    0  505    0 -0.00000000000E+00 -0.00000000000E+00 -0.13414916220E+04  0.13414916220E+04  0.00000000000E+00 0.  1.
         21    1    1    2  503  504 -0.34011450345E+02  0.24288282124E+02 -0.33907658720E+03  0.34164254915E+03  0.00000000000E+00 0.  1.
         21    1    1    2  504  502  0.73554247621E+02  0.72056543407E+02 -0.63894443964E+02  0.12118115679E+03  0.00000000000E+00 0. -1.
         21    1    1    2  505  503  0.25143089231E+02 -0.28688977011E+02 -0.23212182217E+03  0.23523556845E+03  0.00000000000E+00 0.  1.
          1    1    1    2  501    0 -0.64685886507E+02 -0.67655848521E+02 -0.67167012339E+03  0.67816099298E+03  0.00000000000E+00 0.  1.
<scales pt_clust_3="30.50295" pt_clust_4="101.83330" pt_clust_5="38.14751" pt_clust_6="14000.00000"></scales>
<clustering>
<clus scale="   38.148">  2  5  1 -1</clus>
<clus scale="   30.503">  2  3  1 -1</clus>
<clus scale="  101.833">  1  4  2 -1</clus>
<clus scale="  101.833">  1  3  2 -1</clus>
</clustering>
</event>
<event>
 6    0  0.1622933E+002  0.2429367E+03  0.7546771E-02  0.1117852E+00
         21   -1    0    0  504  502  0.00000000000E+00  0.00000000000E+00  0.44329786156E+02  0.44329786156E+02  0.00000000000E+00 0. -1.
          2   -1    0    0  503    0 -0.00000000000E+00 -0.00000000000E+00 -0.13294962114E+04  0.13294962114E+04  0.00000000000E+00 0. -1.
         21    1    1    2  503  505  0.36405570159E+02 -0.16089277848E+02 -0.16750083168E+03  0.17216491807E+03  0.00000000000E+00 0. -1.
         21    1    1    2  504  501 -0.15624093629E+03  0.10041728413E+02 -0.37416754241E+03  0.40560253485E+03  0.00000000000E+00 0. -1.
         21    1    1    2  505  502  0.19095030911E+03  0.48307897709E+02 -0.45203829687E+03  0.49308649887E+03  0.00000000000E+00 0. -1.
          2    1    1    2  501    0 -0.71114942981E+02 -0.42260348274E+02 -0.29145975426E+03  0.30297204575E+03  0.00000000000E+00 0. -1.
<scales pt_clust_3="34.82620" pt_clust_4="57.64732" pt_clust_5="242.34421" pt_clust_6="57.64732"></scales>
<clustering>
<clus scale="   34.826">  3  5 -1 -1</clus>
<clus scale="   57.647">  4  6 -1 -1</clus>
<clus scale="  242.344">  1  3  2 -1</clus>
<clus scale="  242.344">  1  3  2 -1</clus>
</clustering>
</event>
<event>
 6    0  0.1622933E+002  0.8961378E+02  0.7546771E-02  0.1303790E+00
          2   -1    0    0  504    0 -0.00000000000E+00  0.00000000000E+00  0.37898395139E+04  0.37898395139E+04  0.00000000000E+00 0.  1.
         21   -1    0    0  505  502  0.00000000000E+00 -0.00000000000E+00 -0.90523848693E+02  0.90523848693E+02  0.00000000000E+00 0. -1.
         21    1    1    2  503  501 -0.53626460550E+02 -0.73830469224E+02  0.28158144136E+03  0.29599804657E+03  0.00000000000E+00 0.  1.
         21    1    1    2  504  502  0.45336547424E+02  0.44094901702E+02  0.20454486969E+03  0.21409896451E+03  0.00000000000E+00 0.  1.
         21    1    1    2  505  503 -0.28973934270E+02 -0.51765679207E+02 -0.66636407876E+02  0.89216507808E+02  0.00000000000E+00 0. -1.
          2    1    1    2  501    0  0.37263847396E+02  0.81501246729E+02  0.32798257621E+04  0.32810498437E+04  0.00000000000E+00 0.  1.
<scales pt_clust_3="89.61378" pt_clust_4="42.17119" pt_clust_5="59.32263" pt_clust_6="14000.00000"></scales>
<clustering>
<clus scale="   59.323">  2  5  1 -1</clus>
<clus scale="   42.171">  2  4  1 -1</clus>
<clus scale="   89.614">  2  3  1 -1</clus>
<clus scale="   59.323">  2  3  1 -1</clus>
</clustering>
</event>
<event>
 6    0  0.1622933E+002  0.8408272E+02  0.7546771E-02  0.1317849E+00
          2   -1    0    0  505    0 -0.00000000000E+00  0.00000000000E+00  0.14975901828E+04  0.14975901828E+04  0.00000000000E+00 0.  1.
         21   -1    0    0  501  502  0.00000000000E+00 -0.00000000000E+00 -0.13165902694E+03  0.13165902694E+03  0.00000000000E+00 0. -1.
         21    1    1    2  503  502 -0.53207384517E+02 -0.42013736544E+02 -0.10801741539E+03  0.12753016056E+03  0.00000000000E+00 0. -1.
         21    1    1    2  504  503 -0.13354320259E+02 -0.69416959835E+02  0.10251085730E+04  0.10275430106E+04  0.00000000000E+00 0.  1.
         21    1    1    2  505  504  0.31805742394E+02 -0.33492787627E+01  0.73903484179E+02  0.80526690552E+02  0.00000000000E+00 0.  1.
          2    1    1    2  501    0  0.34755962382E+02  0.11477997514E+03  0.37493651405E+03  0.39364934800E+03  0.00000000000E+00 0.  1.
<scales pt_clust_3="67.63810" pt_clust_4="84.08272" pt_clust_5="31.98160" pt_clust_6="14000.00000"></scales>
<clustering>
<clus scale="   31.982">  1  5  2 -1</clus>
<clus scale="   67.638">  2  3  1 -1</clus>
<clus scale="   84.083">  1  4  2 -1</clus>
<clus scale="   67.638">  2  3  1 -1</clus>
</clustering>
</event>
<event>
 6    0  0.1622933E+002  0.8160050E+02  0.7546771E-02  0.1324570E+00
         21   -1    0    0  505  502  0.00000000000E+00  0.00000000000E+00  0.13023739308E+04  0.13023739308E+04  0.00000000000E+00 0. -1.
          2   -1    0    0  504    0 -0.00000000000E+00 -0.00000000000E+00 -0.45579705278E+02  0.45579705278E+02  0.00000000000E+00 0. -1.
         21    1    1    2  503  502  0.27502511673E+02  0.39413512456E+02  0.95924341926E+03  0.96044664116E+03  0.00000000000E+00 0. -1.
         21    1    1    2  504  503 -0.28052720564E+01 -0.11903396150E+03  0.11852880527E+03  0.16800604519E+03  0.00000000000E+00 0. -1.
         21    1    1    2  505  501  0.17403690943E+02  0.49883239903E+02  0.15278881390E+03  0.16166523354E+03  0.00000000000E+00 0.  1.
          2    1    1    2  501    0 -0.42100930560E+02  0.29737209141E+02  0.26233187068E+02  0.57835716173E+02  0.00000000000E+00 0. -1.
<scales pt_clust_3="48.06052" pt_clust_4="81.60050" pt_clust_5="14000.00000" pt_clust_6="51.91389"></scales>
<clustering>
<clus scale="   48.061">  1  3  2 -1</clus>
<clus scale="   51.914">  2  6  1 -1</clus>
<clus scale="   81.600">  2  4  1 -1</clus>
<clus scale="   48.061">  1  3  2 -1</clus>
</clustering>
</event>
<event>
 6    0  0.1622933E+002  0.9075899E+02  0.7546771E-02  0.1301024E+00
         21   -1    0    0  503  502  0.00000000000E+00  0.00000000000E+00  0.92654509789E+02  0.92654509789E+02  0.00000000000E+00 0.  1.
         -3   -1    0    0    0  501 -0.00000000000E+00 -0.00000000000E+00 -0.26430355037E+03  0.26430355037E+03  0.00000000000E+00 0.  1.
         21    1    1    2  503  505 -0.45377406695E+02 -0.73237146346E+02  0.21917472839E+02  0.88899742738E+02  0.00000000000E+00 0.  1.
         21    1    1    2  504  501 -0.20845140004E+02  0.26926177828E+02 -0.62059976552E+02  0.70788273067E+02  0.00000000000E+00 0. -1.
         21    1    1    2  505  504  0.34230516486E+01 -0.39855639849E+02 -0.42665711218E+02  0.58485487295E+02  0.00000000000E+00 0.  1.
         -3    1    1    2    0  502  0.62799495050E+02  0.86166608367E+02 -0.88840825651E+02  0.13878455706E+03  0.00000000000E+00 0.  1.
<scales pt_clust_3="14000.00000" pt_clust_4="34.05200" pt_clust_5="33.02860" pt_clust_6="90.75899"></scales>
<clustering>
<clus scale="   34.052">  2  4  1 -1</clus>
<clus scale="   33.029">  2  5  1 -1</clus>
<clus scale="   90.759">  2  6  1 -1</clus>
<clus scale="   90.759">  1  3  2 -1</clus>
</clustering>
</event>
<event>
 6    0  0.1622933E+002  0.6744754E+02  0.7546771E-02  0.1368994E+00
         21   -1    0    0  505  502  0.00000000000E+00  0.00000000000E+00  0.16925089084E+03  0.16925089084E+03  0.00000000000E+00 0. -1.
          1   -1    0    0  504    0 -0.00000000000E+00 -0.00000000000E+00 -0.11515773115E+04  0.11515773115E+04  0.00000000000E+00 0. -1.
         21    1    1    2  503  502  0.68426345346E+02  0.15375764518E+02 -0.29622760713E+03  0.30441644847E+03  0.00000000000E+00 0. -1.
         21    1    1    2  504  503 -0.35476942072E+02  0.19241153641E+02 -0.14299305638E+03  0.14857943864E+03  0.00000000000E+00 0.  1.
         21    1    1    2  505  501  0.67115359251E+02 -0.27926703553E+00  0.15124532896E+03  0.16546812070E+03  0.00000000000E+00 0. -1.
          1    1    1    2  501    0 -0.10006476253E+03 -0.34337651123E+02 -0.69435108609E+03  0.70236419452E+03  0.00000000000E+00 0. -1.
<scales pt_clust_3="61.56927" pt_clust_4="40.35883" pt_clust_5="67.44754" pt_clust_6="14000.00000"></scales>
<clustering>
<clus scale="   40.359">  2  4  1 -1</clus>
<clus scale="   61.569">  2  3  1 -1</clus>
<clus scale="   67.448">  1  5  2 -1</clus>
<clus scale="   67.448">  1  3  2 -1</clus>
</clustering>
</event>
<event>
 6    0  0.1622933E+002  0.2336660E+03  0.7546771E-02  0.1124086E+00
         21   -1    0    0  503  502  0.00000000000E+00  0.00000000000E+00  0.21105854345E+03  0.21105854345E+03  0.00000000000E+00 0.  1.
          1   -1    0    0  504    0 -0.00000000000E+00 -0.00000000000E+00 -0.16931687068E+04  0.16931687068E+04  0.00000000000E+00 0.  1.
         21    1    1    2  503  501 -0.18657677260E+01  0.39564521943E+02 -0.17071157794E+02  0.43130695730E+02  0.00000000000E+00 0.  1.
         21    1    1    2  504  505  0.24296707971E+02  0.72755010963E+02 -0.18846858725E+03  0.20347980248E+03  0.00000000000E+00 0.  1.
         21    1    1    2  505  502  0.15643936295E+03  0.13354047962E+03  0.11333664259E+03  0.23484362569E+03  0.00000000000E+00 0.  1.
          1    1    1    2  501    0 -0.17887030319E+03 -0.24586001252E+03 -0.13899070609E+04  0.14227731263E+04  0.00000000000E+00 0.  1.
<scales pt_clust_3="39.60849" pt_clust_4="78.10659" pt_clust_5="233.66600" pt_clust_6="14000.00000"></scales>
<clustering>
<clus scale="   39.608">  1  3  2 -1</clus>
<clus scale="   78.107">  2  4  1 -1</clus>
<clus scale="  233.666">  1  5  2 -1</clus>
<clus scale="   39.608">  1  3  2 -1</clus>
</clustering>
</event>
<event>
 6    0  0.1622933E+002  0.9531636E+02  0.7546771E-02  0.1290465E+00
         21   -1    0    0  501  502  0.00000000000E+00  0.00000000000E+00  0.44133146716E+02  0.44133146716E+02  0.00000000000E+00 0.  1.
          2   -1    0    0  505    0 -0.00000000000E+00 -0.00000000000E+00 -0.45466181544E+03  0.45466181544E+03  0.00000000000E+00 0.  1.
         21    1    1    2  503  502  0.33101711709E+02 -0.18624996952E+02 -0.46556878230E+02  0.60084579886E+02  0.00000000000E+00 0.  1.
         21    1    1    2  504  503  0.49042087041E+02  0.96637489566E+02 -0.12444694811E+03  0.16501810078E+03  0.00000000000E+00 0.  1.
         21    1    1    2  505  504 -0.51675830232E+02 -0.73588613301E+02 -0.21886082007E+03  0.23661304698E+03  0.00000000000E+00 0.  1.
          2    1    1    2  501    0 -0.30467968517E+02 -0.44238793135E+01 -0.20664022302E+02  0.37079234505E+02  0.00000000000E+00 0.  1.
<scales pt_clust_3="33.57788" pt_clust_4="14000.00000" pt_clust_5="95.31636" pt_clust_6="30.78746"></scales>
<clustering>
<clus scale="   30.787">  1  6  2 -1</clus>
<clus scale="   33.578">  1  3  2 -1</clus>
<clus scale="   95.316">  2  5  1 -1</clus>
<clus scale="   30.787">  1  3  2 -1</clus>
</clustering>
</event>
<event>
 6    0  0.1622933E+002  0.1964280E+03  0.7546771E-02  0.1152788E+00
         21   -1    0    0  503  502  0.00000000000E+00  0.00000000000E+00  0.52961694677E+02  0.52961694677E+02  0.00000000000E+00 0.  1.
          2   -1    0    0  504    0 -0.00000000000E+00 -0.00000000000E+00 -0.30903217388E+04  0.30903217388E+04  0.00000000000E+00 0.  1.
         21    1    1    2  503  501  0.88314121912E+02 -0.18610595757E+03 -0.85957248216E+03  0.88391157004E+03  0.00000000000E+00 0.  1.
         21    1    1    2  504  505 -0.14768793974E+03  0.47273842817E+02 -0.12809990153E+04  0.12903507357E+04  0.00000000000E+00 0.  1.
         21    1    1    2  505  502 -0.10977923235E+03  0.15830875472E+03 -0.40251241521E+03  0.44623915793E+03  0.00000000000E+00 0.  1.
          2    1    1    2  501    0  0.16915305018E+03 -0.19476639967E+02 -0.49427613145E+03  0.52278196986E+03  0.00000000000E+00 0.  1.
<scales pt_clust_3="14000.00000" pt_clust_4="155.06948" pt_clust_5="196.42796" pt_clust_6="127.68472"></scales>
<clustering>
<clus scale="  155.069">  2  4  1 -1</clus>
<clus scale="  127.685">  2  6  1 -1</clus>
<clus scale="  196.428">  1  5  2 -1</clus>
<clus scale="  196.428">  1  3  2 -1</clus>
</clustering>
</event>
<event>
 6    0  0.1622933E+002  0.3154771E+03  0.7546771E-02  0.1077750E+00
          1   -1    0    0  505    0 -0.00000000000E+00  0.00000000000E+00  0.32012295354E+04  0.32012295354E+04  0.00000000000E+00 0.  1.
         21   -1    0    0  503  502  0.00000000000E+00 -0.00000000000E+00 -0.11521256347E+03  0.11521256347E+03  0.00000000000E+00 0.  1.
         21    1    1    2  503  501 -0.37484620578E+02  0.26866346442E+03  0.99791583077E+03  0.10341282122E+04  0.00000000000E+00 0. -1.
         21    1    1    2  504  502 -0.19693751240E+02 -0.32932465116E+03  0.21251262987E+03  0.39243367281E+03  0.00000000000E+00 0.  1.
         21    1    1    2  505  504  0.30208140294E+02 -0.79391075771E+02  0.53141040219E+03  0.53815656663E+03  0.00000000000E+00 0.  1.
          1    1    1    2  501    0  0.26970231524E+02  0.14005226251E+03  0.13441781091E+04  0.13517236473E+04  0.00000000000E+00 0.  1.
<scales pt_clust_3="315.47706" pt_clust_4="14000.00000" pt_clust_5="84.94395" pt_clust_6="108.48025"></scales>
<clustering>
<clus scale="   84.944">  1  5  2 -1</clus>
<clus scale="  108.480">  1  6  2 -1</clus>
<clus scale="  315.477">  1  3  2 -1</clus>
<clus scale="  315.477">  2  3  1 -1</clus>
</clustering>
</event>
<event>
 6    0  0.1622933E+002  0.1293803E+03  0.7546771E-02  0.1228378E+00
         21   -1    0    0  505  502  0.00000000000E+00  0.00000000000E+00  0.39901509440E+03  0.39901509440E+03  0.00000000000E+00 0.  1.
         -1   -1    0    0    0  501 -0.00000000000E+00 -0.00000000000E+00 -0.85088611869E+02  0.85088611869E+02  0.00000000000E+00 0.  1.
         21    1    1    2  503  501  0.43495568502E+00  0.46699733199E+02  0.81259679618E+01  0.47403434713E+02  0.00000000000E+00 0. -1.
         21    1    1    2  504  502  0.66214895900E+02 -0.92701970011E+01  0.39641957906E+02  0.77729233999E+02  0.00000000000E+00 0.  1.
         21    1    1    2  505  503 -0.11642732453E+03 -0.31372433101E+02  0.28174212444E+03  0.30646072528E+03  0.00000000000E+00 0.  1.
         -1    1    1    2    0  504  0.49777472946E+02 -0.60571030964E+01 -0.15583567776E+02  0.52510312277E+02  0.00000000000E+00 0.  1.
<scales pt_clust_3="46.70176" pt_clust_4="44.95274" pt_clust_5="118.51109" pt_clust_6="44.95274"></scales>
<clustering>
<clus scale="   44.953">  4  6 -1 -1</clus>
<clus scale="   46.702">  2  3  1 -1</clus>
<clus scale="  118.511">  1  5  2 -1</clus>
<clus scale="  118.511">  1  3  2 -1</clus>
</clustering>
</event>
<event>
 6    0  0.1622933E+002  0.8308699E+02  0.7546771E-02  0.1320512E+00
         21   -1    0    0  505  502  0.00000000000E+00  0.00000000000E+00  0.28086078367E+03  0.28086078367E+03  0.00000000000E+00 0. -1.
         -1   -1    0    0    0  501 -0.00000000000E+00 -0.00000000000E+00 -0.10445018426E+04  0.10445018426E+04  0.00000000000E+00 0.  1.
         21    1    1    2  503  504  0.40725694605E+02  0.30614210240E+02 -0.17145916834E+02  0.53756809185E+02  0.00000000000E+00 0. -1.
         21    1    1    2  504  502 -0.19317041390E+02  0.30171422163E+02  0.25082255996E+03  0.25336814991E+03  0.00000000000E+00 0. -1.
         21    1    1    2  505  501 -0.71037482669E+02  0.16221662829E+02 -0.15867621609E+03  0.17460700972E+03  0.00000000000E+00 0. -1.
         -1    1    1    2    0  503  0.49628829454E+02 -0.77007295231E+02 -0.83864148597E+03  0.84363065747E+03  0.00000000000E+00 0.  1.
<scales pt_clust_3="57.35768" pt_clust_4="35.82545" pt_clust_5="83.08699" pt_clust_6="14000.00000"></scales>
<clustering>
<clus scale="   35.825">  1  4  2 -1</clus>
<clus scale="   57.358">  1  3  2 -1</clus>
<clus scale="   83.087">  1  5  2 -1</clus>
<clus scale="   35.825">  1  3  2 -1</clus>
</clustering>
</event>
<event>
 6    0  0.1622933E+002  0.9371864E+02  0.7546771E-02  0.1294088E+00
         -1   -1    0    0    0  501 -0.00000000000E+00  0.00000000000E+00  0.12797942790E+03  0.12797942790E+03  0.00000000000E+00 0.  1.
         21   -1    0    0  503  502  0.00000000000E+00 -0.00000000000E+00 -0.91650588560E+03  0.91650588560E+03  0.00000000000E+00 0. -1.
         21    1    1    2  503  504  0.30321241108E+02 -0.60069926260E+02 -0.29240600311E+02  0.73367475149E+02  0.00000000000E+00 0.  1.
         21    1    1    2  504  501  0.19980672741E+02  0.36768703139E+02  0.40356435333E+02  0.58136104845E+02  0.00000000000E+00 0. -1.
         21    1    1    2  505  502 -0.84474148338E+02  0.50445885210E+02 -0.84460827846E+03  0.85031982990E+03  0.00000000000E+00 0. -1.
         -1    1    1    2    0  505  0.34172234489E+02 -0.27144662089E+02  0.44965985739E+02  0.62661903605E+02  0.00000000000E+00 0.  1.
<scales pt_clust_3="93.71864" pt_clust_4="41.84692" pt_clust_5="14000.00000" pt_clust_6="47.87134"></scales>
<clustering>
<clus scale="   41.847">  1  4  2 -1</clus>
<clus scale="   47.871">  1  6  2 -1</clus>
<clus scale="   93.719">  1  3  2 -1</clus>
<clus scale="   93.719">  2  3  1 -1</clus>
</clustering>
</event>
<event>
 6    0  0.1622933E+002  0.1248250E+03  0.7546771E-02  0.1235343E+00
         21   -1    0    0  505  502  0.00000000000E+00  0.00000000000E+00  0.13139608187E+03  0.13139608187E+03  0.00000000000E+00 0.  1.
          2   -1    0    0  503    0 -0.00000000000E+00 -0.00000000000E+00 -0.78119816628E+03  0.78119816628E+03  0.00000000000E+00 0.  1.
         21    1    1    2  503  504 -0.28140648481E+02 -0.45757778249E+02 -0.51511223711E+03  0.51790567402E+03  0.00000000000E+00 0.  1.
         21    1    1    2  504  502  0.70531508181E+02  0.89833852657E+01  0.55345290179E+01  0.71316378683E+02  0.00000000000E+00 0.  1.
         21    1    1    2  505  501  0.30699020015E+02  0.10368180057E+03  0.41957541246E+02  0.11598612360E+03  0.00000000000E+00 0.  1.
          2    1    1    2  501    0 -0.73089879715E+02 -0.66907407591E+02 -0.18218191757E+03  0.20738607185E+03  0.00000000000E+00 0.  1.
<scales pt_clust_3="53.71844" pt_clust_4="67.11573" pt_clust_5="14000.00000" pt_clust_6="124.82504"></scales>
<clustering>
<clus scale="   53.718">  2  3  1 -1</clus>
<clus scale="   67.116">  1  4  2 -1</clus>
<clus scale="  124.825">  2  6  1 -1</clus>
<clus scale="   67.116">  1  3  2 -1</clus>
</clustering>
</event>
<event>
 6    0  0.1622933E+002  0.5248611E+03  0.7546771E-02  0.1007486E+00
         21   -1    0    0  503  502  0.00000000000E+00  0.00000000000E+00  0.67601680983E+03  0.67601680983E+03  0.00000000000E+00 0.  1.
          2   -1    0    0  504    0 -0.00000000000E+00 -0.00000000000E+00 -0.88888124634E+03  0.88888124634E+03  0.00000000000E+00 0. -1.
         21    1    1    2  503  505  0.45335794283E+01 -0.29808785025E+02  0.91321420321E+02  0.96170259522E+02  0.00000000000E+00 0. -1.
         21    1    1    2  504  502  0.60431411309E+03  0.11366505001E+02  0.17547836554E+03  0.62937858359E+03  0.00000000000E+00 0.  1.
         21    1    1    2  505  501 -0.10459388248E+03 -0.84843456883E+01  0.42257803254E+02  0.11312641739E+03  0.00000000000E+00 0. -1.
          2    1    1    2  501    0 -0.50425381003E+03  0.26926625713E+02 -0.52192202563E+03  0.72622279566E+03  0.00000000000E+00 0. -1.
<scales pt_clust_3="30.15157" pt_clust_4="524.86106" pt_clust_5="104.73299" pt_clust_6="14000.00000"></scales>
<clustering>
<clus scale="   30.152">  1  3  2 -1</clus>
<clus scale="  104.733">  1  5  2 -1</clus>
<clus scale="  524.861">  1  4  2 -1</clus>
<clus scale="   30.152">  1  3  2 -1</clus>
</clustering>
</event>
<event>
 6    0  0.1622933E+002  0.9095247E+02  0.7546771E-02  0.1300561E+00
         21   -1    0    0  505  502  0.00000000000E+00  0.00000000000E+00  0.24199556480E+02  0.24199556480E+02  0.00000000000E+00 0.  1.
          2   -1    0    0  503    0 -0.00000000000E+00 -0.00000000000E+00 -0.15183263404E+04  0.15183263404E+04  0.00000000000E+00 0.  1.
         21    1    1    2  503  502 -0.22716021669E+02 -0.78840180768E+02 -0.12875887015E+03  0.15267821844E+03  0.00000000000E+00 0.  1.
         21    1    1    2  504  501  0.53586037343E+02 -0.17848456249E+02 -0.74480517436E+03  0.74694362474E+03  0.00000000000E+00 0.  1.
         21    1    1    2  505  504  0.13866144897E+02  0.11541362699E+03 -0.37520739651E+03  0.39280168745E+03  0.00000000000E+00 0.  1.
          2    1    1    2  501    0 -0.44736160572E+02 -0.18724989972E+02 -0.24535534286E+03  0.25010236620E+03  0.00000000000E+00 0.  1.
<scales pt_clust_3="14000.00000" pt_clust_4="39.72929" pt_clust_5="90.95247" pt_clust_6="48.49690"></scales>
<clustering>
<clus scale="   48.497">  2  6  1 -1</clus>
<clus scale="   39.729">  2  4  1 -1</clus>
<clus scale="   90.952">  2  5  1 -1</clus>
<clus scale="   90.952">  1  3  2 -1</clus>
</clustering>
</event>
<event>
 6    0  0.1622933E+002  0.9392089E+02  0.7546771E-02  0.1293625E+00
         21   -1    0    0  503  502  0.00000000000E+00  0.00000000000E+00  0.37295573150E+03  0.37295573150E+03  0.00000000000E+00 0. -1.
         -3   -1    0    0    0  501 -0.00000000000E+00 -0.00000000000E+00 -0.76621810399E+03  0.76621810399E+03  0.00000000000E+00 0. -1.
         21    1    1    2  503  504 -0.62165803880E+02  0.73580690307E+02  0.35292901351E+03  0.36583820705E+03  0.00000000000E+00 0. -1.
         21    1    1    2  504  505  0.55592297257E+02  0.13565077654E+02 -0.99150383440E+02  0.11447844069E+03  0.00000000000E+00 0. -1.
         21    1    1    2  505  501  0.25423423119E+02 -0.31689454074E+02 -0.48239881761E+03  0.48410659071E+03  0.00000000000E+00 0.  1.
         -3    1    1    2    0  502 -0.18849916496E+02 -0.55456313887E+02 -0.16464218495E+03  0.17475059704E+03  0.00000000000E+00 0. -1.
<scales pt_clust_3="14000.00000" pt_clust_4="65.20889" pt_clust_5="40.62723" pt_clust_6="93.92089"></scales>
<clustering>
<clus scale="   40.627">  2  5  1 -1</clus>
<clus scale="   65.209">  2  4  1 -1</clus>
<clus scale="   93.921">  2  6  1 -1</clus>
<clus scale="   93.921">  1  3  2 -1</clus>
</clustering>
</event>
<event>
 6    0  0.1622933E+002  0.1068651E+03  0.7546771E-02  0.1266488E+00
          1   -1    0    0  504    0 -0.00000000000E+00  0.00000000000E+00  0.24293736961E+04  0.24293736961E+04  0.00000000000E+00 0. -1.
         21   -1    0    0  501  502  0.00000000000E+00 -0.00000000000E+00 -0.18163275116E+02  0.18163275116E+02  0.00000000000E+00 0. -1.
         21    1    1    2  503  502  0.82143802684E+02  0.98862622921E+02  0.40063655834E+03  0.42075060833E+03  0.00000000000E+00 0. -1.
         21    1    1    2  504  505  0.25876519392E+02 -0.61562740345E+02  0.93859964133E+03  0.94097229075E+03  0.00000000000E+00 0. -1.
         21    1    1    2  505  503 -0.37879939416E+02 -0.77502589245E+02  0.41400958740E+03  0.42290126461E+03  0.00000000000E+00 0. -1.
          1    1    1    2  501    0 -0.70140382661E+02  0.40202706669E+02  0.65796463394E+03  0.66291280756E+03  0.00000000000E+00 0. -1.
<scales pt_clust_3="14000.00000" pt_clust_4="66.77998" pt_clust_5="106.86510" pt_clust_6="60.07065"></scales>
<clustering>
<clus scale="   66.780">  1  4  2 -1</clus>
<clus scale="   60.071">  1  6  2 -1</clus>
<clus scale="  106.865">  1  5  2 -1</clus>
<clus scale="  106.865">  2  3  1 -1</clus>
</clustering>
</event>
<event>
 6    0  0.1622933E+002  0.7253672E+02  0.7546771E-02  0.1351673E+00
         -1   -1    0    0    0  501 -0.00000000000E+00  0.00000000000E+00  0.92561440826E+03  0.92561440826E+03  0.00000000000E+00 0.  1.
         21   -1    0    0  504  502  0.00000000000E+00 -0.00000000000E+00 -0.27557032509E+02  0.27557032509E+02  0.00000000000E+00 0. -1.
         21    1    1    2  503  501  0.47736764961E+02 -0.11817606366E+02  0.19208712527E+03  0.19828242041E+03  0.00000000000E+00 0.  1.
         21    1    1    2  504  503  0.55312663847E+02  0.71430290360E+02  0.10222109316E+03  0.13642187892E+03  0.00000000000E+00 0. -1.
         21    1    1    2  505  502 -0.13513629756E+02 -0.29865570557E+02  0.82976157075E+02  0.89216664008E+02  0.00000000000E+00 0.  1.
         -1    1    1    2    0  505 -0.89535799051E+02 -0.29747113437E+02  0.52077300025E+03  0.52925047743E+03  0.00000000000E+00 0.  1.
<scales pt_clust_3="48.59684" pt_clust_4="72.53672" pt_clust_5="32.78064" pt_clust_6="14000.00000"></scales>
<clustering>
<clus scale="   32.781">  2  5  1 -1</clus>
<clus scale="   48.597">  1  3  2 -1</clus>
<clus scale="   72.537">  2  4  1 -1</clus>
<clus scale="   32.781">  2  3  1 -1</clus>
</clustering>
</event>
<event>
 6    0  0.1622933E+002  0.1162412E+03  0.7546771E-02  0.1249430E+00
         21   -1    0    0  505  502  0.00000000000E+00  0.00000000000E+00  0.13030441731E+03  0.13030441731E+03  0.00000000000E+00 0. -1.
          2   -1    0    0  503    0 -0.00000000000E+00 -0.00000000000E+00 -0.16085768234E+04  0.16085768234E+04  0.00000000000E+00 0.  1.
         21    1    1    2  503  502 -0.32539345388E+02  0.36626783135E+02  0.11495075557E+03  0.12495601805E+03  0.00000000000E+00 0. -1.
         21    1    1    2  504  501  0.38027625027E+02 -0.21371073114E+02 -0.42637046235E+03  0.42859607347E+03  0.00000000000E+00 0.  1.
         21    1    1    2  505  504 -0.81282947442E+02 -0.40363546571E+02 -0.26824340915E+03  0.28317955432E+03  0.00000000000E+00 0. -1.
          2    1    1    2  501    0  0.75794667804E+02  0.25107836550E+02 -0.89860929013E+03  0.90214959482E+03  0.00000000000E+00 0.  1.
<scales pt_clust_3="48.99317" pt_clust_4="35.77925" pt_clust_5="105.68261" pt_clust_6="35.77925"></scales>
<clustering>
<clus scale="   35.779">  4  6 -1 -1</clus>
<clus scale="   48.993">  1  3  2 -1</clus>
<clus scale="  105.683">  1  5  2 -1</clus>
<clus scale="   48.993">  1  3  2 -1</clus>
</clustering>
</event>
<event>
 6    0  0.1622933E+002  0.1249797E+03  0.7546771E-02  0.1235101E+00
         -1   -1    0    0    0  501 -0.00000000000E+00  0.00000000000E+00  0.15518931760E+04  0.15518931760E+04  0.00000000000E+00 0. -1.
         21   -1    0    0  505  502  0.00000000000E+00 -0.00000000000E+00 -0.23287666101E+02  0.23287666101E+02  0.00000000000E+00 0. -1.
         21    1    1    2  503  504  0.46742261996E+02  0.50787878144E+02  0.48220515693E+03  0.48712017099E+03  0.00000000000E+00 0. -1.
         21    1    1    2  504  502  0.15101066024E+01  0.32902611660E+02  0.19496340144E+02  0.38274920705E+02  0.00000000000E+00 0. -1.
         21    1    1    2  505  501 -0.57505911382E+02 -0.12687744297E+03  0.44701255326E+03  0.46821473509E+03  0.00000000000E+00 0. -1.
         -1    1    1    2    0  503  0.92535427841E+01  0.43186953162E+02  0.57989145959E+03  0.58157101534E+03  0.00000000000E+00 0. -1.
<scales pt_clust_3="36.15368" pt_clust_4="32.93725" pt_clust_5="116.34044" pt_clust_6="36.15368"></scales>
<clustering>
<clus scale="   32.937">  2  4  1 -1</clus>
<clus scale="   36.154">  3  6 -1 -1</clus>
<clus scale="  116.340">  2  5  1 -1</clus>
<clus scale="   32.937">  2  3  1 -1</clus>
</clustering>
</event>
<event>
 6    0  0.1622933E+002  0.1005995E+03  0.7546771E-02  0.1279040E+00
          2   -1    0    0  505    0 -0.00000000000E+00  0.00000000000E+00  0.22482373012E+04  0.22482373012E+04  0.00000000000E+00 0.  1.
         21   -1    0    0  501  502  0.00000000000E+00 -0.00000000000E+00 -0.11674390174E+02  0.11674390174E+02  0.00000000000E+00 0.  1.
         21    1    1    2  503  502 -0.75426983025E+02 -0.62128186766E+02  0.42378003284E+03  0.43490074453E+03  0.00000000000E+00 0.  1.
         21    1    1    2  504  503 -0.51888032786E+02  0.21048295737E+02  0.40018498648E+03  0.40408343458E+03  0.00000000000E+00 0.  1.
         21    1    1    2  505  504  0.33764582496E+02 -0.10729190217E+02  0.63796733936E+03  0.63895030217E+03  0.00000000000E+00 0. -1.
          2    1    1    2  501    0  0.93550433315E+02  0.51809081247E+02  0.77463055234E+03  0.78197721008E+03  0.00000000000E+00 0.  1.
<scales pt_clust_3="100.59946" pt_clust_4="47.17609" pt_clust_5="35.42827" pt_clust_6="14000.00000"></scales>
<clustering>
<clus scale="   35.428">  1  5  2 -1</clus>
<clus scale="   47.176">  1  4  2 -1</clus>
<clus scale="  100.599">  2  3  1 -1</clus>
<clus scale="  100.599">  2  3  1 -1</clus>
</clustering>
</event>
<event>
 6    0  0.1622933E+002  0.9404757E+02  0.7546771E-02  0.1293336E+00
          2   -1    0    0  504    0 -0.00000000000E+00  0.00000000000E+00  0.17378785752E+04  0.17378785752E+04  0.00000000000E+00 0. -1.
         21   -1    0    0  505  502  0.00000000000E+00 -0.00000000000E+00 -0.19411885856E+04  0.19411885856E+04  0.00000000000E+00 0. -1.
         21    1    1    2  503  501 -0.12527745936E+03  0.23372972438E+01  0.23363611977E+03  0.26511458135E+03  0.00000000000E+00 0. -1.
         21    1    1    2  504  502  0.32304140423E+02  0.14937955785E+02  0.33828084334E+03  0.34014795160E+03  0.00000000000E+00 0.  1.
         21    1    1    2  505  503  0.68590326804E+02  0.64372978437E+02 -0.19217843791E+04  0.19240851627E+04  0.00000000000E+00 0. -1.
          2    1    1    2  501    0  0.24382992135E+02 -0.81648231466E+02  0.11465574057E+04  0.11497194652E+04  0.00000000000E+00 0. -1.
<scales pt_clust_3="94.04757" pt_clust_4="35.59073" pt_clust_5="14000.00000" pt_clust_6="86.05410"></scales>
<clustering>
<clus scale="   35.591">  1  4  2 -1</clus>
<clus scale="   86.054">  1  6  2 -1</clus>
<clus scale="   94.048">  1  3  2 -1</clus>
<clus scale="   94.048">  2  3  1 -1</clus>
</clustering>
</event>
<event>
 6    0  0.1622933E+002  0.7596904E+02  0.7546771E-02  0.1340896E+00
          2   -1    0    0  503    0 -0.00000000000E+00  0.00000000000E+00  0.13702842253E+04  0.13702842253E+04  0.00000000000E+00 0. -1.
         21   -1    0    0  501  502  0.00000000000E+00 -0.00000000000E+00 -0.20193137999E+02  0.20193137999E+02  0.00000000000E+00 0. -1.
         21    1    1    2  503  505  0.99330938299E+01 -0.28732677342E+02  0.38907835321E+03  0.39026426692E+03  0.00000000000E+00 0. -1.
         21    1    1    2  504  502  0.61521982815E+02  0.33991256706E+02  0.14738129238E+03  0.16328381808E+03  0.00000000000E+00 0. -1.
         21    1    1    2  505  504 -0.52619324946E+02 -0.68630794054E+02  0.17828910189E+03  0.19815646117E+03  0.00000000000E+00 0. -1.
          2    1    1    2  501    0 -0.18835751699E+02  0.63372214690E+02  0.63534233983E+03  0.63877281714E+03  0.00000000000E+00 0. -1.
<scales pt_clust_3="30.40120" pt_clust_4="75.96904" pt_clust_5="14000.00000" pt_clust_6="46.38916"></scales>
<clustering>
<clus scale="   30.401">  1  3  2 -1</clus>
<clus scale="   46.389">  1  6  2 -1</clus>
<clus scale="   75.969">  2  4  1 -1</clus>
<clus scale="   75.969">  2  3  1 -1</clus>
</clustering>
</event>
<event>
 6    0  0.1622933E+002  0.5703077E+02  0.7546771E-02  0.1410732E+00
         21   -1    0    0  503  502  0.00000000000E+00  0.00000000000E+00  0.80173642381E+03  0.80173642381E+03  0.00000000000E+00 0. -1.
         -2   -1    0    0    0  501 -0.00000000000E+00 -0.00000000000E+00 -0.14023471283E+03  0.14023471283E+03  0.00000000000E+00 0.  1.
         21    1    1    2  503  505  0.20977070406E+01 -0.48372006715E+02  0.17969477166E+02  0.51644491653E+02  0.00000000000E+00 0.  1.
         21    1    1    2  504  502  0.38800971834E+02 -0.40690382304E+02  0.70484934701E+03  0.70708827215E+03  0.00000000000E+00 0. -1.
         21    1    1    2  505  501  0.44461024115E+02 -0.44876963929E+01 -0.61685606897E+01  0.45110677508E+02  0.00000000000E+00 0.  1.
         -2    1    1    2    0  504 -0.85359702989E+02  0.93550085413E+02 -0.55148552500E+02  0.13812769533E+03  0.00000000000E+00 0.  1.
<scales pt_clust_3="49.78514" pt_clust_4="14000.00000" pt_clust_5="44.68693" pt_clust_6="57.03077"></scales>
<clustering>
<clus scale="   44.687">  2  5  1 -1</clus>
<clus scale="   49.785">  2  3  1 -1</clus>
<clus scale="   57.031">  2  6  1 -1</clus>
<clus scale="   57.031">  1  3  2 -1</clus>
</clustering>
</event>
<event>
 6    0  0.1622933E+002  0.1066414E+03  0.7546771E-02  0.1266919E+00
          2   -1    0    0  504    0 -0.00000000000E+00  0.00000000000E+00  0.37369657105E+03  0.37369657105E+03  0.00000000000E+00 0. -1.
         21   -1    0    0  501  502  0.00000000000E+00 -0.00000000000E+00 -0.25518486314E+03  0.25518486314E+03  0.00000000000E+00 0. -1.
         21    1    1    2  503  505 -0.63566229022E+02  0.28667489713E+01  0.25971817687E+02  0.68727134639E+02  0.00000000000E+00 0. -1.
         21    1    1    2  504  503  0.13076303686E+01  0.68095058436E+02  0.70792601760E+02  0.98235631746E+02  0.00000000000E+00 0. -1.
         21    1    1    2  505  502  0.11444107007E+03 -0.47711584393E+02 -0.19868808337E+03  0.23420099974E+03  0.00000000000E+00 0. -1.
          2    1    1    2  501    0 -0.52182471421E+02 -0.23250223014E+02  0.22043537183E+03  0.22771766806E+03  0.00000000000E+00 0. -1.
<scales pt_clust_3="106.64144" pt_clust_4="61.75969" pt_clust_5="14000.00000" pt_clust_6="57.12778"></scales>
<clustering>
<clus scale="   57.128">  1  6  2 -1</clus>
<clus scale="   61.760">  1  4  2 -1</clus>
<clus scale="  106.641">  1  3  2 -1</clus>
<clus scale="  106.641">  2  3  1 -1</clus>
</clustering>
</event>
<event>
 6    0  0.1622933E+002  0.1063059E+03  0.7546771E-02  0.1267568E+00
         21   -1    0    0  501  502  0.00000000000E+00  0.00000000000E+00  0.30897490262E+02  0.30897490262E+02  0.00000000000E+00 0. -1.
          2   -1    0    0  505    0 -0.00000000000E+00 -0.00000000000E+00 -0.12059040867E+04  0.12059040867E+04  0.00000000000E+00 0. -1.
         21    1    1    2  503  504  0.39934458759E+02  0.10142850779E+03 -0.12154207629E+03  0.16326352776E+03  0.00000000000E+00 0. -1.
         21    1    1    2  504  502  0.27645736022E+02 -0.23676411464E+02 -0.10456657162E+03  0.11072049079E+03  0.00000000000E+00 0. -1.
         21    1    1    2  505  503  0.35562761690E+02 -0.13820773060E+02 -0.32464475281E+03  0.32687908975E+03  0.00000000000E+00 0.  1.
          2    1    1    2  501    0 -0.10314295647E+03 -0.63931323263E+02 -0.62425319569E+03  0.63593846863E+03  0.00000000000E+00 0. -1.
<scales pt_clust_3="14000.00000" pt_clust_4="36.39862" pt_clust_5="39.53607" pt_clust_6="106.30591"></scales>
<clustering>
<clus scale="   36.399">  1  4  2 -1</clus>
<clus scale="   39.536">  2  5  1 -1</clus>
<clus scale="  106.306">  2  6  1 -1</clus>
<clus scale="   36.399">  1  3  2 -1</clus>
</clustering>
</event>
<event>
 6    0  0.1622933E+002  0.1406872E+03  0.7546771E-02  0.1212407E+00
         21   -1    0    0  501  502  0.00000000000E+00  0.00000000000E+00  0.12407688543E+03  0.12407688543E+03  0.00000000000E+00 0.  1.
          2   -1    0    0  503    0 -0.00000000000E+00 -0.00000000000E+00 -0.10527224856E+04  0.10527224856E+04  0.00000000000E+00 0.  1.
         21    1    1    2  503  505 -0.48336651161E+02 -0.30939383265E+02 -0.72998362747E+03  0.73223614610E+03  0.00000000000E+00 0.  1.
         21    1    1    2  504  502 -0.33768654645E+02  0.28581541015E+02  0.44768272653E+02  0.62939850331E+02  0.00000000000E+00 0.  1.
         21    1    1    2  505  504 -0.10391703183E+03 -0.11144430322E+02 -0.11366414516E+03  0.15441012183E+03  0.00000000000E+00 0.  1.
          2    1    1    2  501    0  0.18602233763E+03  0.13502272572E+02 -0.12976610014E+03  0.22721325271E+03  0.00000000000E+00 0.  1.
<scales pt_clust_3="57.60359" pt_clust_4="44.24055" pt_clust_5="14000.00000" pt_clust_6="140.68719"></scales>
<clustering>
<clus scale="   44.241">  1  4  2 -1</clus>
<clus scale="   57.604">  2  3  1 -1</clus>
<clus scale="  140.687">  1  6  2 -1</clus>
<clus scale="   44.241">  1  3  2 -1</clus>
</clustering>
</event>
<event>
 6    0  0.1622933E+002  0.2029640E+03  0.7546771E-02  0.1147262E+00
         21   -1    0    0  504  502  0.00000000000E+00  0.00000000000E+00  0.36227174968E+03  0.36227174968E+03  0.00000000000E+00 0.  1.
          2   -1    0    0  503    0 -0.00000000000E+00 -0.00000000000E+00 -0.19886672221E+04  0.19886672221E+04  0.00000000000E+00 0. -1.
         21    1    1    2  503  505 -0.42033714946E+02  0.80464274614E+01 -0.50460861622E+02  0.66165525333E+02  0.00000000000E+00 0.  1.
         21    1    1    2  504  501  0.15349723489E+03 -0.13213158957E+03  0.31372831949E+03  0.37342417775E+03  0.00000000000E+00 0.  1.
         21    1    1    2  505  502  0.37756346457E+02 -0.46866170267E+02 -0.39059543229E+03  0.39520472080E+03  0.00000000000E+00 0. -1.
          2    1    1    2  501    0 -0.14921986640E+03  0.17095133238E+03 -0.14990674980E+04  0.15161445479E+04  0.00000000000E+00 0. -1.
<scales pt_clust_3="42.79694" pt_clust_4="14000.00000" pt_clust_5="53.83588" pt_clust_6="202.96404"></scales>
<clustering>
<clus scale="   42.797">  2  3  1 -1</clus>
<clus scale="   53.836">  2  5  1 -1</clus>
<clus scale="  202.964">  2  6  1 -1</clus>
<clus scale="  202.964">  1  3  2 -1</clus>
</clustering>
</event>
<event>
 6    0  0.1622933E+002  0.2472226E+03  0.7546771E-02  0.1115073E+00
         21   -1    0    0  503  502  0.00000000000E+00  0.00000000000E+00  0.19954208917E+03  0.19954208917E+03  0.00000000000E+00 0. -1.
          2   -1    0    0  505    0 -0.00000000000E+00 -0.00000000000E+00 -0.20316984227E+04  0.20316984227E+04  0.00000000000E+00 0.  1.
         21    1    1    2  503  501 -0.55060300172E+02 -0.25180015581E+03  0.93307867064E+02  0.27411915872E+03  0.00000000000E+00 0. -1.
         21    1    1    2  504  502  0.37941615912E+02  0.34796504312E+01 -0.50699898084E+02  0.63420452938E+02  0.00000000000E+00 0. -1.
         21    1    1    2  505  504  0.28802079610E+02  0.24418928226E+02 -0.16304489373E+03  0.16736033346E+03  0.00000000000E+00 0. -1.
          2    1    1    2  501    0 -0.11683395350E+02  0.22390157715E+03 -0.17117194088E+04  0.17263405667E+04  0.00000000000E+00 0.  1.
<scales pt_clust_3="14000.00000" pt_clust_4="39.05147" pt_clust_5="37.76035" pt_clust_6="247.22265"></scales>
<clustering>
<clus scale="   37.760">  2  5  1 -1</clus>
<clus scale="   39.051">  1  4  2 -1</clus>
<clus scale="  247.223">  2  6  1 -1</clus>
<clus scale="   39.051">  1  3  2 -1</clus>
</clustering>
</event>
<event>
 6    0  0.1622933E+002  0.1189337E+03  0.7546771E-02  0.1244867E+00
          1   -1    0    0  504    0 -0.00000000000E+00  0.00000000000E+00  0.25740049280E+04  0.25740049280E+04  0.00000000000E+00 0.  1.
         21   -1    0    0  501  502  0.00000000000E+00 -0.00000000000E+00 -0.47184735318E+03  0.47184735318E+03  0.00000000000E+00 0. -1.
         21    1    1    2  503  505 -0.54845826962E+02 -0.10390345913E+03  0.97563691633E+03  0.98268580231E+03  0.00000000000E+00 0. -1.
         21    1    1    2  504  503  0.46527053567E+02  0.25085557649E+02  0.13159219850E+03  0.14181170129E+03  0.00000000000E+00 0. -1.
         21    1    1    2  505  502 -0.62333101466E+02 -0.10084783988E+03 -0.44909636675E+03  0.46448169929E+03  0.00000000000E+00 0. -1.
          1    1    1    2  501    0  0.70651874861E+02  0.17966574136E+03  0.14440248267E+04  0.14568730783E+04  0.00000000000E+00 0.  1.
<scales pt_clust_3="100.55028" pt_clust_4="52.85879" pt_clust_5="14000.00000" pt_clust_6="118.93367"></scales>
<clustering>
<clus scale="   52.859">  1  4  2 -1</clus>
<clus scale="  100.550">  1  3  2 -1</clus>
<clus scale="  118.934">  1  6  2 -1</clus>
<clus scale="  118.934">  2  3  1 -1</clus>
</clustering>
</event>
<event>
 6    0  0.1622933E+002  0.1063870E+03  0.7546771E-02  0.1267411E+00
          2   -1    0    0  504    0 -0.00000000000E+00  0.00000000000E+00  0.42672833517E+03  0.42672833517E+03  0.00000000000E+00 0.  1.
         21   -1    0    0  503  502  0.00000000000E+00 -0.00000000000E+00 -0.44349392628E+03  0.44349392628E+03  0.00000000000E+00 0.  1.
         21    1    1    2  503  501  0.43745675265E+02  0.63925355018E+02 -0.47049959875E+02  0.90630203811E+02  0.00000000000E+00 0.  1.
         21    1    1    2  504  505 -0.99707087630E-01  0.37087547541E+02  0.88949084749E+02  0.96371343260E+02  0.00000000000E+00 0.  1.
         21    1    1    2  505  502 -0.14680512070E+03 -0.46750246792E+02 -0.34294980868E+03  0.37596795118E+03  0.00000000000E+00 0.  1.
          2    1    1    2  501    0  0.10315915252E+03 -0.54262655766E+02  0.28428509270E+03  0.30725276319E+03  0.00000000000E+00 0.  1.
<scales pt_clust_3="79.46509" pt_clust_4="37.08768" pt_clust_5="14000.00000" pt_clust_6="106.38697"></scales>
<clustering>
<clus scale="   37.088">  1  4  2 -1</clus>
<clus scale="   79.465">  2  3  1 -1</clus>
<clus scale="  106.387">  1  6  2 -1</clus>
<clus scale="   79.465">  2  3  1 -1</clus>
</clustering>
</event>
<event>
 6    0  0.1622933E+002  0.7719070E+02  0.7546771E-02  0.1337218E+00
          1   -1    0    0  505    0 -0.00000000000E+00  0.00000000000E+00  0.24132885679E+04  0.24132885679E+04  0.00000000000E+00 0.  1.
         21   -1    0    0  503  502  0.00000000000E+00 -0.00000000000E+00 -0.39861854947E+03  0.39861854947E+03  0.00000000000E+00 0.  1.
         21    1    1    2  503  504  0.38536944618E+02 -0.99735547930E+02  0.34442362073E+03  0.36063819285E+03  0.00000000000E+00 0. -1.
         21    1    1    2  504  501 -0.42847183172E+02  0.24843363979E+02  0.63633400180E+03  0.63825859625E+03  0.00000000000E+00 0.  1.
         21    1    1    2  505  502  0.31803445980E+02  0.43867054040E+02 -0.38736120971E+03  0.39113231060E+03  0.00000000000E+00 0.  1.
          1    1    1    2  501    0 -0.27493207425E+02  0.31025129911E+02  0.14212736056E+04  0.14218780177E+04  0.00000000000E+00 0.  1.
<scales pt_clust_3="14000.00000" pt_clust_4="77.19070" pt_clust_5="54.19995" pt_clust_6="41.45401"></scales>
<clustering>
<clus scale="   41.454">  1  6  2 -1</clus>
<clus scale="   54.200">  2  5  1 -1</clus>
<clus scale="   77.191">  1  4  2 -1</clus>
<clus scale="   54.200">  2  3  1 -1</clus>
</clustering>
</event>
<event>
 6    0  0.1622933E+002  0.1041014E+03  0.7546771E-02  0.1271900E+00
         21   -1    0    0  505  502  0.00000000000E+00  0.00000000000E+00  0.15968231629E+03  0.15968231629E+03  0.00000000000E+00 0. -1.
         -2   -1    0    0    0  501 -0.00000000000E+00 -0.00000000000E+00 -0.10920519527E+04  0.10920519527E+04  0.00000000000E+00 0.  1.
         21    1    1    2  503  501  0.29017339442E+02 -0.32061815404E+02 -0.14139447484E+03  0.14785926927E+03  0.00000000000E+00 0.  1.
         21    1    1    2  504  503 -0.13413932271E+03 -0.10094599464E+01 -0.22187668762E+03  0.25927522329E+03  0.00000000000E+00 0.  1.
         21    1    1    2  505  504  0.55313979034E+02 -0.67063748756E+02  0.11905624134E+03  0.14741631957E+03  0.00000000000E+00 0. -1.
         -2    1    1    2    0  502  0.49808004229E+02  0.10013502411E+03 -0.68815471526E+03  0.69718345682E+03  0.00000000000E+00 0.  1.
<scales pt_clust_3="43.24310" pt_clust_4="14000.00000" pt_clust_5="87.57860" pt_clust_6="104.10138"></scales>
<clustering>
<clus scale="   43.243">  2  3  1 -1</clus>
<clus scale="   87.579">  1  5  2 -1</clus>
<clus scale="  104.101">  2  6  1 -1</clus>
<clus scale="   87.579">  1  3  2 -1</clus>
</clustering>
</event>
<event>
 6    0  0.1622933E+002  0.1101951E+03  0.7546771E-02  0.1260209E+00
         21   -1    0    0  501  502  0.00000000000E+00  0.00000000000E+00  0.33483203380E+02  0.33483203380E+02  0.00000000000E+00 0. -1.
          1   -1    0    0  504    0 -0.00000000000E+00 -0.00000000000E+00 -0.26732863479E+04  0.26732863479E+04  0.00000000000E+00 0. -1.
         21    1    1    2  503  502  0.90688827787E+02  0.61546888490E+02 -0.74910936263E+02  0.13275590887E+03  0.00000000000E+00 0. -1.
         21    1    1    2  504  505 -0.31865911821E+02  0.41569431487E+01 -0.18771360170E+03  0.19044451364E+03  0.00000000000E+00 0. -1.
         21    1    1    2  505  503  0.16637807114E+02  0.31855628198E+02 -0.10651377683E+04  0.10657439013E+04  0.00000000000E+00 0. -1.
          1    1    1    2  501    0 -0.75460723079E+02 -0.97559459837E+02 -0.13120408383E+04  0.13178252275E+04  0.00000000000E+00 0. -1.
<scales pt_clust_3="110.19508" pt_clust_4="32.13591" pt_clust_5="33.76943" pt_clust_6="14000.00000"></scales>
<clustering>
<clus scale="   32.136">  2  4  1 -1</clus>
<clus scale="   33.769">  2  5  1 -1</clus>
<clus scale="  110.195">  1  3  2 -1</clus>
<clus scale="  110.195">  1  3  2 -1</clus>
</clustering>
</event>
<event>
 6    0  0.1622933E+002  0.2086844E+03  0.7546771E-02  0.1142612E+00
         21   -1    0    0  504  502  0.00000000000E+00  0.00000000000E+00  0.31264892005E+04  0.31264892005E+04  0.00000000000E+00 0. -1.
          1   -1    0    0  505    0 -0.00000000000E+00 -0.00000000000E+00 -0.21018660238E+02  0.21018660238E+02  0.00000000000E+00 0. -1.
         21    1    1    2  503  501  0.83971915084E+02  0.41859954541E+02  0.36197501154E+03  0.37393775859E+03  0.00000000000E+00 0.  1.
         21    1    1    2  504  503 -0.57499035708E+01 -0.55179763570E+02  0.92274584942E+03  0.92441212147E+03  0.00000000000E+00 0. -1.
         21    1    1    2  505  502 -0.19836684778E+03 -0.55972120551E+01  0.12434247108E+04  0.12591607311E+04  0.00000000000E+00 0. -1.
          1    1    1    2  501    0  0.12014483627E+03  0.18917021085E+02  0.57732496850E+03  0.58999724967E+03  0.00000000000E+00 0. -1.
<scales pt_clust_3="34.34175" pt_clust_4="55.47853" pt_clust_5="204.98881" pt_clust_6="34.34175"></scales>
<clustering>
<clus scale="   34.342">  3  6 -1 -1</clus>
<clus scale="   55.479">  1  4  2 -1</clus>
<clus scale="  204.989">  1  5  2 -1</clus>
<clus scale="   55.479">  1  3  2 -1</clus>
</clustering>
</event>
<event>
 6    0  0.1622933E+002  0.1533323E+03  0.7546771E-02  0.1196437E+00
          1   -1    0    0  502    0 -0.00000000000E+00  0.00000000000E+00  0.40165611050E+03  0.40165611050E+03  0.00000000000E+00 0.  1.
         21   -1    0    0  503  502  0.00000000000E+00 -0.00000000000E+00 -0.15002701694E+03  0.15002701694E+03  0.00000000000E+00 0. -1.
         21    1    1    2  503  505  0.66033469952E+02  0.80576195263E+02 -0.38582090186E+02  0.11109239434E+03  0.00000000000E+00 0. -1.
         21    1    1    2  504  501 -0.10728467223E+03 -0.28102302016E+02  0.11467556014E+03  0.15953126454E+03  0.00000000000E+00 0.  1.
         21    1    1    2  505  504  0.62968294064E+02  0.12107694065E+02 -0.25336736547E+02  0.68946011718E+02  0.00000000000E+00 0. -1.
          1    1    1    2  501    0 -0.21717091791E+02 -0.64581587312E+02  0.20087236016E+03  0.21211345684E+03  0.00000000000E+00 0.  1.
<scales pt_clust_3="43.65642" pt_clust_4="142.87877" pt_clust_5="43.65642" pt_clust_6="68.13526"></scales>
<clustering>
<clus scale="   43.656">  3  5 -1 -1</clus>
<clus scale="   68.135">  1  6  2 -1</clus>
<clus scale="  142.879">  1  4  2 -1</clus>
<clus scale="  153.332">  2  3  1 -1</clus>
</clustering>
</event>
<event>
 6    0  0.1622933E+002  0.7945017E+02  0.7546771E-02  0.1330619E+00
         21   -1    0    0  503  502  0.00000000000E+00  0.00000000000E+00  0.82753580603E+03  0.82753580603E+03  0.00000000000E+00 0.  1.
         -4   -1    0    0    0  501 -0.00000000000E+00 -0.00000000000E+00 -0.31053604971E+02  0.31053604971E+02  0.00000000000E+00 0.  1.
         21    1    1    2  503  505  0.94111697443E+02  0.78343535718E+02  0.39440126663E+03  0.41297346199E+03  0.00000000000E+00 0.  1.
         21    1    1    2  504  501  0.19462552939E+01 -0.49592822121E+02  0.37494371501E+02  0.62201799088E+02  0.00000000000E+00 0.  1.
         21    1    1    2  505  504 -0.34685493851E+02 -0.39941612386E+02  0.12280772242E+03  0.13371668770E+03  0.00000000000E+00 0.  1.
         -4    1    1    2    0  502 -0.61372458886E+02  0.11190898788E+02  0.24177884050E+03  0.24969746222E+03  0.00000000000E+00 0.  1.
<scales pt_clust_3="14000.00000" pt_clust_4="49.63100" pt_clust_5="79.45017" pt_clust_6="60.96429"></scales>
<clustering>
<clus scale="   49.631">  2  4  1 -1</clus>
<clus scale="   60.964">  1  6  2 -1</clus>
<clus scale="   79.450">  2  5  1 -1</clus>
<clus scale="   60.964">  1  3  2 -1</clus>
</clustering>
</event>
<event>
 6    0  0.1622933E+002  0.8049556E+02  0.7546771E-02  0.1327651E+00
          2   -1    0    0  502    0 -0.00000000000E+00  0.00000000000E+00  0.21723864603E+04  0.21723864603E+04  0.00000000000E+00 0. -1.
         21   -1    0    0  504  502  0.00000000000E+00 -0.00000000000E+00 -0.26273961911E+03  0.26273961911E+03  0.00000000000E+00 0. -1.
         21    1    1    2  503  501  0.90882953953E+02 -0.34760878845E+02  0.11310435018E+04  0.11352213145E+04  0.00000000000E+00 0. -1.
         21    1    1    2  504  505 -0.15654958496E+02  0.34049679208E+02 -0.25155090328E+03  0.25432718164E+03  0.00000000000E+00 0. -1.
         21    1    1    2  505  503 -0.43151917836E+01  0.44078357121E+02  0.77177070526E+02  0.88982147993E+02  0.00000000000E+00 0. -1.
          2    1    1    2  501    0 -0.70912803674E+02 -0.43367157483E+02  0.95297717212E+03  0.95659543520E+03  0.00000000000E+00 0. -1.
<scales pt_clust_3="80.49556" pt_clust_4="37.47610" pt_clust_5="66.03139" pt_clust_6="14000.00000"></scales>
<clustering>
<clus scale="   37.476">  2  4  1 -1</clus>
<clus scale="   66.031">  2  5  1 -1</clus>
<clus scale="   80.496">  2  3  1 -1</clus>
<clus scale="   37.476">  2  3  1 -1</clus>
</clustering>
</event>
<event>
 6    0  0.1622933E+002  0.1029860E+03  0.7546771E-02  0.1274139E+00
         21   -1    0    0  504  502  0.00000000000E+00  0.00000000000E+00  0.58734760877E+02  0.58734760877E+02  0.00000000000E+00 0.  1.
          1   -1    0    0  505    0 -0.00000000000E+00 -0.00000000000E+00 -0.10474013197E+04  0.10474013197E+04  0.00000000000E+00 0. -1.
         21    1    1    2  503  501  0.36471859963E+02  0.41038480199E+02 -0.28548632289E+03  0.29071772217E+03  0.00000000000E+00 0. -1.
         21    1    1    2  504  503 -0.13209306605E+03 -0.24685780171E+02 -0.27727852759E+03  0.30812553887E+03  0.00000000000E+00 0.  1.
         21    1    1    2  505  502  0.82498986537E+02 -0.57910475429E+02 -0.24761540001E+02  0.10379229166E+03  0.00000000000E+00 0.  1.
          1    1    1    2  501    0  0.13122219552E+02  0.41557775401E+02 -0.40114016838E+03  0.40350052792E+03  0.00000000000E+00 0. -1.
<scales pt_clust_3="30.87998" pt_clust_4="96.97825" pt_clust_5="100.79537" pt_clust_6="30.87998"></scales>
<clustering>
<clus scale="   30.880">  3  6 -1 -1</clus>
<clus scale="  100.795">  1  5  2 -1</clus>
<clus scale="   96.978">  1  4  2 -1</clus>
<clus scale="  100.795">  1  3  2 -1</clus>
</clustering>
</event>
<event>
 6    0  0.1622933E+002  0.6669294E+02  0.7546771E-02  0.1371714E+00
          2   -1    0    0  503    0 -0.00000000000E+00  0.00000000000E+00  0.32404500254E+03  0.32404500254E+03  0.00000000000E+00 0.  1.
         21   -1    0    0  501  502  0.00000000000E+00 -0.00000000000E+00 -0.44591523996E+03  0.44591523996E+03  0.00000000000E+00 0.  1.
         21    1    1    2  503  504 -0.29788817182E+02 -0.22518646584E+02  0.24453891251E+00  0.37343310946E+02  0.00000000000E+00 0.  1.
         21    1    1    2  504  505 -0.55691313375E+02  0.76510777707E+02  0.14730888813E+02  0.95772754873E+02  0.00000000000E+00 0.  1.
         21    1    1    2  505  502  0.53861932088E+01 -0.57105854038E+02 -0.37820164892E+03  0.38252657018E+03  0.00000000000E+00 0.  1.
          2    1    1    2  501    0  0.80093937349E+02  0.31137229154E+01  0.24135598378E+03  0.25431760651E+03  0.00000000000E+00 0.  1.
<scales pt_clust_3="37.34251" pt_clust_4="14000.00000" pt_clust_5="57.49875" pt_clust_6="66.69294"></scales>
<clustering>
<clus scale="   37.343">  1  3  2 -1</clus>
<clus scale="   57.499">  2  5  1 -1</clus>
<clus scale="   66.693">  1  6  2 -1</clus>
<clus scale="   57.499">  2  3  1 -1</clus>
</clustering>
</event>
<event>
 6    0  0.1622933E+002  0.8713952E+02  0.7546771E-02  0.1309930E+00
          2   -1    0    0  505    0 -0.00000000000E+00  0.00000000000E+00  0.27540536476E+04  0.27540536476E+04  0.00000000000E+00 0.  1.
         21   -1    0    0  504  502  0.00000000000E+00 -0.00000000000E+00 -0.24110906320E+02  0.24110906320E+02  0.00000000000E+00 0. -1.
         21    1    1    2  503  502 -0.50661163586E+02 -0.14894443267E+01  0.37633069040E+03  0.37972827189E+03  0.00000000000E+00 0.  1.
         21    1    1    2  504  501  0.19817358238E+02  0.29936601256E+02 -0.18717285837E+01  0.35950398470E+02  0.00000000000E+00 0. -1.
         21    1    1    2  505  503  0.96157112899E+02  0.21976346730E+02  0.11857074337E+04  0.11898030377E+04  0.00000000000E+00 0.  1.
          2    1    1    2  501    0 -0.65313307551E+02 -0.50423503659E+02  0.11697763458E+04  0.11726828459E+04  0.00000000000E+00 0.  1.
<scales pt_clust_3="44.95791" pt_clust_4="35.90164" pt_clust_5="14000.00000" pt_clust_6="87.13952"></scales>
<clustering>
<clus scale="   35.902">  2  4  1 -1</clus>
<clus scale="   44.958">  2  3  1 -1</clus>
<clus scale="   87.140">  1  6  2 -1</clus>
<clus scale="   35.902">  2  3  1 -1</clus>
</clustering>
</event>
<event>
 6    0  0.1622933E+002  0.9679899E+02  0.7546771E-02  0.1287175E+00
          2   -1    0    0  505    0 -0.00000000000E+00  0.00000000000E+00  0.13768469048E+04  0.13768469048E+04  0.00000000000E+00 0.  1.
         21   -1    0    0  503  502  0.00000000000E+00 -0.00000000000E+00 -0.14367717240E+02  0.14367717240E+02  0.00000000000E+00 0.  1.
         21    1    1    2  503  501 -0.39451163580E+02  0.50302758201E+01  0.14831554333E+03  0.15355519651E+03  0.00000000000E+00 0.  1.
         21    1    1    2  504  502 -0.20147737370E+02 -0.28132758971E+02  0.16724044085E+03  0.17078275236E+03  0.00000000000E+00 0. -1.
         21    1    1    2  505  504  0.92570096590E+02 -0.63729393123E+02  0.55619061320E+03  0.56743163160E+03  0.00000000000E+00 0.  1.
          2    1    1    2  501    0 -0.32971195640E+02  0.86831876273E+02  0.49073259015E+03  0.49944504154E+03  0.00000000000E+00 0.  1.
<scales pt_clust_3="43.64920" pt_clust_4="34.60323" pt_clust_5="96.79899" pt_clust_6="14000.00000"></scales>
<clustering>
<clus scale="   34.603">  2  4  1 -1</clus>
<clus scale="   43.649">  2  3  1 -1</clus>
<clus scale="   96.799">  2  5  1 -1</clus>
<clus scale="   34.603">  2  3  1 -1</clus>
</clustering>
</event>
<event>
 6    0  0.1622933E+002  0.8141009E+02  0.7546771E-02  0.1325097E+00
          2   -1    0    0  505    0 -0.00000000000E+00  0.00000000000E+00  0.19438765372E+03  0.19438765372E+03  0.00000000000E+00 0.  1.
         21   -1    0    0  503  502  0.00000000000E+00 -0.00000000000E+00 -0.23636578879E+03  0.23636578879E+03  0.00000000000E+00 0. -1.
         21    1    1    2  503  501 -0.32523057297E+02  0.41914373176E+01 -0.98676823523E+02  0.10398284908E+03  0.00000000000E+00 0. -1.
         21    1    1    2  504  502  0.78330704868E+02 -0.45066659413E+01 -0.10387210421E+01  0.78467116070E+02  0.00000000000E+00 0.  1.
         21    1    1    2  505  504 -0.77938190769E+02  0.72065366285E+02 -0.48036970129E+02  0.11651321426E+03  0.00000000000E+00 0. -1.
          2    1    1    2  501    0  0.32130543198E+02 -0.71750137662E+02  0.10577437962E+03  0.13179026309E+03  0.00000000000E+00 0.  1.
<scales pt_clust_3="32.79203" pt_clust_4="68.83416" pt_clust_5="81.41009" pt_clust_6="14000.00000"></scales>
<clustering>
<clus scale="   32.792">  2  3  1 -1</clus>
<clus scale="   68.834">  2  4  1 -1</clus>
<clus scale="   81.410">  2  5  1 -1</clus>
<clus scale="   32.792">  2  3  1 -1</clus>
</clustering>
</event>
<event>
 6    0  0.1622933E+002  0.1049794E+03  0.7546771E-02  0.1270160E+00
          2   -1    0    0  504    0 -0.00000000000E+00  0.00000000000E+00  0.26368836032E+04  0.26368836032E+04  0.00000000000E+00 0.  1.
         21   -1    0    0  503  502  0.00000000000E+00 -0.00000000000E+00 -0.10138720467E+02  0.10138720467E+02  0.00000000000E+00 0.  1.
         21    1    1    2  503  501 -0.74973537793E+01  0.50434265039E+02  0.37014917468E+03  0.37364453284E+03  0.00000000000E+00 0. -1.
         21    1    1    2  504  505 -0.21993776066E+02 -0.81931482361E+02  0.14712327972E+04  0.14736765037E+04  0.00000000000E+00 0.  1.
         21    1    1    2  505  502 -0.15862305815E+02 -0.41023380134E+02  0.10299368791E+03  0.11199209889E+03  0.00000000000E+00 0.  1.
          2    1    1    2  501    0  0.45353435661E+02  0.72520597456E+02  0.68236922290E+03  0.68770918821E+03  0.00000000000E+00 0.  1.
<scales pt_clust_3="35.59774" pt_clust_4="94.31281" pt_clust_5="43.98330" pt_clust_6="35.59774"></scales>
<clustering>
<clus scale="   35.598">  3  6 -1 -1</clus>
<clus scale="   43.983">  2  5  1 -1</clus>
<clus scale="   94.313">  1  4  2 -1</clus>
<clus scale="   43.983">  2  3  1 -1</clus>
</clustering>
</event>
<event>
 6    0  0.1622933E+002  0.1333064E+03  0.7546771E-02  0.1222631E+00
          1   -1    0    0  503    0 -0.00000000000E+00  0.00000000000E+00  0.39605650674E+03  0.39605650674E+03  0.00000000000E+00 0. -1.
         21   -1    0    0  505  502  0.00000000000E+00 -0.00000000000E+00 -0.26841812350E+03  0.26841812350E+03  0.00000000000E+00 0.  1.
         21    1    1    2  503  504  0.51028955379E+02 -0.43086067250E+02  0.15579003649E+02  0.68578924116E+02  0.00000000000E+00 0.  1.
         21    1    1    2  504  502  0.81111721783E+02  0.10858499415E+02  0.96813715321E+02  0.12676716410E+03  0.00000000000E+00 0. -1.
         21    1    1    2  505  501  0.83116379574E+02  0.44269557992E+02 -0.16376124948E+03  0.18890704897E+03  0.00000000000E+00 0.  1.
          1    1    1    2  501    0 -0.21525705674E+03 -0.12041990157E+02  0.17900691375E+03  0.28022149306E+03  0.00000000000E+00 0. -1.
<scales pt_clust_3="66.78595" pt_clust_4="14000.00000" pt_clust_5="95.07656" pt_clust_6="133.30636"></scales>
<clustering>
<clus scale="   66.786">  1  3  2 -1</clus>
<clus scale="   95.077">  2  5  1 -1</clus>
<clus scale="  133.306">  2  6  1 -1</clus>
<clus scale="   95.077">  2  3  1 -1</clus>
</clustering>
</event>
<event>
 6    0  0.1622933E+002  0.1903052E+03  0.7546771E-02  0.1158186E+00
         21   -1    0    0  501  502  0.00000000000E+00  0.00000000000E+00  0.65271440485E+03  0.65271440485E+03  0.00000000000E+00 0. -1.
          1   -1    0    0  503    0 -0.00000000000E+00 -0.00000000000E+00 -0.44999696485E+03  0.44999696485E+03  0.00000000000E+00 0.  1.
         21    1    1    2  503  505 -0.67849446413E+02  0.20317943808E+03 -0.17392420612E+03  0.27592582502E+03  0.00000000000E+00 0.  1.
         21    1    1    2  504  502  0.65860497348E+02 -0.93332580350E+02  0.55154213391E+03  0.56324710487E+03  0.00000000000E+00 0. -1.
         21    1    1    2  505  504  0.92825287290E+01  0.35380428919E+02 -0.64680329863E+00  0.36583581626E+02  0.00000000000E+00 0. -1.
          1    1    1    2  501    0 -0.72935796643E+01 -0.14522728665E+03 -0.17425368450E+03  0.22695485818E+03  0.00000000000E+00 0.  1.
<scales pt_clust_3="34.19127" pt_clust_4="114.23036" pt_clust_5="34.19127" pt_clust_6="171.37635"></scales>
<clustering>
<clus scale="   34.191">  3  5 -1 -1</clus>
<clus scale="  114.230">  1  4  2 -1</clus>
<clus scale="  171.376">  2  6  1 -1</clus>
<clus scale="  114.230">  1  3  2 -1</clus>
</clustering>
</event>
<event>
 6    0  0.1622933E+002  0.6449137E+02  0.7546771E-02  0.1379895E+00
         21   -1    0    0  504  502  0.00000000000E+00  0.00000000000E+00  0.48444222372E+03  0.48444222372E+03  0.00000000000E+00 0. -1.
          1   -1    0    0  503    0 -0.00000000000E+00 -0.00000000000E+00 -0.49115178274E+03  0.49115178274E+03  0.00000000000E+00 0. -1.
         21    1    1    2  503  505  0.33303959526E+02 -0.35024063832E+02 -0.20284610007E+03  0.20852428895E+03  0.00000000000E+00 0. -1.
         21    1    1    2  504  501  0.53671913780E+02 -0.11198982393E+02 -0.32958829365E+01  0.54926809299E+02  0.00000000000E+00 0.  1.
         21    1    1    2  505  502 -0.58769292345E+02 -0.30658631837E+02  0.44673910961E+03  0.45162995193E+03  0.00000000000E+00 0. -1.
          1    1    1    2  501    0 -0.28206580961E+02  0.76881678062E+02 -0.24730668562E+03  0.26051295627E+03  0.00000000000E+00 0. -1.
<scales pt_clust_3="48.33052" pt_clust_4="64.49137" pt_clust_5="14000.00000" pt_clust_6="45.75124"></scales>
<clustering>
<clus scale="   48.331">  2  3  1 -1</clus>
<clus scale="   45.751">  2  6  1 -1</clus>
<clus scale="   64.491">  2  4  1 -1</clus>
<clus scale="   64.491">  1  3  2 -1</clus>
</clustering>
</event>
<event>
 6    0  0.1622933E+002  0.9182816E+02  0.7546771E-02  0.1298484E+00
         21   -1    0    0  501  502  0.00000000000E+00  0.00000000000E+00  0.63402936777E+03  0.63402936777E+03  0.00000000000E+00 0.  1.
          2   -1    0    0  503    0 -0.00000000000E+00 -0.00000000000E+00 -0.11908191730E+04  0.11908191730E+04  0.00000000000E+00 0.  1.
         21    1    1    2  503  504 -0.34560239942E+02 -0.27892209880E+02 -0.15744145017E+03  0.16358543880E+03  0.00000000000E+00 0.  1.
         21    1    1    2  504  505 -0.30554576332E+02  0.13992893473E+03 -0.47435538033E+03  0.49550652444E+03  0.00000000000E+00 0.  1.
         21    1    1    2  505  502  0.39792235699E+02 -0.54651334749E+02  0.61672510823E+03  0.62041925303E+03  0.00000000000E+00 0.  1.
          2    1    1    2  501    0  0.25322580575E+02 -0.57385390102E+02 -0.54171808293E+03  0.54533732447E+03  0.00000000000E+00 0.  1.
<scales pt_clust_3="44.41155" pt_clust_4="14000.00000" pt_clust_5="67.60718" pt_clust_6="91.82816"></scales>
<clustering>
<clus scale="   44.412">  2  3  1 -1</clus>
<clus scale="   67.607">  1  5  2 -1</clus>
<clus scale="   91.828">  2  6  1 -1</clus>
<clus scale="   67.607">  1  3  2 -1</clus>
</clustering>
</event>
<event>
 6    0  0.1622933E+002  0.6767276E+02  0.7546771E-02  0.1368191E+00
         21   -1    0    0  503  502  0.00000000000E+00  0.00000000000E+00  0.48006450375E+03  0.48006450375E+03  0.00000000000E+00 0. -1.
          1   -1    0    0  505    0 -0.00000000000E+00 -0.00000000000E+00 -0.94676080488E+03  0.94676080488E+03  0.00000000000E+00 0. -1.
         21    1    1    2  503  501  0.47222767157E+02  0.95422956858E+02 -0.57230760296E+03  0.58212672404E+03  0.00000000000E+00 0. -1.
         21    1    1    2  504  502 -0.66620268479E+02 -0.11986552577E+02  0.46582549456E+03  0.47071788684E+03  0.00000000000E+00 0. -1.
         21    1    1    2  505  504 -0.78307421431E+01 -0.40151589833E+02 -0.88511515838E+02  0.97507738793E+02  0.00000000000E+00 0. -1.
          1    1    1    2  501    0  0.27228243465E+02 -0.43284814448E+02 -0.27170267689E+03  0.27647295896E+03  0.00000000000E+00 0. -1.
<scales pt_clust_3="14000.00000" pt_clust_4="67.67276" pt_clust_5="40.90808" pt_clust_6="61.37127"></scales>
<clustering>
<clus scale="   40.908">  2  5  1 -1</clus>
<clus scale="   61.371">  2  6  1 -1</clus>
<clus scale="   67.673">  1  4  2 -1</clus>
<clus scale="   67.673">  1  3  2 -1</clus>
</clustering>
</event>
<event>
 6    0  0.1622933E+002  0.1279988E+03  0.7546771E-02  0.1230456E+00
         21   -1    0    0  503  502  0.00000000000E+00  0.00000000000E+00  0.37615134923E+03  0.37615134923E+03  0.00000000000E+00 0. -1.
          1   -1    0    0  505    0 -0.00000000000E+00 -0.00000000000E+00 -0.69325244070E+03  0.69325244070E+03  0.00000000000E+00 0.  1.
         21    1    1    2  503  501 -0.43994669686E+01 -0.36140163285E+02 -0.35155371175E+02  0.50609947978E+02  0.00000000000E+00 0.  1.
         21    1    1    2  504  502  0.31561726456E+02  0.70373941193E+01  0.30491252860E+03  0.30662243491E+03  0.00000000000E+00 0. -1.
         21    1    1    2  505  504  0.71473570383E+02  0.11096787117E+03 -0.23069722143E+02  0.13399459607E+03  0.00000000000E+00 0.  1.
          1    1    1    2  501    0 -0.98635829871E+02 -0.81865102004E+02 -0.56378852675E+03  0.57817681098E+03  0.00000000000E+00 0.  1.
<scales pt_clust_3="35.37988" pt_clust_4="32.33678" pt_clust_5="127.99878" pt_clust_6="14000.00000"></scales>
<clustering>
<clus scale="   32.337">  1  4  2 -1</clus>
<clus scale="   35.380">  1  3  2 -1</clus>
<clus scale="  127.999">  1  5  2 -1</clus>
<clus scale="   32.337">  1  3  2 -1</clus>
</clustering>
</event>
<event>
 6    0  0.1622933E+002  0.1323607E+03  0.7546771E-02  0.1223994E+00
         21   -1    0    0  505  502  0.00000000000E+00  0.00000000000E+00  0.60792528669E+03  0.60792528669E+03  0.00000000000E+00 0. -1.
          2   -1    0    0  503    0 -0.00000000000E+00 -0.00000000000E+00 -0.30544953230E+04  0.30544953230E+04  0.00000000000E+00 0.  1.
         21    1    1    2  503  504 -0.38862420091E+02 -0.19350122720E+02 -0.31390168933E+03  0.31688954781E+03  0.00000000000E+00 0.  1.
         21    1    1    2  504  502  0.11414407068E+03  0.88077856348E+02  0.48677537427E+02  0.15217122034E+03  0.00000000000E+00 0. -1.
         21    1    1    2  505  501  0.14798863589E+02 -0.54685655747E+02  0.50364515835E+03  0.50682144079E+03  0.00000000000E+00 0. -1.
          2    1    1    2  501    0 -0.90080514180E+02 -0.14042077880E+02 -0.26849910427E+04  0.26865384007E+04  0.00000000000E+00 0.  1.
<scales pt_clust_3="43.41330" pt_clust_4="132.36070" pt_clust_5="56.65764" pt_clust_6="14000.00000"></scales>
<clustering>
<clus scale="   43.413">  2  3  1 -1</clus>
<clus scale="   56.658">  1  5  2 -1</clus>
<clus scale="  132.361">  1  4  2 -1</clus>
<clus scale="   56.658">  1  3  2 -1</clus>
</clustering>
</event>
<event>
 6    0  0.1622933E+002  0.8219590E+02  0.7546771E-02  0.1322933E+00
         21   -1    0    0  505  502  0.00000000000E+00  0.00000000000E+00  0.43962503776E+02  0.43962503776E+02  0.00000000000E+00 0. -1.
          1   -1    0    0  502    0 -0.00000000000E+00 -0.00000000000E+00 -0.99384616421E+03  0.99384616421E+03  0.00000000000E+00 0.  1.
         21    1    1    2  503  504 -0.25180181947E+02 -0.72469430808E+02 -0.18602858962E+03  0.20122747357E+03  0.00000000000E+00 0. -1.
         21    1    1    2  504  501  0.76451075400E+02 -0.28089358603E+02 -0.20942096903E+03  0.22470184971E+03  0.00000000000E+00 0. -1.
         21    1    1    2  505  503  0.54860373411E-02  0.30584809224E+02  0.16253901598E+02  0.34635529483E+02  0.00000000000E+00 0. -1.
          1    1    1    2  501    0 -0.51276379490E+02  0.69973980187E+02 -0.57068800338E+03  0.57724381521E+03  0.00000000000E+00 0.  1.
<scales pt_clust_3="64.99290" pt_clust_4="82.19590" pt_clust_5="30.58481" pt_clust_6="14000.00000"></scales>
<clustering>
<clus scale="   30.585">  1  5  2 -1</clus>
<clus scale="   64.993">  1  3  2 -1</clus>
<clus scale="   82.196">  1  4  2 -1</clus>
<clus scale="   30.585">  1  3  2 -1</clus>
</clustering>
</event>
<event>
 6    0  0.1622933E+002  0.2380978E+03  0.7546771E-02  0.1121067E+00
         -1   -1    0    0    0  501 -0.00000000000E+00  0.00000000000E+00  0.30277006307E+03  0.30277006307E+03  0.00000000000E+00 0.  1.
         21   -1    0    0  504  502  0.00000000000E+00 -0.00000000000E+00 -0.20136995296E+03  0.20136995296E+03  0.00000000000E+00 0.  1.
         21    1    1    2  503  505  0.46563879289E+02  0.68050239933E+02 -0.38372727851E+02  0.90947766615E+02  0.00000000000E+00 0.  1.
         21    1    1    2  504  501 -0.28471767360E+02  0.13300034659E+02  0.16000662104E+02  0.35264056010E+02  0.00000000000E+00 0. -1.
         21    1    1    2  505  502  0.11228790026E+03  0.88489516862E+02  0.50751860085E+02  0.15170602638E+03  0.00000000000E+00 0. -1.
         -1    1    1    2    0  503 -0.13038001219E+03 -0.16983979145E+03  0.73020315775E+02  0.22622216703E+03  0.00000000000E+00 0.  1.
<scales pt_clust_3="73.04662" pt_clust_4="31.42503" pt_clust_5="73.04662" pt_clust_6="218.40680"></scales>
<clustering>
<clus scale="   31.425">  1  4  2 -1</clus>
<clus scale="   73.047">  3  5 -1 -1</clus>
<clus scale="  218.407">  1  6  2 -1</clus>
<clus scale="  238.098">  2  3  1 -1</clus>
</clustering>
</event>
<event>
 6    0  0.1622933E+002  0.2382022E+03  0.7546771E-02  0.1120996E+00
         21   -1    0    0  503  502  0.00000000000E+00  0.00000000000E+00  0.40471297267E+03  0.40471297267E+03  0.00000000000E+00 0. -1.
          2   -1    0    0  505    0 -0.00000000000E+00 -0.00000000000E+00 -0.11029554957E+04  0.11029554957E+04  0.00000000000E+00 0.  1.
         21    1    1    2  503  501  0.15850686283E+03  0.17913694121E+03  0.33901857991E+03  0.41490729903E+03  0.00000000000E+00 0. -1.
         21    1    1    2  504  502  0.26736624304E+02 -0.40406304624E+02 -0.43057975247E+02  0.64819023172E+02  0.00000000000E+00 0. -1.
         21    1    1    2  505  504 -0.32891076962E+02  0.17515058752E+02 -0.23727049057E+03  0.24017886236E+03  0.00000000000E+00 0.  1.
          2    1    1    2  501    0 -0.15235241018E+03 -0.15624569534E+03 -0.75693263713E+03  0.78776328383E+03  0.00000000000E+00 0.  1.
<scales pt_clust_3="14000.00000" pt_clust_4="46.41998" pt_clust_5="37.26393" pt_clust_6="238.20220"></scales>
<clustering>
<clus scale="   37.264">  2  5  1 -1</clus>
<clus scale="   46.420">  2  4  1 -1</clus>
<clus scale="  238.202">  2  6  1 -1</clus>
<clus scale="  238.202">  1  3  2 -1</clus>
</clustering>
</event>
<event>
 6    0  0.1622933E+002  0.9256658E+02  0.7546771E-02  0.1296753E+00
         21   -1    0    0  503  502  0.00000000000E+00  0.00000000000E+00  0.12893987424E+04  0.12893987424E+04  0.00000000000E+00 0. -1.
          2   -1    0    0  505    0 -0.00000000000E+00 -0.00000000000E+00 -0.17250396086E+04  0.17250396086E+04  0.00000000000E+00 0. -1.
         21    1    1    2  503  501  0.23447291730E+02  0.79922485142E+02 -0.56518616832E+03  0.57129045500E+03  0.00000000000E+00 0. -1.
         21    1    1    2  504  502 -0.63894793004E+02 -0.99163553734E+01  0.12756617515E+04  0.12772994100E+04  0.00000000000E+00 0. -1.
         21    1    1    2  505  504 -0.18347384763E+02  0.46588739182E+02 -0.10230573317E+03  0.11390171283E+03  0.00000000000E+00 0. -1.
          2    1    1    2  501    0  0.58794886037E+02 -0.11659486895E+03 -0.10438107162E+04  0.10519467731E+04  0.00000000000E+00 0. -1.
<scales pt_clust_3="14000.00000" pt_clust_4="64.66528" pt_clust_5="50.07132" pt_clust_6="92.56658"></scales>
<clustering>
<clus scale="   50.071">  2  5  1 -1</clus>
<clus scale="   64.665">  1  4  2 -1</clus>
<clus scale="   92.567">  2  6  1 -1</clus>
<clus scale="   64.665">  1  3  2 -1</clus>
</clustering>
</event>
<event>
 6    0  0.1622933E+002  0.1710010E+03  0.7546771E-02  0.1176808E+00
          2   -1    0    0  503    0 -0.00000000000E+00  0.00000000000E+00  0.10225494711E+04  0.10225494711E+04  0.00000000000E+00 0.  1.
         21   -1    0    0  504  502  0.00000000000E+00 -0.00000000000E+00 -0.97892816315E+02  0.97892816315E+02  0.00000000000E+00 0. -1.
         21    1    1    2  503  502  0.26835596688E+02  0.13482806392E+03 -0.27705559413E+02  0.14023677867E+03  0.00000000000E+00 0. -1.
         21    1    1    2  504  505 -0.21753633033E+02  0.24520552135E+02  0.40556567271E+02  0.52147034200E+02  0.00000000000E+00 0.  1.
         21    1    1    2  505  501 -0.32446672681E+02 -0.11520964607E+03  0.58094902061E+03  0.59315075121E+03  0.00000000000E+00 0.  1.
          2    1    1    2  501    0  0.27364709026E+02 -0.44138969982E+02  0.33085662635E+03  0.33490772337E+03  0.00000000000E+00 0.  1.
<scales pt_clust_3="157.34085" pt_clust_4="32.77923" pt_clust_5="44.02547" pt_clust_6="44.02547"></scales>
<clustering>
<clus scale="   32.779">  2  4  1 -1</clus>
<clus scale="   44.025">  5  6 -1 -1</clus>
<clus scale="  157.341">  2  3  1 -1</clus>
<clus scale="   32.779">  2  3  1 -1</clus>
</clustering>
</event>
<event>
 6    0  0.1682083E+002  0.1614528E+03  0.7546771E-02  0.1187066E+00
          2   -1    0    0  503    0 -0.00000000000E+00  0.00000000000E+00  0.27743625841E+04  0.27743625841E+04  0.00000000000E+00 0.  1.
         21   -1    0    0  501  502  0.00000000000E+00 -0.00000000000E+00 -0.36270167759E+03  0.36270167759E+03  0.00000000000E+00 0. -1.
         21    1    1    2  503  505  0.13484943427E+02  0.45041874172E+02  0.27774832335E+03  0.28169974308E+03  0.00000000000E+00 0.  1.
         21    1    1    2  504  502 -0.36865849622E+02 -0.65119344053E+01 -0.31940299736E+03  0.32158944461E+03  0.00000000000E+00 0. -1.
         21    1    1    2  505  504 -0.84573099778E+02 -0.10825465558E+03  0.84092312225E+02  0.16106891890E+03  0.00000000000E+00 0.  1.
          2    1    1    2  501    0  0.10795400597E+03  0.69724715812E+02  0.23692232683E+04  0.23727061551E+04  0.00000000000E+00 0.  1.
<scales pt_clust_3="46.25669" pt_clust_4="37.43656" pt_clust_5="14000.00000" pt_clust_6="161.45282"></scales>
<clustering>
<clus scale="   37.437">  2  4  1 -1</clus>
<clus scale="   46.257">  1  3  2 -1</clus>
<clus scale="  161.453">  1  6  2 -1</clus>
<clus scale="   37.437">  2  3  1 -1</clus>
</clustering>
</event>
<event>
 6    0  0.1622933E+002  0.1028095E+03  0.7546771E-02  0.1274496E+00
          2   -1    0    0  503    0 -0.00000000000E+00  0.00000000000E+00  0.32411639475E+04  0.32411639475E+04  0.00000000000E+00 0. -1.
         21   -1    0    0  501  502  0.00000000000E+00 -0.00000000000E+00 -0.13314322428E+02  0.13314322428E+02  0.00000000000E+00 0. -1.
         21    1    1    2  503  505 -0.55510952507E+02  0.99566227802E+01  0.10306314292E+04  0.10321733105E+04  0.00000000000E+00 0. -1.
         21    1    1    2  504  502  0.44622834872E+02  0.87760003504E+00  0.58491082830E+02  0.73574277736E+02  0.00000000000E+00 0. -1.
         21    1    1    2  505  504  0.67138774481E+02  0.70635375567E+02  0.72178109874E+03  0.72833023129E+03  0.00000000000E+00 0. -1.
          2    1    1    2  501    0 -0.56250656846E+02 -0.81469598382E+02  0.14169460143E+04  0.14204004504E+04  0.00000000000E+00 0. -1.
<scales pt_clust_3="50.56526" pt_clust_4="44.63146" pt_clust_5="14000.00000" pt_clust_6="102.80951"></scales>
<clustering>
<clus scale="   44.631">  2  4  1 -1</clus>
<clus scale="   50.565">  1  3  2 -1</clus>
<clus scale="  102.810">  1  6  2 -1</clus>
<clus scale="   44.631">  2  3  1 -1</clus>
</clustering>
</event>
<event>
 6    0  0.1622933E+002  0.1659757E+03  0.7546771E-02  0.1182111E+00
          2   -1    0    0  504    0 -0.00000000000E+00  0.00000000000E+00  0.31298674216E+04  0.31298674216E+04  0.00000000000E+00 0.  1.
         21   -1    0    0  505  502  0.00000000000E+00 -0.00000000000E+00 -0.31040240507E+03  0.31040240507E+03  0.00000000000E+00 0. -1.
         21    1    1    2  503  501  0.63686095187E+02 -0.73735844004E+02  0.32615115766E+03  0.34039311253E+03  0.00000000000E+00 0. -1.
         21    1    1    2  504  502  0.88578243947E+01 -0.89754729218E+02 -0.26569189403E+03  0.28058252801E+03  0.00000000000E+00 0. -1.
         21    1    1    2  505  503 -0.13104074924E+03  0.24692230943E+03  0.64667892740E+03  0.70451113547E+03  0.00000000000E+00 0. -1.
          2    1    1    2  501    0  0.58496829653E+02 -0.83431736207E+02  0.21123268255E+04  0.21147830506E+04  0.00000000000E+00 0.  1.
<scales pt_clust_3="14000.00000" pt_clust_4="90.19076" pt_clust_5="165.97572" pt_clust_6="104.49544"></scales>
<clustering>
<clus scale="   90.191">  2  4  1 -1</clus>
<clus scale="  104.495">  1  6  2 -1</clus>
<clus scale="  165.976">  2  5  1 -1</clus>
<clus scale="   90.191">  2  3  1 -1</clus>
</clustering>
</event>
<event>
 6    0  0.1622933E+002  0.1810361E+03  0.7546771E-02  0.1166804E+00
          2   -1    0    0  505    0 -0.00000000000E+00  0.00000000000E+00  0.80947658819E+03  0.80947658819E+03  0.00000000000E+00 0. -1.
         21   -1    0    0  504  502  0.00000000000E+00 -0.00000000000E+00 -0.88061690046E+02  0.88061690046E+02  0.00000000000E+00 0. -1.
         21    1    1    2  503  501  0.28185444997E+02 -0.84865230743E+02  0.25508845658E+03  0.27030843009E+03  0.00000000000E+00 0. -1.
         21    1    1    2  504  503 -0.84377405615E+02  0.13920554832E+03  0.33310546706E+02  0.16615451779E+03  0.00000000000E+00 0. -1.
         21    1    1    2  505  502  0.29863262537E+02  0.34464057969E+02  0.52926869302E+02  0.69863003336E+02  0.00000000000E+00 0. -1.
          2    1    1    2  501    0  0.26328698081E+02 -0.88804375547E+02  0.38008902556E+03  0.39121232701E+03  0.00000000000E+00 0. -1.
<scales pt_clust_3="31.47818" pt_clust_4="178.17884" pt_clust_5="45.60248" pt_clust_6="31.47818"></scales>
<clustering>
<clus scale="   31.478">  3  6 -1 -1</clus>
<clus scale="   45.602">  2  5  1 -1</clus>
<clus scale="  178.179">  2  4  1 -1</clus>
<clus scale="   45.602">  2  3  1 -1</clus>
</clustering>
</event>
<event>
 6    0  0.1622933E+002  0.1985462E+03  0.7546771E-02  0.1150971E+00
          1   -1    0    0  504    0 -0.00000000000E+00  0.00000000000E+00  0.44506726614E+04  0.44506726614E+04  0.00000000000E+00 0. -1.
         21   -1    0    0  503  502  0.00000000000E+00 -0.00000000000E+00 -0.30480385066E+03  0.30480385066E+03  0.00000000000E+00 0. -1.
         21    1    1    2  503  501 -0.14928417047E+03  0.13552176999E+03 -0.24687086828E+03  0.31874306157E+03  0.00000000000E+00 0. -1.
         21    1    1    2  504  505  0.73769475743E+00  0.62341956231E+02  0.24971232129E+03  0.25737775176E+03  0.00000000000E+00 0. -1.
         21    1    1    2  505  502  0.16501358104E+03 -0.54822978981E+02  0.43403654320E+03  0.46757113018E+03  0.00000000000E+00 0.  1.
          1    1    1    2  501    0 -0.16467105329E+02 -0.14304074724E+03  0.37089908145E+04  0.37117845685E+04  0.00000000000E+00 0. -1.
<scales pt_clust_3="14000.00000" pt_clust_4="62.34632" pt_clust_5="198.54624" pt_clust_6="89.33950"></scales>
<clustering>
<clus scale="   62.346">  1  4  2 -1</clus>
<clus scale="   89.340">  1  6  2 -1</clus>
<clus scale="  198.546">  1  5  2 -1</clus>
<clus scale="  198.546">  2  3  1 -1</clus>
</clustering>
</event>
<event>
 6    0  0.1622933E+002  0.9966558E+02  0.7546771E-02  0.1281001E+00
         21   -1    0    0  501  502  0.00000000000E+00  0.00000000000E+00  0.36954959260E+03  0.36954959260E+03  0.00000000000E+00 0.  1.
          1   -1    0    0  504    0 -0.00000000000E+00 -0.00000000000E+00 -0.81853429789E+03  0.81853429789E+03  0.00000000000E+00 0. -1.
         21    1    1    2  503  502 -0.13854225708E+02  0.15023193614E+03 -0.44886680258E+02  0.15740517232E+03  0.00000000000E+00 0.  1.
         21    1    1    2  504  505  0.30674444954E+02 -0.17938604750E+02 -0.68183977373E+03  0.68276510760E+03  0.00000000000E+00 0. -1.
         21    1    1    2  505  503  0.12085054085E+02 -0.40220058635E+02 -0.11048801328E+02  0.43425541558E+02  0.00000000000E+00 0. -1.
          1    1    1    2  501    0 -0.28905273332E+02 -0.92073272758E+02  0.28879055003E+03  0.30448806901E+03  0.00000000000E+00 0. -1.
<scales pt_clust_3="99.66558" pt_clust_4="35.53470" pt_clust_5="47.44372" pt_clust_6="14000.00000"></scales>
<clustering>
<clus scale="   35.535">  2  4  1 -1</clus>
<clus scale="   47.444">  2  5  1 -1</clus>
<clus scale="   99.666">  2  3  1 -1</clus>
<clus scale="   99.666">  1  3  2 -1</clus>
</clustering>
</event>
<event>
 6    0  0.1622933E+002  0.2151296E+03  0.7546771E-02  0.1137567E+00
         21   -1    0    0  501  502  0.00000000000E+00  0.00000000000E+00  0.87606860973E+02  0.87606860973E+02  0.00000000000E+00 0. -1.
          2   -1    0    0  505    0 -0.00000000000E+00 -0.00000000000E+00 -0.13773986680E+04  0.13773986680E+04  0.00000000000E+00 0. -1.
         21    1    1    2  503  504 -0.18259200507E+03  0.24585710769E+00 -0.33996184052E+03  0.38589370787E+03  0.00000000000E+00 0. -1.
         21    1    1    2  504  502 -0.38854328989E+02 -0.10837038598E+02  0.24209205100E+02  0.47044509758E+02  0.00000000000E+00 0. -1.
         21    1    1    2  505  503 -0.31110064444E+02  0.73845158688E+02 -0.20219503472E+03  0.21749431174E+03  0.00000000000E+00 0. -1.
          2    1    1    2  501    0  0.25255639850E+03 -0.63253977198E+02 -0.77184413685E+03  0.81457299958E+03  0.00000000000E+00 0. -1.
<scales pt_clust_3="215.12962" pt_clust_4="40.33733" pt_clust_5="81.09510" pt_clust_6="14000.00000"></scales>
<clustering>
<clus scale="   40.337">  1  4  2 -1</clus>
<clus scale="   81.095">  2  5  1 -1</clus>
<clus scale="  215.130">  1  3  2 -1</clus>
<clus scale="   40.337">  1  3  2 -1</clus>
</clustering>
</event>
<event>
 6    0  0.1622933E+002  0.3889801E+03  0.7546771E-02  0.1047664E+00
         21   -1    0    0  503  502  0.00000000000E+00  0.00000000000E+00  0.11281931702E+03  0.11281931702E+03  0.00000000000E+00 0. -1.
          2   -1    0    0  505    0 -0.00000000000E+00 -0.00000000000E+00 -0.25215399731E+04  0.25215399731E+04  0.00000000000E+00 0. -1.
         21    1    1    2  503  504 -0.21309816518E+03  0.28202003894E+03 -0.25759596164E+03  0.43738062351E+03  0.00000000000E+00 0. -1.
         21    1    1    2  504  501  0.16065432225E+03 -0.10114863112E+03 -0.78260781959E+03  0.80530482186E+03  0.00000000000E+00 0.  1.
         21    1    1    2  505  502 -0.17851581945E+02  0.24788636811E+02 -0.96407255268E+02  0.10113117403E+03  0.00000000000E+00 0. -1.
          2    1    1    2  501    0  0.70295424874E+02 -0.20566004464E+03 -0.12721096196E+04  0.12905426707E+04  0.00000000000E+00 0. -1.
<scales pt_clust_3="357.85738" pt_clust_4="144.18088" pt_clust_5="30.54759" pt_clust_6="144.18088"></scales>
<clustering>
<clus scale="   30.548">  2  5  1 -1</clus>
<clus scale="  144.181">  4  6 -1 -1</clus>
<clus scale="  357.857">  1  3  2 -1</clus>
<clus scale="  357.857">  1  3  2 -1</clus>
</clustering>
</event>
<event>
 6    0  0.1622933E+002  0.1911139E+03  0.7546771E-02  0.1157461E+00
         21   -1    0    0  503  502  0.00000000000E+00  0.00000000000E+00  0.81147687810E+03  0.81147687810E+03  0.00000000000E+00 0.  1.
         -3   -1    0    0    0  501 -0.00000000000E+00 -0.00000000000E+00 -0.47551890264E+03  0.47551890264E+03  0.00000000000E+00 0.  1.
         21    1    1    2  503  505 -0.16716754358E+02  0.18243596108E+03  0.76371658586E+03  0.78538229754E+03  0.00000000000E+00 0.  1.
         21    1    1    2  504  502 -0.22500505115E+02 -0.42121854716E+02 -0.20356545348E+02  0.51912544858E+02  0.00000000000E+00 0. -1.
         21    1    1    2  505  501  0.57591637357E+02 -0.33562302693E+02 -0.24925095704E+03  0.25801020221E+03  0.00000000000E+00 0.  1.
         -3    1    1    2    0  504 -0.18374377884E+02 -0.10675180367E+03 -0.15815110801E+03  0.19169073613E+03  0.00000000000E+00 0.  1.
<scales pt_clust_3="181.33134" pt_clust_4="40.07816" pt_clust_5="66.65752" pt_clust_6="40.07816"></scales>
<clustering>
<clus scale="   40.078">  4  6 -1 -1</clus>
<clus scale="   66.658">  2  5  1 -1</clus>
<clus scale="  181.331">  1  3  2 -1</clus>
<clus scale="  181.331">  1  3  2 -1</clus>
</clustering>
</event>
<event>
 6    0  0.1622933E+002  0.1146288E+03  0.7546771E-02  0.1252230E+00
         21   -1    0    0  505  502  0.00000000000E+00  0.00000000000E+00  0.37363191598E+03  0.37363191598E+03  0.00000000000E+00 0. -1.
          2   -1    0    0  504    0 -0.00000000000E+00 -0.00000000000E+00 -0.28636110169E+03  0.28636110169E+03  0.00000000000E+00 0. -1.
         21    1    1    2  503  502  0.19797331626E+02  0.37804041215E+02  0.31905980664E+03  0.32190097870E+03  0.00000000000E+00 0. -1.
         21    1    1    2  504  503 -0.10562408418E+02  0.94780039663E+02 -0.14300919343E+03  0.17189080777E+03  0.00000000000E+00 0. -1.
         21    1    1    2  505  501 -0.25907364004E+02 -0.54202446501E+02 -0.32768377780E+02  0.68431449631E+02  0.00000000000E+00 0. -1.
          2    1    1    2  501    0  0.16672440797E+02 -0.78381634377E+02 -0.56011421145E+02  0.97769781571E+02  0.00000000000E+00 0. -1.
<scales pt_clust_3="42.67411" pt_clust_4="105.17888" pt_clust_5="39.46158" pt_clust_6="39.46158"></scales>
<clustering>
<clus scale="   39.462">  5  6 -1 -1</clus>
<clus scale="   42.674">  1  3  2 -1</clus>
<clus scale="  105.179">  2  4  1 -1</clus>
<clus scale="   42.674">  1  3  2 -1</clus>
</clustering>
</event>
<event>
 6    0  0.1622933E+002  0.8708012E+02  0.7546771E-02  0.1310081E+00
         21   -1    0    0  503  502  0.00000000000E+00  0.00000000000E+00  0.24640612939E+03  0.24640612939E+03  0.00000000000E+00 0.  1.
          2   -1    0    0  504    0 -0.00000000000E+00 -0.00000000000E+00 -0.36789636443E+04  0.36789636443E+04  0.00000000000E+00 0.  1.
         21    1    1    2  503  501  0.64309461954E+02  0.57550740038E+01 -0.86471970053E+03  0.86712685822E+03  0.00000000000E+00 0.  1.
         21    1    1    2  504  505  0.20863229354E+02 -0.25470249091E+02 -0.92064562592E+02  0.97774698225E+02  0.00000000000E+00 0.  1.
         21    1    1    2  505  502  0.37961150067E+02  0.34565313044E+02  0.23819622755E+03  0.24366627300E+03  0.00000000000E+00 0.  1.
          2    1    1    2  501    0 -0.12313384137E+03 -0.14850137956E+02 -0.27139694793E+04  0.27168019442E+04  0.00000000000E+00 0.  1.
<scales pt_clust_3="14000.00000" pt_clust_4="32.92428" pt_clust_5="51.33883" pt_clust_6="87.08012"></scales>
<clustering>
<clus scale="   32.924">  2  4  1 -1</clus>
<clus scale="   51.339">  1  5  2 -1</clus>
<clus scale="   87.080">  2  6  1 -1</clus>
<clus scale="   51.339">  1  3  2 -1</clus>
</clustering>
</event>
<event>
 6    0  0.1622933E+002  0.1270293E+03  0.7546771E-02  0.1231932E+00
          2   -1    0    0  504    0 -0.00000000000E+00  0.00000000000E+00  0.19454603376E+03  0.19454603376E+03  0.00000000000E+00 0. -1.
         21   -1    0    0  505  502  0.00000000000E+00 -0.00000000000E+00 -0.88201116327E+03  0.88201116327E+03  0.00000000000E+00 0.  1.
         21    1    1    2  503  502 -0.57842979842E+02 -0.43664307805E+02  0.99507843593E+02  0.12310236809E+03  0.00000000000E+00 0.  1.
         21    1    1    2  504  503  0.41145157731E+02  0.23881700088E+01 -0.96751194571E+01  0.42334800073E+02  0.00000000000E+00 0.  1.
         21    1    1    2  505  501  0.66336761229E+02  0.11234667533E+03 -0.80852026249E+03  0.81897946019E+03  0.00000000000E+00 0.  1.
          2    1    1    2  501    0 -0.49638939117E+02 -0.71070537531E+02  0.31222408854E+02  0.92140568678E+02  0.00000000000E+00 0. -1.
<scales pt_clust_3="53.02726" pt_clust_4="41.21441" pt_clust_5="14000.00000" pt_clust_6="127.02927"></scales>
<clustering>
<clus scale="   41.214">  1  4  2 -1</clus>
<clus scale="   53.027">  1  3  2 -1</clus>
<clus scale="  127.029">  1  6  2 -1</clus>
<clus scale="  127.029">  2  3  1 -1</clus>
</clustering>
</event>
<event>
 6    0  0.3158838E+002  0.1254250E+03  0.7546771E-02  0.1234407E+00
         21   -1    0    0  505  502  0.00000000000E+00  0.00000000000E+00  0.26178191303E+03  0.26178191303E+03  0.00000000000E+00 0.  1.
          1   -1    0    0  504    0 -0.00000000000E+00 -0.00000000000E+00 -0.20194869545E+04  0.20194869545E+04  0.00000000000E+00 0. -1.
         21    1    1    2  503  502 -0.52098268517E+02 -0.15888284317E+02 -0.31408399544E+02  0.62874118068E+02  0.00000000000E+00 0. -1.
         21    1    1    2  504  503  0.26292739831E+02 -0.14958440161E+02 -0.10800915554E+03  0.11216523874E+03  0.00000000000E+00 0.  1.
         21    1    1    2  505  501 -0.66737213340E+02  0.60768110575E+02  0.23430355936E+03  0.25108718971E+03  0.00000000000E+00 0.  1.
          1    1    1    2  501    0  0.92542742026E+02 -0.29921386097E+02 -0.18525910457E+04  0.18551423210E+04  0.00000000000E+00 0. -1.
<scales pt_clust_3="53.95667" pt_clust_4="30.25001" pt_clust_5="14000.00000" pt_clust_6="125.42501"></scales>
<clustering>
<clus scale="   30.250">  2  4  1 -1</clus>
<clus scale="   53.957">  1  3  2 -1</clus>
<clus scale="  125.425">  2  6  1 -1</clus>
<clus scale="   53.957">  1  3  2 -1</clus>
</clustering>
</event>
<event>
 6    0  0.1622933E+002  0.6148121E+02  0.7546771E-02  0.1391719E+00
         21   -1    0    0  501  502  0.00000000000E+00  0.00000000000E+00  0.23303668711E+03  0.23303668711E+03  0.00000000000E+00 0.  1.
          1   -1    0    0  504    0 -0.00000000000E+00 -0.00000000000E+00 -0.53868036826E+03  0.53868036826E+03  0.00000000000E+00 0.  1.
         21    1    1    2  503  502 -0.26692426975E+01  0.61091230822E+02  0.19379761323E+03  0.20321608753E+03  0.00000000000E+00 0.  1.
         21    1    1    2  504  505 -0.45985402977E+02  0.90982180622E+01 -0.13697060725E+03  0.14477010088E+03  0.00000000000E+00 0. -1.
         21    1    1    2  505  503  0.88151884230E+02 -0.51268059532E+02 -0.36585828098E+03  0.37980448968E+03  0.00000000000E+00 0.  1.
          1    1    1    2  501    0 -0.39497238555E+02 -0.18921389352E+02  0.33875938518E+01  0.43926377276E+02  0.00000000000E+00 0.  1.
<scales pt_clust_3="61.48121" pt_clust_4="47.53257" pt_clust_5="14000.00000" pt_clust_6="43.79556"></scales>
<clustering>
<clus scale="   43.796">  1  6  2 -1</clus>
<clus scale="   47.533">  2  4  1 -1</clus>
<clus scale="   61.481">  1  3  2 -1</clus>
<clus scale="   43.796">  1  3  2 -1</clus>
</clustering>
</event>
<event>
 6    0  0.1622933E+002  0.1200318E+03  0.7546771E-02  0.1243045E+00
          2   -1    0    0  505    0 -0.00000000000E+00  0.00000000000E+00  0.60173743233E+03  0.60173743233E+03  0.00000000000E+00 0. -1.
         21   -1    0    0  501  502  0.00000000000E+00 -0.00000000000E+00 -0.20198405810E+03  0.20198405810E+03  0.00000000000E+00 0. -1.
         21    1    1    2  503  502  0.11886997938E+03  0.26673310647E+02 -0.16119894026E+03  0.20205602154E+03  0.00000000000E+00 0. -1.
         21    1    1    2  504  503 -0.48002387973E+02  0.24080781952E+02  0.60223109875E+02  0.80690372868E+02  0.00000000000E+00 0. -1.
         21    1    1    2  505  504 -0.59220464732E+01  0.33911861401E+02  0.83523413968E+02  0.90339612901E+02  0.00000000000E+00 0.  1.
          2    1    1    2  501    0 -0.64945544936E+02 -0.84665954000E+02  0.41720579065E+03  0.43063548312E+03  0.00000000000E+00 0. -1.
<scales pt_clust_3="120.03181" pt_clust_4="56.63612" pt_clust_5="34.42506" pt_clust_6="14000.00000"></scales>
<clustering>
<clus scale="   34.425">  1  5  2 -1</clus>
<clus scale="   56.636">  1  4  2 -1</clus>
<clus scale="  120.032">  2  3  1 -1</clus>
<clus scale="  120.032">  2  3  1 -1</clus>
</clustering>
</event>
<event>
 6    0  0.1622933E+002  0.9690806E+02  0.7546771E-02  0.1286936E+00
         -2   -1    0    0    0  501 -0.00000000000E+00  0.00000000000E+00  0.15899768824E+04  0.15899768824E+04  0.00000000000E+00 0.  1.
         21   -1    0    0  503  502  0.00000000000E+00 -0.00000000000E+00 -0.69360338829E+02  0.69360338829E+02  0.00000000000E+00 0.  1.
         21    1    1    2  503  504  0.72359645024E+01  0.36423406013E+02  0.77607877029E+02  0.86034913058E+02  0.00000000000E+00 0.  1.
         21    1    1    2  504  501 -0.36521060837E+01 -0.13114995773E+03  0.32063151016E+03  0.34643645102E+03  0.00000000000E+00 0.  1.
         21    1    1    2  505  502 -0.61577136559E+02  0.19593646956E+02 -0.29535810336E+02  0.71049411258E+02  0.00000000000E+00 0.  1.
         -2    1    1    2    0  505  0.57993278140E+02  0.75132904764E+02  0.11519129667E+04  0.11558164459E+04  0.00000000000E+00 0.  1.
<scales pt_clust_3="37.13521" pt_clust_4="96.90806" pt_clust_5="73.56251" pt_clust_6="14000.00000"></scales>
<clustering>
<clus scale="   37.135">  2  3  1 -1</clus>
<clus scale="   73.563">  2  5  1 -1</clus>
<clus scale="   96.908">  2  4  1 -1</clus>
<clus scale="   37.135">  2  3  1 -1</clus>
</clustering>
</event>
<event>
 6    0  0.1622933E+002  0.1552929E+03  0.7546771E-02  0.1194116E+00
         21   -1    0    0  504  502  0.00000000000E+00  0.00000000000E+00  0.12757876958E+03  0.12757876958E+03  0.00000000000E+00 0.  1.
          2   -1    0    0  505    0 -0.00000000000E+00 -0.00000000000E+00 -0.36416219650E+03  0.36416219650E+03  0.00000000000E+00 0. -1.
         21    1    1    2  503  501 -0.79317409005E+02 -0.35950554378E+02 -0.13970338678E+02  0.88197868989E+02  0.00000000000E+00 0. -1.
         21    1    1    2  504  503 -0.57037183732E+02 -0.29990114023E+02  0.50086306249E+02  0.81616697684E+02  0.00000000000E+00 0.  1.
         21    1    1    2  505  502  0.35350833061E+02  0.47971956856E+02 -0.54244921260E+02  0.80582265575E+02  0.00000000000E+00 0. -1.
          2    1    1    2  501    0  0.10100375968E+03  0.17968711546E+02 -0.21845447323E+03  0.24134413384E+03  0.00000000000E+00 0. -1.
<scales pt_clust_3="58.29163" pt_clust_4="58.29163" pt_clust_5="59.59018" pt_clust_6="139.72832"></scales>
<clustering>
<clus scale="   58.292">  3  4 -1 -1</clus>
<clus scale="   59.590">  2  5  1 -1</clus>
<clus scale="  139.728">  2  6  1 -1</clus>
<clus scale="  155.293">  1  3  2 -1</clus>
</clustering>
</event>
<event>
 6    0  0.1622933E+002  0.1688193E+03  0.7546771E-02  0.1179085E+00
         21   -1    0    0  503  502  0.00000000000E+00  0.00000000000E+00  0.19477323201E+03  0.19477323201E+03  0.00000000000E+00 0. -1.
          2   -1    0    0  505    0 -0.00000000000E+00 -0.00000000000E+00 -0.10135539845E+04  0.10135539845E+04  0.00000000000E+00 0. -1.
         21    1    1    2  503  501 -0.30394546065E+02 -0.33899237894E+02 -0.11989064046E+03  0.12824489241E+03  0.00000000000E+00 0. -1.
         21    1    1    2  504  502  0.81790926585E+02  0.13370583746E+03  0.15069550750E+03  0.21743077662E+03  0.00000000000E+00 0. -1.
         21    1    1    2  505  504  0.27637618083E+02 -0.16199265637E+02 -0.12778794345E+03  0.13174222038E+03  0.00000000000E+00 0. -1.
          2    1    1    2  501    0 -0.79033998603E+02 -0.83607333931E+02 -0.72179767611E+03  0.73090932711E+03  0.00000000000E+00 0. -1.
<scales pt_clust_3="39.62511" pt_clust_4="156.76610" pt_clust_5="32.03520" pt_clust_6="39.62511"></scales>
<clustering>
<clus scale="   32.035">  2  5  1 -1</clus>
<clus scale="   39.625">  3  6 -1 -1</clus>
<clus scale="  156.766">  1  4  2 -1</clus>
<clus scale="  156.766">  1  3  2 -1</clus>
</clustering>
</event>
<event>
 6    0  0.1622933E+002  0.1225017E+03  0.7546771E-02  0.1239026E+00
          1   -1    0    0  505    0 -0.00000000000E+00  0.00000000000E+00  0.25600622800E+04  0.25600622800E+04  0.00000000000E+00 0.  1.
         21   -1    0    0  501  502  0.00000000000E+00 -0.00000000000E+00 -0.55518461355E+03  0.55518461355E+03  0.00000000000E+00 0. -1.
         21    1    1    2  503  504  0.10213156395E+02  0.92645096866E+02  0.27015495804E+03  0.28578160174E+03  0.00000000000E+00 0.  1.
         21    1    1    2  504  502 -0.94079812554E+02 -0.80576386529E+02 -0.53864967997E+03  0.55270882291E+03  0.00000000000E+00 0. -1.
         21    1    1    2  505  503  0.15828383375E+02 -0.25557312770E+02  0.14943205777E+04  0.14946229300E+04  0.00000000000E+00 0.  1.
          1    1    1    2  501    0  0.68038272784E+02  0.13488602432E+02  0.77905181074E+03  0.78213353897E+03  0.00000000000E+00 0.  1.
<scales pt_clust_3="14000.00000" pt_clust_4="122.50175" pt_clust_5="30.06184" pt_clust_6="79.80504"></scales>
<clustering>
<clus scale="   30.062">  1  5  2 -1</clus>
<clus scale="   79.805">  1  6  2 -1</clus>
<clus scale="  122.502">  2  4  1 -1</clus>
<clus scale="  122.502">  2  3  1 -1</clus>
</clustering>
</event>
<event>
 6    0  0.1622933E+002  0.1225086E+03  0.7546771E-02  0.1239015E+00
          2   -1    0    0  505    0 -0.00000000000E+00  0.00000000000E+00  0.35866110975E+04  0.35866110975E+04  0.00000000000E+00 0.  1.
         21   -1    0    0  504  502  0.00000000000E+00 -0.00000000000E+00 -0.85896613965E+02  0.85896613965E+02  0.00000000000E+00 0. -1.
         21    1    1    2  503  501  0.81688954992E+02 -0.64781956205E+02  0.32565824835E+03  0.34194017303E+03  0.00000000000E+00 0. -1.
         21    1    1    2  504  503 -0.98064042067E+02  0.78271532710E+02 -0.18457003393E+02  0.12682133162E+03  0.00000000000E+00 0. -1.
         21    1    1    2  505  502 -0.39717273536E+02  0.88141818902E+02  0.60886812162E+03  0.61649560548E+03  0.00000000000E+00 0.  1.
          2    1    1    2  501    0  0.56092360611E+02 -0.10163139541E+03  0.25846451170E+04  0.25872506013E+04  0.00000000000E+00 0.  1.
<scales pt_clust_3="122.50861" pt_clust_4="14000.00000" pt_clust_5="96.67700" pt_clust_6="33.00182"></scales>
<clustering>
<clus scale="   96.677">  1  5  2 -1</clus>
<clus scale="   33.002">  1  6  2 -1</clus>
<clus scale="  122.509">  1  3  2 -1</clus>
<clus scale="  122.509">  2  3  1 -1</clus>
</clustering>
</event>
<event>
 6    0  0.1622933E+002  0.1634251E+03  0.7546771E-02  0.1184883E+00
         21   -1    0    0  504  502  0.00000000000E+00  0.00000000000E+00  0.51738583213E+03  0.51738583213E+03  0.00000000000E+00 0. -1.
          1   -1    0    0  503    0 -0.00000000000E+00 -0.00000000000E+00 -0.13551391143E+03  0.13551391143E+03  0.00000000000E+00 0.  1.
         21    1    1    2  503  505 -0.61722052063E+01  0.34475260471E+02 -0.57557676796E+01  0.35493218553E+02  0.00000000000E+00 0.  1.
         21    1    1    2  504  501 -0.10956604593E+03 -0.15161261301E+03  0.37951791625E+03  0.42311340276E+03  0.00000000000E+00 0. -1.
         21    1    1    2  505  502  0.44315470551E+02  0.64582892516E+02  0.53326910423E+02  0.94755318115E+02  0.00000000000E+00 0.  1.
          1    1    1    2  501    0  0.71422780586E+02  0.52554460021E+02 -0.45217138293E+02  0.99537804125E+02  0.00000000000E+00 0.  1.
<scales pt_clust_3="35.02342" pt_clust_4="163.42513" pt_clust_5="82.93926" pt_clust_6="14000.00000"></scales>
<clustering>
<clus scale="   35.023">  2  3  1 -1</clus>
<clus scale="   82.939">  2  5  1 -1</clus>
<clus scale="  163.425">  1  4  2 -1</clus>
<clus scale="  163.425">  1  3  2 -1</clus>
</clustering>
</event>
<event>
 6    0  0.1622933E+002  0.1052757E+03  0.7546771E-02  0.1269577E+00
         21   -1    0    0  501  502  0.00000000000E+00  0.00000000000E+00  0.13772902570E+03  0.13772902570E+03  0.00000000000E+00 0. -1.
          1   -1    0    0  504    0 -0.00000000000E+00 -0.00000000000E+00 -0.58074791076E+03  0.58074791076E+03  0.00000000000E+00 0. -1.
         21    1    1    2  503  505  0.32223338242E+02 -0.37392768000E+02 -0.46395999493E+02  0.67743275645E+02  0.00000000000E+00 0. -1.
         21    1    1    2  504  503  0.49893432327E+01  0.30879787386E+02 -0.19030495127E+03  0.19285857329E+03  0.00000000000E+00 0. -1.
         21    1    1    2  505  502  0.32175826156E+02  0.99806513500E+02  0.90866190009E+02  0.13875621937E+03  0.00000000000E+00 0. -1.
          1    1    1    2  501    0 -0.69388507631E+02 -0.93293532885E+02 -0.29718412431E+03  0.31911886815E+03  0.00000000000E+00 0. -1.
<scales pt_clust_3="46.54137" pt_clust_4="31.28026" pt_clust_5="105.27568" pt_clust_6="14000.00000"></scales>
<clustering>
<clus scale="   31.280">  2  4  1 -1</clus>
<clus scale="   46.541">  2  3  1 -1</clus>
<clus scale="  105.276">  1  5  2 -1</clus>
<clus scale="  105.276">  1  3  2 -1</clus>
</clustering>
</event>
<event>
 6    0  0.1622933E+002  0.1016736E+03  0.7546771E-02  0.1276815E+00
         21   -1    0    0  505  502  0.00000000000E+00  0.00000000000E+00  0.10957114158E+04  0.10957114158E+04  0.00000000000E+00 0. -1.
          2   -1    0    0  504    0 -0.00000000000E+00 -0.00000000000E+00 -0.20002776030E+03  0.20002776030E+03  0.00000000000E+00 0.  1.
         21    1    1    2  503  501 -0.75295324289E+01  0.79419645239E+02 -0.56372275620E+02  0.97683199001E+02  0.00000000000E+00 0.  1.
         21    1    1    2  504  502  0.30661306086E+02  0.53167409775E+01  0.93339156889E+03  0.93391016929E+03  0.00000000000E+00 0. -1.
         21    1    1    2  505  503  0.56041848898E+02 -0.86769971113E+02  0.10478927100E+03  0.14714111605E+03  0.00000000000E+00 0. -1.
          2    1    1    2  501    0 -0.79173622556E+02  0.20335848960E+01 -0.86124908788E+02  0.11700469174E+03  0.00000000000E+00 0.  1.
<scales pt_clust_3="14000.00000" pt_clust_4="31.11886" pt_clust_5="101.67360" pt_clust_6="76.29474"></scales>
<clustering>
<clus scale="   31.119">  1  4  2 -1</clus>
<clus scale="   76.295">  2  6  1 -1</clus>
<clus scale="  101.674">  1  5  2 -1</clus>
<clus scale="   31.119">  1  3  2 -1</clus>
</clustering>
</event>
<event>
 6    0  0.1622933E+002  0.1019105E+03  0.7546771E-02  0.1276329E+00
         21   -1    0    0  501  502  0.00000000000E+00  0.00000000000E+00  0.10751356461E+03  0.10751356461E+03  0.00000000000E+00 0.  1.
          1   -1    0    0  503    0 -0.00000000000E+00 -0.00000000000E+00 -0.23086153979E+03  0.23086153979E+03  0.00000000000E+00 0.  1.
         21    1    1    2  503  505 -0.41216818177E+02 -0.28048498813E+01 -0.64171904596E+02  0.76319896639E+02  0.00000000000E+00 0.  1.
         21    1    1    2  504  502  0.44000202129E+02  0.21775421634E+02 -0.22248109214E+01  0.49144038889E+02  0.00000000000E+00 0. -1.
         21    1    1    2  505  504 -0.41572216263E+02  0.84154030924E+02 -0.37258243671E+02  0.10098676551E+03  0.00000000000E+00 0.  1.
          1    1    1    2  501    0  0.38788832312E+02 -0.10312460268E+03 -0.19693015999E+02  0.11192440336E+03  0.00000000000E+00 0.  1.
<scales pt_clust_3="41.31214" pt_clust_4="43.06134" pt_clust_5="14000.00000" pt_clust_6="101.91046"></scales>
<clustering>
<clus scale="   41.312">  2  3  1 -1</clus>
<clus scale="   43.061">  1  4  2 -1</clus>
<clus scale="  101.910">  1  6  2 -1</clus>
<clus scale="   43.061">  1  3  2 -1</clus>
</clustering>
</event>
<event>
 6    0  0.1622933E+002  0.1139837E+03  0.7546771E-02  0.1253366E+00
         21   -1    0    0  503  502  0.00000000000E+00  0.00000000000E+00  0.28522589857E+03  0.28522589857E+03  0.00000000000E+00 0.  1.
          1   -1    0    0  505    0 -0.00000000000E+00 -0.00000000000E+00 -0.25627822019E+04  0.25627822019E+04  0.00000000000E+00 0.  1.
         21    1    1    2  503  501  0.48967693516E+02  0.29125494322E+02  0.26181500581E+03  0.26794258096E+03  0.00000000000E+00 0.  1.
         21    1    1    2  504  502 -0.14243738975E+03 -0.77626597508E+02 -0.36605204642E+03  0.40038531358E+03  0.00000000000E+00 0.  1.
         21    1    1    2  505  504 -0.14096193840E+02  0.29948819908E+02 -0.11649749574E+04  0.11654451020E+04  0.00000000000E+00 0.  1.
          1    1    1    2  501    0  0.10756589007E+03  0.18552283278E+02 -0.10083443053E+04  0.10142351039E+04  0.00000000000E+00 0.  1.
<scales pt_clust_3="56.98186" pt_clust_4="14000.00000" pt_clust_5="33.10037" pt_clust_6="113.98373"></scales>
<clustering>
<clus scale="   33.100">  2  5  1 -1</clus>
<clus scale="   56.982">  1  3  2 -1</clus>
<clus scale="  113.984">  2  6  1 -1</clus>
<clus scale="   56.982">  1  3  2 -1</clus>
</clustering>
</event>
<event>
 6    0  0.1622933E+002  0.9962309E+02  0.7546771E-02  0.1281091E+00
         -1   -1    0    0    0  501 -0.00000000000E+00  0.00000000000E+00  0.11764908420E+04  0.11764908420E+04  0.00000000000E+00 0. -1.
         21   -1    0    0  503  502  0.00000000000E+00 -0.00000000000E+00 -0.24531867949E+03  0.24531867949E+03  0.00000000000E+00 0. -1.
         21    1    1    2  503  504 -0.18261455500E+02 -0.57359020198E+02 -0.20263868080E+03  0.21139056959E+03  0.00000000000E+00 0. -1.
         21    1    1    2  504  505 -0.64755799612E+02 -0.24655427455E+02  0.54023797977E+02  0.87862246922E+02  0.00000000000E+00 0. -1.
         21    1    1    2  505  501 -0.32945932859E+02  0.47202644813E+01  0.87037415673E+03  0.87101026864E+03  0.00000000000E+00 0. -1.
         -1    1    1    2    0  502  0.11596318797E+03  0.77294183172E+02  0.20941288864E+03  0.25154643636E+03  0.00000000000E+00 0. -1.
<scales pt_clust_3="60.27632" pt_clust_4="99.62309" pt_clust_5="33.28236" pt_clust_6="14000.00000"></scales>
<clustering>
<clus scale="   33.282">  1  5  2 -1</clus>
<clus scale="   60.276">  2  3  1 -1</clus>
<clus scale="   99.623">  2  4  1 -1</clus>
<clus scale="   60.276">  2  3  1 -1</clus>
</clustering>
</event>
<event>
 6    0  0.1622933E+002  0.7939139E+02  0.7546771E-02  0.1330787E+00
         21   -1    0    0  501  502  0.00000000000E+00  0.00000000000E+00  0.49602786970E+02  0.49602786970E+02  0.00000000000E+00 0.  1.
          2   -1    0    0  503    0 -0.00000000000E+00 -0.00000000000E+00 -0.13414467820E+04  0.13414467820E+04  0.00000000000E+00 0. -1.
         21    1    1    2  503  504 -0.54787774076E+02  0.12131019739E+02 -0.20488976195E+03  0.21243511099E+03  0.00000000000E+00 0.  1.
         21    1    1    2  504  505 -0.40790885932E+02 -0.49058735060E+02 -0.20828207139E+02  0.67115349015E+02  0.00000000000E+00 0.  1.
         21    1    1    2  505  502  0.10502884381E+02 -0.28267303826E+02  0.86659449719E+01  0.31375940594E+02  0.00000000000E+00 0. -1.
          2    1    1    2  501    0  0.85075775627E+02  0.65195019147E+02 -0.10747919709E+04  0.10801231684E+04  0.00000000000E+00 0. -1.
<scales pt_clust_3="54.12406" pt_clust_4="14000.00000" pt_clust_5="30.15545" pt_clust_6="79.39139"></scales>
<clustering>
<clus scale="   30.155">  1  5  2 -1</clus>
<clus scale="   54.124">  2  3  1 -1</clus>
<clus scale="   79.391">  2  6  1 -1</clus>
<clus scale="   30.155">  1  3  2 -1</clus>
</clustering>
</event>
<event>
 6    0  0.1622933E+002  0.2531274E+03  0.7546771E-02  0.1111344E+00
         21   -1    0    0  503  502  0.00000000000E+00  0.00000000000E+00  0.28254088386E+03  0.28254088386E+03  0.00000000000E+00 0. -1.
          2   -1    0    0  504    0 -0.00000000000E+00 -0.00000000000E+00 -0.18354947356E+04  0.18354947356E+04  0.00000000000E+00 0. -1.
         21    1    1    2  503  501 -0.87855077466E+02  0.29322324392E+03 -0.53297910681E+03  0.61462599499E+03  0.00000000000E+00 0.  1.
         21    1    1    2  504  505 -0.49683046588E+01 -0.53967787645E+02 -0.10935025283E+03  0.12204377882E+03  0.00000000000E+00 0. -1.
         21    1    1    2  505  502  0.29009253200E+02 -0.46061742051E+02  0.22304086947E+03  0.22958756566E+03  0.00000000000E+00 0. -1.
          2    1    1    2  501    0  0.63814128925E+02 -0.19319371422E+03 -0.11336653616E+04  0.11517782800E+04  0.00000000000E+00 0. -1.
<scales pt_clust_3="14000.00000" pt_clust_4="54.19600" pt_clust_5="54.51739" pt_clust_6="253.12735"></scales>
<clustering>
<clus scale="   54.196">  2  4  1 -1</clus>
<clus scale="   54.517">  1  5  2 -1</clus>
<clus scale="  253.127">  2  6  1 -1</clus>
<clus scale="   54.517">  1  3  2 -1</clus>
</clustering>
</event>
<event>
 6    0  0.1622933E+002  0.2100760E+03  0.7546771E-02  0.1141506E+00
         21   -1    0    0  501  502  0.00000000000E+00  0.00000000000E+00  0.15709324763E+03  0.15709324763E+03  0.00000000000E+00 0.  1.
          2   -1    0    0  505    0 -0.00000000000E+00 -0.00000000000E+00 -0.32380007058E+04  0.32380007058E+04  0.00000000000E+00 0. -1.
         21    1    1    2  503  504  0.40864953103E+02 -0.12951909803E+02 -0.51325236875E+03  0.51503950371E+03  0.00000000000E+00 0. -1.
         21    1    1    2  504  502 -0.15499211934E+03 -0.14184606560E+03  0.63861355440E+02  0.21959311488E+03  0.00000000000E+00 0.  1.
         21    1    1    2  505  503  0.43801630267E+00 -0.30635624718E+02 -0.18212613641E+04  0.18215190610E+04  0.00000000000E+00 0. -1.
          2    1    1    2  501    0  0.11368914994E+03  0.18543360012E+03 -0.81025508076E+03  0.83894227380E+03  0.00000000000E+00 0. -1.
<scales pt_clust_3="47.56435" pt_clust_4="210.07601" pt_clust_5="30.63876" pt_clust_6="14000.00000"></scales>
<clustering>
<clus scale="   30.639">  2  5  1 -1</clus>
<clus scale="   47.564">  2  3  1 -1</clus>
<clus scale="  210.076">  1  4  2 -1</clus>
<clus scale="  210.076">  1  3  2 -1</clus>
</clustering>
</event>
<event>
 6    0  0.1622933E+002  0.7041052E+02  0.7546771E-02  0.1358703E+00
         21   -1    0    0  505  502  0.00000000000E+00  0.00000000000E+00  0.12627210302E+03  0.12627210302E+03  0.00000000000E+00 0. -1.
          2   -1    0    0  503    0 -0.00000000000E+00 -0.00000000000E+00 -0.93820338333E+03  0.93820338333E+03  0.00000000000E+00 0. -1.
         21    1    1    2  503  504  0.23458504291E+02  0.24879747040E+02 -0.18814255751E+03  0.19122480274E+03  0.00000000000E+00 0. -1.
         21    1    1    2  504  502  0.99873441586E+02  0.41783900230E+02 -0.17849608399E+03  0.20876170782E+03  0.00000000000E+00 0. -1.
         21    1    1    2  505  501 -0.60654319038E+02 -0.31405569486E+02  0.96343956778E+02  0.11809917112E+03  0.00000000000E+00 0. -1.
          2    1    1    2  501    0 -0.62677626840E+02 -0.35258077785E+02 -0.54163659559E+03  0.54638980466E+03  0.00000000000E+00 0. -1.
<scales pt_clust_3="34.19508" pt_clust_4="14000.00000" pt_clust_5="70.41052" pt_clust_6="48.75401"></scales>
<clustering>
<clus scale="   34.195">  2  3  1 -1</clus>
<clus scale="   48.754">  2  6  1 -1</clus>
<clus scale="   70.411">  1  5  2 -1</clus>
<clus scale="   70.411">  1  3  2 -1</clus>
</clustering>
</event>
<event>
 6    0  0.1622933E+002  0.1981738E+03  0.7546771E-02  0.1151289E+00
          2   -1    0    0  505    0 -0.00000000000E+00  0.00000000000E+00  0.26788805235E+03  0.26788805235E+03  0.00000000000E+00 0.  1.
         21   -1    0    0  501  502  0.00000000000E+00 -0.00000000000E+00 -0.62251061942E+03  0.62251061942E+03  0.00000000000E+00 0. -1.
         21    1    1    2  503  502  0.49342028342E+02  0.83406927338E+02 -0.46137343183E+03  0.47144118922E+03  0.00000000000E+00 0. -1.
         21    1    1    2  504  503  0.90610459265E+00  0.86313987687E+02 -0.43778514889E+02  0.96785762702E+02  0.00000000000E+00 0.  1.
         21    1    1    2  505  504 -0.38036503298E+02  0.48190388044E+02  0.90059768280E+01  0.62049953277E+02  0.00000000000E+00 0.  1.
          2    1    1    2  501    0 -0.12211629636E+02 -0.21791130307E+03  0.14152340282E+03  0.26012176658E+03  0.00000000000E+00 0.  1.
<scales pt_clust_3="96.90898" pt_clust_4="56.88416" pt_clust_5="56.88416" pt_clust_6="186.34192"></scales>
<clustering>
<clus scale="   56.884">  4  5 -1 -1</clus>
<clus scale="   96.909">  2  3  1 -1</clus>
<clus scale="  186.342">  1  6  2 -1</clus>
<clus scale="   96.909">  2  3  1 -1</clus>
</clustering>
</event>
<event>
 6    0  0.1622933E+002  0.1402211E+03  0.7546771E-02  0.1213032E+00
         21   -1    0    0  501  502  0.00000000000E+00  0.00000000000E+00  0.11073987037E+03  0.11073987037E+03  0.00000000000E+00 0. -1.
          2   -1    0    0  505    0 -0.00000000000E+00 -0.00000000000E+00 -0.21906550048E+04  0.21906550048E+04  0.00000000000E+00 0.  1.
         21    1    1    2  503  504  0.13516503574E+03  0.37712665990E+02 -0.61045212452E+03  0.62637339374E+03  0.00000000000E+00 0. -1.
         21    1    1    2  504  502 -0.97446164981E+02  0.10244255673E+03  0.43721181292E+02  0.14799248019E+03  0.00000000000E+00 0. -1.
         21    1    1    2  505  503 -0.37109325869E+02  0.89811799769E+01 -0.12103658791E+03  0.12691579599E+03  0.00000000000E+00 0.  1.
          2    1    1    2  501    0 -0.60954488616E+00 -0.14913640270E+03 -0.13921476033E+04  0.14001132052E+04  0.00000000000E+00 0.  1.
<scales pt_clust_3="130.47318" pt_clust_4="140.22114" pt_clust_5="38.18067" pt_clust_6="14000.00000"></scales>
<clustering>
<clus scale="   38.181">  2  5  1 -1</clus>
<clus scale="  130.473">  2  3  1 -1</clus>
<clus scale="  140.221">  1  4  2 -1</clus>
<clus scale="  140.221">  1  3  2 -1</clus>
</clustering>
</event>
<event>
 6    0  0.1622933E+002  0.1377062E+03  0.7546771E-02  0.1216449E+00
          1   -1    0    0  505    0 -0.00000000000E+00  0.00000000000E+00  0.12937835190E+04  0.12937835190E+04  0.00000000000E+00 0.  1.
         21   -1    0    0  504  502  0.00000000000E+00 -0.00000000000E+00 -0.31421240644E+02  0.31421240644E+02  0.00000000000E+00 0. -1.
         21    1    1    2  503  501  0.27383513322E+02 -0.93009621932E+02  0.52152498685E+03  0.53046108103E+03  0.00000000000E+00 0.  1.
         21    1    1    2  504  503 -0.13217454514E+02  0.55285359194E+02  0.38308501722E+02  0.68547161496E+02  0.00000000000E+00 0. -1.
         21    1    1    2  505  502 -0.48859570817E+02  0.83674302904E+02  0.22191789974E+03  0.24214912937E+03  0.00000000000E+00 0.  1.
          1    1    1    2  501    0  0.34693512009E+02 -0.45950040165E+02  0.48061089004E+03  0.48404738776E+03  0.00000000000E+00 0.  1.
<scales pt_clust_3="32.58285" pt_clust_4="56.84340" pt_clust_5="131.05427" pt_clust_6="32.58285"></scales>
<clustering>
<clus scale="   32.583">  3  6 -1 -1</clus>
<clus scale="   56.843">  2  4  1 -1</clus>
<clus scale="  131.054">  2  5  1 -1</clus>
<clus scale="   56.843">  2  3  1 -1</clus>
</clustering>
</event>
<event>
 6    0  0.1622933E+002  0.7855821E+02  0.7546771E-02  0.1333194E+00
          2   -1    0    0  503    0 -0.00000000000E+00  0.00000000000E+00  0.40891557647E+04  0.40891557647E+04  0.00000000000E+00 0.  1.
         21   -1    0    0  504  502  0.00000000000E+00 -0.00000000000E+00 -0.14477234677E+03  0.14477234677E+03  0.00000000000E+00 0. -1.
         21    1    1    2  503  505  0.57449232463E+02 -0.79156799651E+02  0.14513617227E+04  0.14546535888E+04  0.00000000000E+00 0. -1.
         21    1    1    2  504  501 -0.31081927239E+02  0.25688483053E+02 -0.13737941347E+03  0.14317502438E+03  0.00000000000E+00 0. -1.
         21    1    1    2  505  502  0.21751517493E+02  0.67046672434E+02  0.48297467389E+03  0.48809109848E+03  0.00000000000E+00 0. -1.
          2    1    1    2  501    0 -0.48118822717E+02 -0.13578355836E+02  0.21474264349E+04  0.21480083999E+04  0.00000000000E+00 0.  1.
<scales pt_clust_3="14000.00000" pt_clust_4="40.32350" pt_clust_5="78.55821" pt_clust_6="51.52747"></scales>
<clustering>
<clus scale="   40.323">  2  4  1 -1</clus>
<clus scale="   51.527">  1  6  2 -1</clus>
<clus scale="   78.558">  2  5  1 -1</clus>
<clus scale="   40.323">  2  3  1 -1</clus>
</clustering>
</event>
<event>
 6    0  0.1622933E+002  0.9245560E+02  0.7546771E-02  0.1297012E+00
         21   -1    0    0  501  502  0.00000000000E+00  0.00000000000E+00  0.66212117784E+02  0.66212117784E+02  0.00000000000E+00 0.  1.
          1   -1    0    0  503    0 -0.00000000000E+00 -0.00000000000E+00 -0.40900523219E+04  0.40900523219E+04  0.00000000000E+00 0.  1.
         21    1    1    2  503  505 -0.15371504834E+02 -0.26153575550E+02 -0.26590288191E+03  0.26762779244E+03  0.00000000000E+00 0. -1.
         21    1    1    2  504  502  0.90316757398E+02 -0.16932060685E+02  0.29149389459E+02  0.96402791722E+02  0.00000000000E+00 0.  1.
         21    1    1    2  505  504  0.40331920366E+02  0.22847050517E+02 -0.23276862412E+04  0.23281477378E+04  0.00000000000E+00 0.  1.
          1    1    1    2  501    0 -0.11527717293E+03  0.20238585718E+02 -0.14594004705E+04  0.14640861178E+04  0.00000000000E+00 0.  1.
<scales pt_clust_3="30.33633" pt_clust_4="14000.00000" pt_clust_5="31.73676" pt_clust_6="92.45560"></scales>
<clustering>
<clus scale="   30.336">  2  3  1 -1</clus>
<clus scale="   31.737">  2  5  1 -1</clus>
<clus scale="   92.456">  2  6  1 -1</clus>
<clus scale="   92.456">  1  3  2 -1</clus>
</clustering>
</event>
<event>
 6    0  0.1622933E+002  0.1205771E+03  0.7546771E-02  0.1242148E+00
         -2   -1    0    0    0  501 -0.00000000000E+00  0.00000000000E+00  0.19958801579E+03  0.19958801579E+03  0.00000000000E+00 0. -1.
         21   -1    0    0  503  502  0.00000000000E+00 -0.00000000000E+00 -0.25118422468E+03  0.25118422468E+03  0.00000000000E+00 0. -1.
         21    1    1    2  503  501  0.11468502393E+03  0.16529752669E+02 -0.19988526733E+03  0.23104113818E+03  0.00000000000E+00 0. -1.
         21    1    1    2  504  502 -0.21500953798E+02  0.26724948140E+02  0.18641949282E+02  0.39038905471E+02  0.00000000000E+00 0. -1.
         21    1    1    2  505  504 -0.68647449116E+02  0.74364382067E+01  0.79325717566E+02  0.10516816225E+03  0.00000000000E+00 0. -1.
         -2    1    1    2    0  505 -0.24536621012E+02 -0.50691139016E+02  0.50321391588E+02  0.75524034564E+02  0.00000000000E+00 0. -1.
<scales pt_clust_3="112.40358" pt_clust_4="30.75642" pt_clust_5="30.75642" pt_clust_6="56.31729"></scales>
<clustering>
<clus scale="   30.756">  4  5 -1 -1</clus>
<clus scale="   56.317">  1  6  2 -1</clus>
<clus scale="  112.404">  2  3  1 -1</clus>
<clus scale="  112.404">  2  3  1 -1</clus>
</clustering>
</event>
<event>
 6    0  0.1622933E+002  0.1530854E+03  0.7546771E-02  0.1196732E+00
          2   -1    0    0  504    0 -0.00000000000E+00  0.00000000000E+00  0.16441896069E+04  0.16441896069E+04  0.00000000000E+00 0.  1.
         21   -1    0    0  503  502  0.00000000000E+00 -0.00000000000E+00 -0.51580515737E+03  0.51580515737E+03  0.00000000000E+00 0.  1.
         21    1    1    2  503  501  0.21930999548E+02 -0.42201967076E+02  0.14076075421E+03  0.14857847991E+03  0.00000000000E+00 0. -1.
         21    1    1    2  504  505 -0.15024087158E+03  0.48080630552E+01  0.15485375169E+03  0.21581269976E+03  0.00000000000E+00 0.  1.
         21    1    1    2  505  502 -0.25161989928E+02  0.40046358565E+02 -0.47575831944E+03  0.47810335189E+03  0.00000000000E+00 0.  1.
          2    1    1    2  501    0  0.15347186196E+03 -0.26524545443E+01  0.13085282631E+04  0.13175002327E+04  0.00000000000E+00 0.  1.
<scales pt_clust_3="42.82226" pt_clust_4="14000.00000" pt_clust_5="47.29521" pt_clust_6="153.08536"></scales>
<clustering>
<clus scale="   47.295">  2  5  1 -1</clus>
<clus scale="   42.822">  2  3  1 -1</clus>
<clus scale="  153.085">  1  6  2 -1</clus>
<clus scale="   47.295">  2  3  1 -1</clus>
</clustering>
</event>
<event>
 6    0  0.1622933E+002  0.8601863E+02  0.7546771E-02  0.1312790E+00
          2   -1    0    0  505    0 -0.00000000000E+00  0.00000000000E+00  0.19310985652E+04  0.19310985652E+04  0.00000000000E+00 0.  1.
         21   -1    0    0  501  502  0.00000000000E+00 -0.00000000000E+00 -0.79967743667E+02  0.79967743667E+02  0.00000000000E+00 0.  1.
         21    1    1    2  503  504 -0.22317680136E+02 -0.61300872158E+02  0.40869508459E+02  0.76981767294E+02  0.00000000000E+00 0.  1.
         21    1    1    2  504  502  0.80296889055E+02  0.72897910811E+02 -0.60532803554E+01  0.10862015465E+03  0.00000000000E+00 0.  1.
         21    1    1    2  505  503 -0.33410784831E+02  0.32385024238E+02  0.16713085153E+04  0.16719561070E+04  0.00000000000E+00 0.  1.
          2    1    1    2  501    0 -0.24568424089E+02 -0.43982062890E+02  0.14500607810E+03  0.15350827992E+03  0.00000000000E+00 0.  1.
<scales pt_clust_3="14000.00000" pt_clust_4="86.01863" pt_clust_5="46.53032" pt_clust_6="50.59779"></scales>
<clustering>
<clus scale="   46.530">  1  5  2 -1</clus>
<clus scale="   50.598">  1  6  2 -1</clus>
<clus scale="   86.019">  2  4  1 -1</clus>
<clus scale="   86.019">  2  3  1 -1</clus>
</clustering>
</event>
<event>
 6    0  0.1622933E+002  0.1447341E+03  0.7546771E-02  0.1207097E+00
          1   -1    0    0  503    0 -0.00000000000E+00  0.00000000000E+00  0.62793152666E+03  0.62793152666E+03  0.00000000000E+00 0.  1.
         21   -1    0    0  504  502  0.00000000000E+00 -0.00000000000E+00 -0.18906130777E+04  0.18906130777E+04  0.00000000000E+00 0.  1.
         21    1    1    2  503  502 -0.33532341031E+02  0.13182463981E+03 -0.18688175265E+04  0.18737612177E+04  0.00000000000E+00 0.  1.
         21    1    1    2  504  505  0.29626284072E+01 -0.32727030701E+02  0.32770549542E+02  0.46408454218E+02  0.00000000000E+00 0. -1.
         21    1    1    2  505  501  0.66691880456E+02 -0.50122611193E+02  0.15893638659E+03  0.17950169373E+03  0.00000000000E+00 0.  1.
          1    1    1    2  501    0 -0.36122167832E+02 -0.48974997913E+02  0.41442903936E+03  0.41887323869E+03  0.00000000000E+00 0.  1.
<scales pt_clust_3="135.57263" pt_clust_4="31.80431" pt_clust_5="31.80431" pt_clust_6="60.85525"></scales>
<clustering>
<clus scale="   31.804">  4  5 -1 -1</clus>
<clus scale="   60.855">  1  6  2 -1</clus>
<clus scale="  135.573">  2  3  1 -1</clus>
<clus scale="  135.573">  2  3  1 -1</clus>
</clustering>
</event>
<event>
 6    0  0.1622933E+002  0.1874207E+03  0.7546771E-02  0.1160808E+00
          2   -1    0    0  504    0 -0.00000000000E+00  0.00000000000E+00  0.96354506463E+03  0.96354506463E+03  0.00000000000E+00 0.  1.
         21   -1    0    0  505  502  0.00000000000E+00 -0.00000000000E+00 -0.16743856475E+03  0.16743856475E+03  0.00000000000E+00 0.  1.
         21    1    1    2  503  502  0.82651548362E+01  0.20173302004E+03 -0.53660001253E+02  0.20891127278E+03  0.00000000000E+00 0.  1.
         21    1    1    2  504  503 -0.12572358251E+02  0.37706337078E+02  0.39649907230E+02  0.56142205079E+02  0.00000000000E+00 0.  1.
         21    1    1    2  505  501  0.20344405666E+02 -0.14607112615E+03  0.19996976900E+03  0.24847248791E+03  0.00000000000E+00 0.  1.
          2    1    1    2  501    0 -0.16037202251E+02 -0.93368230973E+02  0.61014682490E+03  0.61745766361E+03  0.00000000000E+00 0.  1.
<scales pt_clust_3="187.42070" pt_clust_4="39.74710" pt_clust_5="14000.00000" pt_clust_6="72.35362"></scales>
<clustering>
<clus scale="   39.747">  1  4  2 -1</clus>
<clus scale="   72.354">  1  6  2 -1</clus>
<clus scale="  187.421">  2  3  1 -1</clus>
<clus scale="  187.421">  2  3  1 -1</clus>
</clustering>
</event>
<event>
 6    0  0.1622933E+002  0.8501517E+02  0.7546771E-02  0.1315393E+00
         -3   -1    0    0    0  501 -0.00000000000E+00  0.00000000000E+00  0.20592015709E+03  0.20592015709E+03  0.00000000000E+00 0. -1.
         21   -1    0    0  503  502  0.00000000000E+00 -0.00000000000E+00 -0.61810514249E+03  0.61810514249E+03  0.00000000000E+00 0.  1.
         21    1    1    2  503  504 -0.18621661556E+02  0.25406130224E+02 -0.11744572348E+01  0.31521692243E+02  0.00000000000E+00 0. -1.
         21    1    1    2  504  501  0.21118481991E+02  0.21879327700E+02  0.25681916102E+02  0.39802714442E+02  0.00000000000E+00 0. -1.
         21    1    1    2  505  502 -0.41551904484E+02  0.73263287306E+02 -0.56566063950E+03  0.57189686930E+03  0.00000000000E+00 0.  1.
         -3    1    1    2    0  505  0.39055084049E+02 -0.12054874523E+03  0.12896819523E+03  0.18080402360E+03  0.00000000000E+00 0. -1.
<scales pt_clust_3="32.05981" pt_clust_4="30.40880" pt_clust_5="85.01517" pt_clust_6="14000.00000"></scales>
<clustering>
<clus scale="   30.409">  1  4  2 -1</clus>
<clus scale="   32.060">  1  3  2 -1</clus>
<clus scale="   85.015">  2  5  1 -1</clus>
<clus scale="   85.015">  2  3  1 -1</clus>
</clustering>
</event>
<event>
 6    0  0.1622933E+002  0.1132076E+03  0.7546771E-02  0.1254743E+00
         21   -1    0    0  503  502  0.00000000000E+00  0.00000000000E+00  0.32254218732E+03  0.32254218732E+03  0.00000000000E+00 0. -1.
          2   -1    0    0  505    0 -0.00000000000E+00 -0.00000000000E+00 -0.13518532799E+04  0.13518532799E+04  0.00000000000E+00 0. -1.
         21    1    1    2  503  504  0.22246171158E+02  0.11293241357E+03  0.30196415010E+03  0.32315780992E+03  0.00000000000E+00 0. -1.
         21    1    1    2  504  501  0.39609303030E+02 -0.64470006319E+02 -0.31557820270E+03  0.32452254254E+03  0.00000000000E+00 0. -1.
         21    1    1    2  505  502 -0.43945476654E+02 -0.16356631025E+02 -0.10181460075E+03  0.11209351999E+03  0.00000000000E+00 0.  1.
          2    1    1    2  501    0 -0.17909997534E+02 -0.32105776230E+02 -0.91388243918E+03  0.91462159472E+03  0.00000000000E+00 0. -1.
<scales pt_clust_3="14000.00000" pt_clust_4="113.20759" pt_clust_5="54.04547" pt_clust_6="36.76342"></scales>
<clustering>
<clus scale="   36.763">  2  6  1 -1</clus>
<clus scale="   54.045">  2  5  1 -1</clus>
<clus scale="  113.208">  2  4  1 -1</clus>
<clus scale="  113.208">  1  3  2 -1</clus>
</clustering>
</event>
<event>
 6    0  0.1622933E+002  0.8003352E+02  0.7546771E-02  0.1328956E+00
         21   -1    0    0  501  502  0.00000000000E+00  0.00000000000E+00  0.10845709142E+04  0.10845709142E+04  0.00000000000E+00 0. -1.
          2   -1    0    0  505    0 -0.00000000000E+00 -0.00000000000E+00 -0.29705649758E+03  0.29705649758E+03  0.00000000000E+00 0. -1.
         21    1    1    2  503  502  0.23237091994E+01  0.66908027989E+02  0.10277154368E+04  0.10298937338E+04  0.00000000000E+00 0. -1.
         21    1    1    2  504  503 -0.99767525353E+02 -0.52671777717E+02 -0.17882255179E+03  0.21143646873E+03  0.00000000000E+00 0. -1.
         21    1    1    2  505  504  0.36701934556E+02 -0.24220770125E+02  0.10953523018E+02  0.45317296611E+02  0.00000000000E+00 0. -1.
          2    1    1    2  501    0  0.60741881597E+02  0.99845198534E+01 -0.72331991443E+02  0.94979912628E+02  0.00000000000E+00 0. -1.
<scales pt_clust_3="66.85928" pt_clust_4="80.03352" pt_clust_5="43.97360" pt_clust_6="14000.00000"></scales>
<clustering>
<clus scale="   43.974">  2  5  1 -1</clus>
<clus scale="   66.859">  1  3  2 -1</clus>
<clus scale="   80.034">  2  4  1 -1</clus>
<clus scale="   66.859">  1  3  2 -1</clus>
</clustering>
</event>
<event>
 6    0  0.1622933E+002  0.7338820E+02  0.7546771E-02  0.1348936E+00
         21   -1    0    0  505  502  0.00000000000E+00  0.00000000000E+00  0.14297361365E+02  0.14297361365E+02  0.00000000000E+00 0. -1.
          2   -1    0    0  503    0 -0.00000000000E+00 -0.00000000000E+00 -0.28510728126E+04  0.28510728126E+04  0.00000000000E+00 0.  1.
         21    1    1    2  503  502  0.35336927658E+01  0.43891524188E+02 -0.62552218797E+03  0.62707014004E+03  0.00000000000E+00 0. -1.
         21    1    1    2  504  501 -0.82299461203E+02 -0.46119401482E+02 -0.34390825480E+03  0.35661335958E+03  0.00000000000E+00 0. -1.
         21    1    1    2  505  504  0.11040480948E+02  0.37181430301E+02 -0.52660376475E+02  0.65402341160E+02  0.00000000000E+00 0. -1.
          2    1    1    2  501    0  0.67725287490E+02 -0.34953553006E+02 -0.18146846320E+04  0.18162843332E+04  0.00000000000E+00 0.  1.
<scales pt_clust_3="47.74537" pt_clust_4="73.38820" pt_clust_5="38.78596" pt_clust_6="14000.00000"></scales>
<clustering>
<clus scale="   38.786">  1  5  2 -1</clus>
<clus scale="   47.745">  2  3  1 -1</clus>
<clus scale="   73.388">  1  4  2 -1</clus>
<clus scale="   38.786">  1  3  2 -1</clus>
</clustering>
</event>
<event>
 6    0  0.2617526E+002  0.5748777E+02  0.7546771E-02  0.1408687E+00
         21   -1    0    0  504  502  0.00000000000E+00  0.00000000000E+00  0.13209484022E+04  0.13209484022E+04  0.00000000000E+00 0.  1.
          3   -1    0    0  505    0 -0.00000000000E+00 -0.00000000000E+00 -0.43152568693E+03  0.43152568693E+03  0.00000000000E+00 0.  1.
         21    1    1    2  503  502  0.55250592325E+02 -0.72078562947E+01  0.12595670659E+04  0.12607988637E+04  0.00000000000E+00 0.  1.
         21    1    1    2  504  501 -0.56895436909E+02 -0.47160529509E+02 -0.89482985863E+01  0.74439763112E+02  0.00000000000E+00 0. -1.
         21    1    1    2  505  503  0.34904425329E+02 -0.19876514029E+02  0.64624516337E+01  0.40683633056E+02  0.00000000000E+00 0. -1.
          3    1    1    2  501    0 -0.33259580746E+02  0.74244899832E+02 -0.36765850364E+03  0.37655182932E+03  0.00000000000E+00 0.  1.
<scales pt_clust_3="55.77403" pt_clust_4="57.48777" pt_clust_5="40.16709" pt_clust_6="14000.00000"></scales>
<clustering>
<clus scale="   40.167">  2  5  1 -1</clus>
<clus scale="   55.774">  1  3  2 -1</clus>
<clus scale="   57.488">  1  4  2 -1</clus>
<clus scale="   55.774">  1  3  2 -1</clus>
</clustering>
</event>
<event>
 6    0  0.1622933E+002  0.9129091E+02  0.7546771E-02  0.1299755E+00
         21   -1    0    0  504  502  0.00000000000E+00  0.00000000000E+00  0.39243550139E+03  0.39243550139E+03  0.00000000000E+00 0.  1.
         -2   -1    0    0    0  501 -0.00000000000E+00 -0.00000000000E+00 -0.16770959577E+03  0.16770959577E+03  0.00000000000E+00 0. -1.
         21    1    1    2  503  502 -0.13477943707E+01  0.79126246032E+02  0.30866429539E+03  0.31864780967E+03  0.00000000000E+00 0.  1.
         21    1    1    2  504  501 -0.66693791656E+02  0.29970265818E+02  0.13600280464E+02  0.74372349077E+02  0.00000000000E+00 0. -1.
         21    1    1    2  505  503  0.32117725466E+02 -0.43346233508E+02 -0.15738162384E+02  0.56197277547E+02  0.00000000000E+00 0.  1.
         -2    1    1    2    0  505  0.35923860561E+02 -0.65750278342E+02 -0.81800507847E+02  0.11092766086E+03  0.00000000000E+00 0. -1.
<scales pt_clust_3="80.30432" pt_clust_4="73.11825" pt_clust_5="36.84369" pt_clust_6="36.84369"></scales>
<clustering>
<clus scale="   36.844">  5  6 -1 -1</clus>
<clus scale="   73.118">  2  4  1 -1</clus>
<clus scale="   80.304">  1  3  2 -1</clus>
<clus scale="   80.304">  1  3  2 -1</clus>
</clustering>
</event>
<event>
 6    0  0.1622933E+002  0.1079975E+03  0.7546771E-02  0.1264324E+00
         21   -1    0    0  505  502  0.00000000000E+00  0.00000000000E+00  0.27531979541E+03  0.27531979541E+03  0.00000000000E+00 0. -1.
         -1   -1    0    0    0  501 -0.00000000000E+00 -0.00000000000E+00 -0.34639622455E+03  0.34639622455E+03  0.00000000000E+00 0. -1.
         21    1    1    2  503  502  0.13220309115E+03  0.45008435079E+02 -0.73761046964E+02  0.15793703995E+03  0.00000000000E+00 0. -1.
         21    1    1    2  504  501 -0.28289848501E+02  0.11980613893E+02 -0.28219282218E+02  0.41715447095E+02  0.00000000000E+00 0. -1.
         21    1    1    2  505  504 -0.34104036669E+02 -0.62625856730E+01  0.21551149921E+03  0.21828309964E+03  0.00000000000E+00 0. -1.
         -1    1    1    2    0  503 -0.69809205978E+02 -0.50726463299E+02 -0.18460759916E+03  0.20378043328E+03  0.00000000000E+00 0. -1.
<scales pt_clust_3="107.99755" pt_clust_4="30.72215" pt_clust_5="34.78854" pt_clust_6="14000.00000"></scales>
<clustering>
<clus scale="   30.722">  2  4  1 -1</clus>
<clus scale="   34.789">  1  5  2 -1</clus>
<clus scale="  107.998">  1  3  2 -1</clus>
<clus scale="   34.789">  1  3  2 -1</clus>
</clustering>
</event>
<event>
 6    0  0.1622933E+002  0.1168572E+03  0.7546771E-02  0.1248374E+00
          3   -1    0    0  505    0 -0.00000000000E+00  0.00000000000E+00  0.15661606439E+03  0.15661606439E+03  0.00000000000E+00 0. -1.
         21   -1    0    0  504  502  0.00000000000E+00 -0.00000000000E+00 -0.19407482454E+03  0.19407482454E+03  0.00000000000E+00 0. -1.
         21    1    1    2  503  502  0.12156890563E+03  0.40167027776E+02 -0.36018715354E+02  0.13300276986E+03  0.00000000000E+00 0. -1.
         21    1    1    2  504  501 -0.14688761039E+02 -0.32326087922E+02 -0.40817479174E+02  0.54099928533E+02  0.00000000000E+00 0. -1.
         21    1    1    2  505  503 -0.22942604872E+01  0.31192783209E+02  0.41462119135E+02  0.51936121137E+02  0.00000000000E+00 0.  1.
          3    1    1    2  501    0 -0.10458588410E+03 -0.39033723063E+02 -0.20846847535E+01  0.11165206939E+03  0.00000000000E+00 0. -1.
<scales pt_clust_3="116.85717" pt_clust_4="33.86046" pt_clust_5="31.27704" pt_clust_6="14000.00000"></scales>
<clustering>
<clus scale="   31.277">  1  5  2 -1</clus>
<clus scale="   33.860">  2  4  1 -1</clus>
<clus scale="  116.857">  2  3  1 -1</clus>
<clus scale="   33.860">  2  3  1 -1</clus>
</clustering>
</event>
<event>
 6    0  0.1622933E+002  0.1213732E+03  0.7546771E-02  0.1240849E+00
          2   -1    0    0  503    0 -0.00000000000E+00  0.00000000000E+00  0.11319544421E+04  0.11319544421E+04  0.00000000000E+00 0. -1.
         21   -1    0    0  504  502  0.00000000000E+00 -0.00000000000E+00 -0.99198207255E+02  0.99198207255E+02  0.00000000000E+00 0. -1.
         21    1    1    2  503  505  0.36042360933E+02 -0.91279753598E+02  0.45602236855E+03  0.46646269499E+03  0.00000000000E+00 0. -1.
         21    1    1    2  504  501  0.61275105339E+02  0.13788528467E+03 -0.16457658565E+02  0.15178222817E+03  0.00000000000E+00 0. -1.
         21    1    1    2  505  502  0.52156118182E+01 -0.29769641105E+02  0.40500890859E+02  0.50534703903E+02  0.00000000000E+00 0.  1.
          2    1    1    2  501    0 -0.10253307809E+03 -0.16835889964E+02  0.55269063403E+03  0.56237302232E+03  0.00000000000E+00 0. -1.
<scales pt_clust_3="99.77935" pt_clust_4="121.37318" pt_clust_5="30.22307" pt_clust_6="14000.00000"></scales>
<clustering>
<clus scale="   30.223">  2  5  1 -1</clus>
<clus scale="   99.779">  1  3  2 -1</clus>
<clus scale="  121.373">  2  4  1 -1</clus>
<clus scale="   30.223">  2  3  1 -1</clus>
</clustering>
</event>
<event>
 6    0  0.1622933E+002  0.3269181E+03  0.7546771E-02  0.1072509E+00
         21   -1    0    0  501  502  0.00000000000E+00  0.00000000000E+00  0.16255931099E+04  0.16255931099E+04  0.00000000000E+00 0.  1.
          4   -1    0    0  503    0 -0.00000000000E+00 -0.00000000000E+00 -0.52593086635E+03  0.52593086635E+03  0.00000000000E+00 0. -1.
         21    1    1    2  503  504 -0.39928788506E+02  0.70268135803E+02 -0.12389436377E+03  0.14792475261E+03  0.00000000000E+00 0. -1.
         21    1    1    2  504  505 -0.68239243704E+02  0.18479992501E+03 -0.57327286452E+02  0.20516828322E+03  0.00000000000E+00 0. -1.
         21    1    1    2  505  502 -0.61819809472E+02  0.36780836175E+02  0.14281611958E+04  0.14299716501E+04  0.00000000000E+00 0.  1.
          4    1    1    2  501    0  0.16998784168E+03 -0.29184889699E+03 -0.14727730201E+03  0.36845929040E+03  0.00000000000E+00 0. -1.
<scales pt_clust_3="76.39316" pt_clust_4="76.39316" pt_clust_5="71.93413" pt_clust_6="302.98862"></scales>
<clustering>
<clus scale="   71.934">  1  5  2 -1</clus>
<clus scale="   76.393">  3  4 -1 -1</clus>
<clus scale="  302.989">  1  6  2 -1</clus>
<clus scale="   71.934">  1  3  2 -1</clus>
</clustering>
</event>
<event>
 6    0  0.1622933E+002  0.4482418E+03  0.7546771E-02  0.1028248E+00
         21   -1    0    0  503  502  0.00000000000E+00  0.00000000000E+00  0.16970642058E+03  0.16970642058E+03  0.00000000000E+00 0. -1.
          2   -1    0    0  504    0 -0.00000000000E+00 -0.00000000000E+00 -0.23331163523E+04  0.23331163523E+04  0.00000000000E+00 0. -1.
         21    1    1    2  503  501 -0.20524859248E+02 -0.25803236579E+02 -0.13033451306E+02  0.35453458478E+02  0.00000000000E+00 0.  1.
         21    1    1    2  504  505 -0.35859979959E+03  0.24120015670E+03 -0.14896300919E+04  0.15510542036E+04  0.00000000000E+00 0. -1.
         21    1    1    2  505  502  0.95180974120E+01  0.12896918256E+03 -0.12229384669E+03  0.17798716012E+03  0.00000000000E+00 0.  1.
          2    1    1    2  501    0  0.36960656143E+03 -0.34436610268E+03 -0.53845254176E+03  0.73832795061E+03  0.00000000000E+00 0. -1.
<scales pt_clust_3="32.97085" pt_clust_4="14000.00000" pt_clust_5="124.57611" pt_clust_6="448.24179"></scales>
<clustering>
<clus scale="   32.971">  1  3  2 -1</clus>
<clus scale="  124.576">  1  5  2 -1</clus>
<clus scale="  448.242">  1  6  2 -1</clus>
<clus scale="   32.971">  1  3  2 -1</clus>
</clustering>
</event>
<event>
 6    0  0.1622933E+002  0.1282153E+03  0.7546771E-02  0.1230128E+00
          2   -1    0    0  503    0 -0.00000000000E+00  0.00000000000E+00  0.25698784508E+04  0.25698784508E+04  0.00000000000E+00 0.  1.
         21   -1    0    0  504  502  0.00000000000E+00 -0.00000000000E+00 -0.24710649084E+02  0.24710649084E+02  0.00000000000E+00 0. -1.
         21    1    1    2  503  502  0.10681644680E+03  0.14500623310E+02  0.12019719882E+04  0.12067960398E+04  0.00000000000E+00 0. -1.
         21    1    1    2  504  505  0.40960818064E+02 -0.60469929012E+02  0.59984749662E+02  0.94512280277E+02  0.00000000000E+00 0. -1.
         21    1    1    2  505  501 -0.55901204416E+02  0.37566806923E+02  0.62917659406E+03  0.63277120363E+03  0.00000000000E+00 0.  1.
          2    1    1    2  501    0 -0.91876060444E+02  0.84024987784E+01  0.65403446987E+03  0.66050957620E+03  0.00000000000E+00 0.  1.
<scales pt_clust_3="120.19118" pt_clust_4="73.03698" pt_clust_5="38.14591" pt_clust_6="38.14591"></scales>
<clustering>
<clus scale="   38.146">  5  6 -1 -1</clus>
<clus scale="   73.037">  2  4  1 -1</clus>
<clus scale="  120.191">  1  3  2 -1</clus>
<clus scale="   73.037">  2  3  1 -1</clus>
</clustering>
</event>
<event>
 6    0  0.1622933E+002  0.1659137E+03  0.7546771E-02  0.1182177E+00
         21   -1    0    0  503  502  0.00000000000E+00  0.00000000000E+00  0.25545772083E+03  0.25545772083E+03  0.00000000000E+00 0. -1.
          2   -1    0    0  505    0 -0.00000000000E+00 -0.00000000000E+00 -0.82518920570E+03  0.82518920570E+03  0.00000000000E+00 0.  1.
         21    1    1    2  503  501  0.10482580279E+02 -0.30498984585E+02  0.10025641353E+02  0.33772563340E+02  0.00000000000E+00 0.  1.
         21    1    1    2  504  502  0.27567920167E+02  0.23680757877E+02  0.17475957312E+03  0.17849839471E+03  0.00000000000E+00 0. -1.
         21    1    1    2  505  504  0.96649212468E+02  0.11149305967E+03 -0.70726089578E+02  0.16362748049E+03  0.00000000000E+00 0. -1.
          2    1    1    2  501    0 -0.13469971291E+03 -0.10467483296E+03 -0.68379060977E+03  0.70474848799E+03  0.00000000000E+00 0.  1.
<scales pt_clust_3="32.25016" pt_clust_4="35.50073" pt_clust_5="14000.00000" pt_clust_6="165.91370"></scales>
<clustering>
<clus scale="   32.250">  1  3  2 -1</clus>
<clus scale="   35.501">  1  4  2 -1</clus>
<clus scale="  165.914">  2  6  1 -1</clus>
<clus scale="   32.250">  1  3  2 -1</clus>
</clustering>
</event>
<event>
 6    0  0.1622933E+002  0.2034247E+03  0.7546771E-02  0.1146881E+00
         21   -1    0    0  505  502  0.00000000000E+00  0.00000000000E+00  0.52644509105E+03  0.52644509105E+03  0.00000000000E+00 0.  1.
         -1   -1    0    0    0  501 -0.00000000000E+00 -0.00000000000E+00 -0.65777082433E+03  0.65777082433E+03  0.00000000000E+00 0.  1.
         21    1    1    2  503  502 -0.22862240156E+02  0.37953743411E+02  0.38981349989E+03  0.39232350600E+03  0.00000000000E+00 0.  1.
         21    1    1    2  504  501  0.23124835494E+02  0.30996639731E+02 -0.32628391318E+03  0.32856771249E+03  0.00000000000E+00 0.  1.
         21    1    1    2  505  504 -0.20402533116E+03 -0.67519930463E+02 -0.12070158472E+03  0.24648356805E+03  0.00000000000E+00 0.  1.
         -1    1    1    2    0  503  0.20376273582E+03 -0.14304526792E+01 -0.74153735276E+02  0.21684112885E+03  0.00000000000E+00 0.  1.
<scales pt_clust_3="44.36341" pt_clust_4="38.67234" pt_clust_5="203.42467" pt_clust_6="14000.00000"></scales>
<clustering>
<clus scale="   38.672">  2  4  1 -1</clus>
<clus scale="   44.363">  1  3  2 -1</clus>
<clus scale="  203.425">  2  5  1 -1</clus>
<clus scale="   44.363">  1  3  2 -1</clus>
</clustering>
</event>
<event>
 6    0  0.1622933E+002  0.1709753E+03  0.7546771E-02  0.1176835E+00
          2   -1    0    0  503    0 -0.00000000000E+00  0.00000000000E+00  0.26982606478E+04  0.26982606478E+04  0.00000000000E+00 0.  1.
         21   -1    0    0  505  502  0.00000000000E+00 -0.00000000000E+00 -0.68909881523E+03  0.68909881523E+03  0.00000000000E+00 0.  1.
         21    1    1    2  503  504 -0.92944846953E+02 -0.20162848485E+02  0.31315110921E+03  0.32727496426E+03  0.00000000000E+00 0.  1.
         21    1    1    2  504  502 -0.13006135167E+03 -0.40889353171E+02 -0.13874844346E+02  0.13704162035E+03  0.00000000000E+00 0. -1.
         21    1    1    2  505  501 -0.37113191172E+02 -0.37072275760E+01 -0.59824102219E+03  0.59940258018E+03  0.00000000000E+00 0.  1.
          2    1    1    2  501    0  0.26011938980E+03  0.64759429232E+02  0.23081265899E+04  0.23236402982E+04  0.00000000000E+00 0.  1.
<scales pt_clust_3="98.00594" pt_clust_4="14000.00000" pt_clust_5="37.29789" pt_clust_6="170.97534"></scales>
<clustering>
<clus scale="   37.298">  2  5  1 -1</clus>
<clus scale="   98.006">  1  3  2 -1</clus>
<clus scale="  170.975">  1  6  2 -1</clus>
<clus scale="   37.298">  2  3  1 -1</clus>
</clustering>
</event>
<event>
 6    0  0.1622933E+002  0.1905489E+03  0.7546771E-02  0.1157967E+00
         21   -1    0    0  501  502  0.00000000000E+00  0.00000000000E+00  0.34646410690E+03  0.34646410690E+03  0.00000000000E+00 0.  1.
          1   -1    0    0  503    0 -0.00000000000E+00 -0.00000000000E+00 -0.14839715707E+04  0.14839715707E+04  0.00000000000E+00 0.  1.
         21    1    1    2  503  505  0.27345792055E+02 -0.15039214068E+02 -0.40269045401E+02  0.50946700780E+02  0.00000000000E+00 0. -1.
         21    1    1    2  504  502  0.50267026006E+02  0.39594167525E+01  0.15021126937E+03  0.15844833963E+03  0.00000000000E+00 0.  1.
         21    1    1    2  505  504 -0.67242987868E+02 -0.19267569942E+03  0.12114559167E+03  0.23732214171E+03  0.00000000000E+00 0.  1.
          1    1    1    2  501    0 -0.10369830192E+02  0.20375549674E+03 -0.13685952795E+04  0.13837184955E+04  0.00000000000E+00 0.  1.
<scales pt_clust_3="31.20850" pt_clust_4="50.49742" pt_clust_5="190.54892" pt_clust_6="14000.00000"></scales>
<clustering>
<clus scale="   31.208">  2  3  1 -1</clus>
<clus scale="   50.497">  1  4  2 -1</clus>
<clus scale="  190.549">  1  5  2 -1</clus>
<clus scale="   50.497">  1  3  2 -1</clus>
</clustering>
</event>
<event>
 6    0  0.1622933E+002  0.1376405E+03  0.7546771E-02  0.1216540E+00
         21   -1    0    0  505  502  0.00000000000E+00  0.00000000000E+00  0.34227831021E+03  0.34227831021E+03  0.00000000000E+00 0.  1.
         -3   -1    0    0    0  501 -0.00000000000E+00 -0.00000000000E+00 -0.16072700481E+04  0.16072700481E+04  0.00000000000E+00 0. -1.
         21    1    1    2  503  502 -0.76520803566E+02  0.72220522796E+02  0.31187302103E+03  0.32914437340E+03  0.00000000000E+00 0.  1.
         21    1    1    2  504  501  0.11403437874E+02  0.27752316264E+02 -0.76182412115E+02  0.81877893042E+02  0.00000000000E+00 0. -1.
         21    1    1    2  505  504 -0.24806272652E+02  0.21573360486E+02 -0.27577884905E+01  0.32990399253E+02  0.00000000000E+00 0.  1.
         -3    1    1    2    0  503  0.89923638344E+02 -0.12154619955E+03 -0.14979245583E+04  0.15055356927E+04  0.00000000000E+00 0. -1.
<scales pt_clust_3="14000.00000" pt_clust_4="30.00382" pt_clust_5="32.98897" pt_clust_6="137.64052"></scales>
<clustering>
<clus scale="   30.004">  2  4  1 -1</clus>
<clus scale="   32.989">  1  5  2 -1</clus>
<clus scale="  137.641">  2  6  1 -1</clus>
<clus scale="   32.989">  1  3  2 -1</clus>
</clustering>
</event>
<event>
 6    0  0.1622933E+002  0.1446146E+03  0.7546771E-02  0.1207251E+00
          1   -1    0    0  502    0 -0.00000000000E+00  0.00000000000E+00  0.17710729899E+03  0.17710729899E+03  0.00000000000E+00 0.  1.
         21   -1    0    0  504  502  0.00000000000E+00 -0.00000000000E+00 -0.91195175212E+03  0.91195175212E+03  0.00000000000E+00 0.  1.
         21    1    1    2  503  505 -0.33230418045E+02 -0.14659782567E+03  0.25629908217E+01  0.15033879106E+03  0.00000000000E+00 0.  1.
         21    1    1    2  504  503 -0.16633520873E+02  0.31587693577E+02 -0.79136784829E+03  0.79217266281E+03  0.00000000000E+00 0.  1.
         21    1    1    2  505  501  0.42233457908E+02  0.75099518715E+02  0.10087784990E+02  0.86748867912E+02  0.00000000000E+00 0.  1.
          1    1    1    2  501    0  0.76304810105E+01  0.39910613377E+02  0.43872619354E+02  0.59798729331E+02  0.00000000000E+00 0.  1.
<scales pt_clust_3="134.39732" pt_clust_4="35.69953" pt_clust_5="36.12909" pt_clust_6="36.12909"></scales>
<clustering>
<clus scale="   35.700">  2  4  1 -1</clus>
<clus scale="   36.129">  5  6 -1 -1</clus>
<clus scale="  134.397">  2  3  1 -1</clus>
<clus scale="   35.700">  2  3  1 -1</clus>
</clustering>
</event>
<event>
 6    0  0.1622933E+002  0.1200244E+03  0.7546771E-02  0.1243057E+00
         21   -1    0    0  503  502  0.00000000000E+00  0.00000000000E+00  0.12140863974E+03  0.12140863974E+03  0.00000000000E+00 0.  1.
          2   -1    0    0  504    0 -0.00000000000E+00 -0.00000000000E+00 -0.17640722712E+04  0.17640722712E+04  0.00000000000E+00 0. -1.
         21    1    1    2  503  505  0.32414751124E+02  0.12077585092E+03  0.78082758923E+02  0.14742604756E+03  0.00000000000E+00 0.  1.
         21    1    1    2  504  502 -0.78433463791E+01  0.35876621337E+02 -0.19111362864E+03  0.19461004366E+03  0.00000000000E+00 0.  1.
         21    1    1    2  505  501  0.49234471167E+01 -0.80999774619E+02 -0.28955035980E+03  0.30070685838E+03  0.00000000000E+00 0. -1.
          2    1    1    2  501    0 -0.29494851862E+02 -0.75652697642E+02 -0.12400824020E+04  0.12427379614E+04  0.00000000000E+00 0. -1.
<scales pt_clust_3="120.02441" pt_clust_4="36.72397" pt_clust_5="14000.00000" pt_clust_6="59.26068"></scales>
<clustering>
<clus scale="   36.724">  2  4  1 -1</clus>
<clus scale="   59.261">  2  6  1 -1</clus>
<clus scale="  120.024">  1  3  2 -1</clus>
<clus scale="  120.024">  1  3  2 -1</clus>
</clustering>
</event>
<event>
 6    0  0.1622933E+002  0.7515153E+02  0.7546771E-02  0.1343402E+00
         21   -1    0    0  504  502  0.00000000000E+00  0.00000000000E+00  0.97434898827E+03  0.97434898827E+03  0.00000000000E+00 0. -1.
         -1   -1    0    0    0  501 -0.00000000000E+00 -0.00000000000E+00 -0.12454360155E+03  0.12454360155E+03  0.00000000000E+00 0.  1.
         21    1    1    2  503  502  0.78620340088E+01 -0.74366036186E+02  0.89323717601E+03  0.89636196457E+03  0.00000000000E+00 0. -1.
         21    1    1    2  504  501 -0.43912797378E+02 -0.87119120930E+00  0.57291616442E+01  0.44293521432E+02  0.00000000000E+00 0. -1.
         21    1    1    2  505  503  0.57417771897E+02  0.96298122107E+02 -0.15559975918E+02  0.11319117325E+03  0.00000000000E+00 0. -1.
         -1    1    1    2    0  505 -0.21367008528E+02 -0.21060894711E+02 -0.33600975012E+02  0.45045930573E+02  0.00000000000E+00 0.  1.
<scales pt_clust_3="75.15153" pt_clust_4="49.07215" pt_clust_5="14000.00000" pt_clust_6="30.00184"></scales>
<clustering>
<clus scale="   30.002">  2  6  1 -1</clus>
<clus scale="   49.072">  2  4  1 -1</clus>
<clus scale="   75.152">  1  3  2 -1</clus>
<clus scale="   75.152">  1  3  2 -1</clus>
</clustering>
</event>
<event>
 6    0  0.1622933E+002  0.1350034E+03  0.7546771E-02  0.1220215E+00
         -4   -1    0    0    0  501 -0.00000000000E+00  0.00000000000E+00  0.13870893451E+03  0.13870893451E+03  0.00000000000E+00 0. -1.
         21   -1    0    0  504  502  0.00000000000E+00 -0.00000000000E+00 -0.13812786650E+04  0.13812786650E+04  0.00000000000E+00 0. -1.
         21    1    1    2  503  502 -0.34988709671E+02  0.56692759982E+02 -0.12323502042E+03  0.14008978941E+03  0.00000000000E+00 0. -1.
         21    1    1    2  504  505 -0.25492803937E+02 -0.74637972377E+02 -0.10975543700E+04  0.11003846169E+04  0.00000000000E+00 0. -1.
         21    1    1    2  505  501  0.74545639153E+01 -0.12550339510E+03 -0.91903047411E+01  0.12606004286E+03  0.00000000000E+00 0. -1.
         -4    1    1    2    0  503  0.53026949693E+02  0.14344860749E+03 -0.12590035405E+02  0.15345315043E+03  0.00000000000E+00 0. -1.
<scales pt_clust_3="66.62041" pt_clust_4="61.47858" pt_clust_5="135.00339" pt_clust_6="14000.00000"></scales>
<clustering>
<clus scale="   66.620">  2  3  1 -1</clus>
<clus scale="   61.479">  2  4  1 -1</clus>
<clus scale="  135.003">  1  5  2 -1</clus>
<clus scale="   66.620">  2  3  1 -1</clus>
</clustering>
</event>
<event>
 6    0  0.1622933E+002  0.2389790E+03  0.7546771E-02  0.1120475E+00
         21   -1    0    0  504  502  0.00000000000E+00  0.00000000000E+00  0.89240932765E+02  0.89240932765E+02  0.00000000000E+00 0.  1.
          2   -1    0    0  505    0 -0.00000000000E+00 -0.00000000000E+00 -0.24243787260E+04  0.24243787260E+04  0.00000000000E+00 0. -1.
         21    1    1    2  503  501  0.77565518097E+02  0.30561402015E+02 -0.44308614857E+03  0.45086111381E+03  0.00000000000E+00 0. -1.
         21    1    1    2  504  503 -0.18999320163E+03 -0.10436807521E+03 -0.73745005812E+02  0.22897256969E+03  0.00000000000E+00 0.  1.
         21    1    1    2  505  502  0.15751491541E+02 -0.50285292861E+02 -0.16973793664E+03  0.17772925279E+03  0.00000000000E+00 0.  1.
          2    1    1    2  501    0  0.96676191989E+02  0.12409196605E+03 -0.16485687022E+04  0.16560567224E+04  0.00000000000E+00 0. -1.
<scales pt_clust_3="76.64865" pt_clust_4="217.49952" pt_clust_5="52.69459" pt_clust_6="76.64865"></scales>
<clustering>
<clus scale="   52.695">  2  5  1 -1</clus>
<clus scale="   76.649">  3  6 -1 -1</clus>
<clus scale="  217.500">  1  4  2 -1</clus>
<clus scale="  217.500">  1  3  2 -1</clus>
</clustering>
</event>
<event>
 6    0  0.1622933E+002  0.6516445E+02  0.7546771E-02  0.1377354E+00
         21   -1    0    0  504  502  0.00000000000E+00  0.00000000000E+00  0.20009471299E+02  0.20009471299E+02  0.00000000000E+00 0.  1.
          2   -1    0    0  503    0 -0.00000000000E+00 -0.00000000000E+00 -0.19343670930E+04  0.19343670930E+04  0.00000000000E+00 0.  1.
         21    1    1    2  503  502  0.76085978652E+02 -0.60617439101E+01 -0.11852187539E+03  0.14097253574E+03  0.00000000000E+00 0.  1.
         21    1    1    2  504  505 -0.54696409179E+02  0.37019616519E+01 -0.11399653842E+03  0.12649352738E+03  0.00000000000E+00 0.  1.
         21    1    1    2  505  501 -0.65917658621E+02  0.31495511452E+02 -0.74887585174E+03  0.75243082492E+03  0.00000000000E+00 0.  1.
          2    1    1    2  501    0  0.44528089147E+02 -0.29135729193E+02 -0.93296335611E+03  0.93447967623E+03  0.00000000000E+00 0.  1.
<scales pt_clust_3="65.16445" pt_clust_4="14000.00000" pt_clust_5="33.91269" pt_clust_6="53.21317"></scales>
<clustering>
<clus scale="   53.213">  2  6  1 -1</clus>
<clus scale="   33.913">  2  5  1 -1</clus>
<clus scale="   65.164">  2  3  1 -1</clus>
<clus scale="   65.164">  1  3  2 -1</clus>
</clustering>
</event>
<event>
 6    0  0.1622933E+002  0.2949477E+03  0.7546771E-02  0.1087794E+00
         21   -1    0    0  504  502  0.00000000000E+00  0.00000000000E+00  0.28287506706E+04  0.28287506706E+04  0.00000000000E+00 0.  1.
          2   -1    0    0  505    0 -0.00000000000E+00 -0.00000000000E+00 -0.15159735868E+03  0.15159735868E+03  0.00000000000E+00 0. -1.
         21    1    1    2  503  501 -0.55580273621E+02  0.31549531642E+02  0.73096575645E+02  0.97096081968E+02  0.00000000000E+00 0.  1.
         21    1    1    2  504  503  0.18947366350E+03 -0.20869985542E+03  0.24890157513E+04  0.25049262083E+04  0.00000000000E+00 0.  1.
         21    1    1    2  505  502  0.40346907649E+02 -0.29128984837E+02 -0.42730397590E+02  0.65591596967E+02  0.00000000000E+00 0. -1.
          2    1    1    2  501    0 -0.17424029752E+03  0.20627930862E+03  0.15777138258E+03  0.31273414205E+03  0.00000000000E+00 0. -1.
<scales pt_clust_3="35.35374" pt_clust_4="285.85554" pt_clust_5="49.76315" pt_clust_6="35.35374"></scales>
<clustering>
<clus scale="   35.354">  3  6 -1 -1</clus>
<clus scale="   49.763">  2  5  1 -1</clus>
<clus scale="  285.856">  1  4  2 -1</clus>
<clus scale="  285.856">  1  3  2 -1</clus>
</clustering>
</event>
<event>
 6    0  0.1622933E+002  0.8523772E+02  0.7546771E-02  0.1314812E+00
         21   -1    0    0  504  502  0.00000000000E+00  0.00000000000E+00  0.42816827839E+03  0.42816827839E+03  0.00000000000E+00 0. -1.
          1   -1    0    0  503    0 -0.00000000000E+00 -0.00000000000E+00 -0.30342632592E+03  0.30342632592E+03  0.00000000000E+00 0. -1.
         21    1    1    2  503  502 -0.10789756139E+02  0.30743189794E+02  0.19622924824E+01  0.32640667089E+02  0.00000000000E+00 0.  1.
         21    1    1    2  504  505 -0.47629783389E+02 -0.43684522069E+02  0.36619430234E+03  0.37185373576E+03  0.00000000000E+00 0. -1.
         21    1    1    2  505  501  0.59825408375E+02 -0.59100027072E+02 -0.12269988849E+02  0.84984971103E+02  0.00000000000E+00 0.  1.
          1    1    1    2  501    0 -0.14058688465E+01  0.72041359347E+02 -0.23114465350E+03  0.24211523035E+03  0.00000000000E+00 0. -1.
<scales pt_clust_3="32.58163" pt_clust_4="64.50387" pt_clust_5="85.23772" pt_clust_6="14000.00000"></scales>
<clustering>
<clus scale="   32.582">  2  3  1 -1</clus>
<clus scale="   64.504">  1  4  2 -1</clus>
<clus scale="   85.238">  1  5  2 -1</clus>
<clus scale="   64.504">  1  3  2 -1</clus>
</clustering>
</event>
<event>
 6    0  0.1622933E+002  0.1498354E+03  0.7546771E-02  0.1200675E+00
          3   -1    0    0  505    0 -0.00000000000E+00  0.00000000000E+00  0.35488237375E+03  0.35488237375E+03  0.00000000000E+00 0.  1.
         21   -1    0    0  504  502  0.00000000000E+00 -0.00000000000E+00 -0.13417188582E+04  0.13417188582E+04  0.00000000000E+00 0. -1.
         21    1    1    2  503  502 -0.46548956757E+02 -0.39838718170E+01 -0.11465036647E+04  0.11474551537E+04  0.00000000000E+00 0. -1.
         21    1    1    2  504  501  0.50342555989E+02  0.55105702562E+02  0.23374069436E+02  0.78213544354E+02  0.00000000000E+00 0.  1.
         21    1    1    2  505  503 -0.14801381811E+03 -0.83420619176E+02 -0.96344639971E+02  0.19531866195E+03  0.00000000000E+00 0. -1.
          3    1    1    2  501    0  0.14422021888E+03  0.32298788431E+02  0.23263775083E+03  0.27561387189E+03  0.00000000000E+00 0.  1.
<scales pt_clust_3="46.71912" pt_clust_4="69.94678" pt_clust_5="149.83543" pt_clust_6="14000.00000"></scales>
<clustering>
<clus scale="   46.719">  2  3  1 -1</clus>
<clus scale="   69.947">  2  4  1 -1</clus>
<clus scale="  149.835">  2  5  1 -1</clus>
<clus scale="   46.719">  2  3  1 -1</clus>
</clustering>
</event>
<event>
 6    0  0.1622933E+002  0.1169703E+03  0.7546771E-02  0.1248180E+00
         21   -1    0    0  503  502  0.00000000000E+00  0.00000000000E+00  0.23325274172E+02  0.23325274172E+02  0.00000000000E+00 0. -1.
         -1   -1    0    0    0  501 -0.00000000000E+00 -0.00000000000E+00 -0.24629265275E+04  0.24629265275E+04  0.00000000000E+00 0. -1.
         21    1    1    2  503  505 -0.39280379093E+02 -0.46422748720E+01 -0.73630253822E+03  0.73736417507E+03  0.00000000000E+00 0. -1.
         21    1    1    2  504  502  0.18408360625E+02  0.41853781192E+02 -0.10898801609E+02  0.47004155321E+02  0.00000000000E+00 0. -1.
         21    1    1    2  505  501 -0.71640930004E+02  0.90522755460E+01 -0.53116880274E+03  0.53605472067E+03  0.00000000000E+00 0. -1.
         -1    1    1    2    0  504  0.92512948472E+02 -0.46263781865E+02 -0.11612311107E+04  0.11658287506E+04  0.00000000000E+00 0. -1.
<scales pt_clust_3="39.08637" pt_clust_4="45.72315" pt_clust_5="39.08637" pt_clust_6="104.36930"></scales>
<clustering>
<clus scale="   39.086">  3  5 -1 -1</clus>
<clus scale="   45.723">  1  4  2 -1</clus>
<clus scale="  104.369">  2  6  1 -1</clus>
<clus scale="   45.723">  1  3  2 -1</clus>
</clustering>
</event>
<event>
 6    0  0.1622933E+002  0.1078761E+03  0.7546771E-02  0.1264554E+00
          2   -1    0    0  504    0 -0.00000000000E+00  0.00000000000E+00  0.26253081905E+04  0.26253081905E+04  0.00000000000E+00 0.  1.
         21   -1    0    0  505  502  0.00000000000E+00 -0.00000000000E+00 -0.78182050897E+02  0.78182050897E+02  0.00000000000E+00 0.  1.
         21    1    1    2  503  502  0.70172462329E+02 -0.38675822357E+01 -0.54568532741E+02  0.88976724075E+02  0.00000000000E+00 0.  1.
         21    1    1    2  504  503 -0.11663809800E+02  0.28162200148E+02  0.23881046349E+03  0.24074798327E+03  0.00000000000E+00 0.  1.
         21    1    1    2  505  501  0.61201041007E+02 -0.55720318289E+02  0.50264831128E+03  0.50941696686E+03  0.00000000000E+00 0.  1.
          2    1    1    2  501    0 -0.11970969354E+03  0.31425700376E+02  0.18602358975E+04  0.18643485672E+04  0.00000000000E+00 0.  1.
<scales pt_clust_3="70.18408" pt_clust_4="30.48203" pt_clust_5="107.87610" pt_clust_6="14000.00000"></scales>
<clustering>
<clus scale="   30.482">  1  4  2 -1</clus>
<clus scale="   70.184">  2  3  1 -1</clus>
<clus scale="  107.876">  2  5  1 -1</clus>
<clus scale="   70.184">  2  3  1 -1</clus>
</clustering>
</event>
<event>
 6    0  0.1622933E+002  0.5334869E+03  0.7546771E-02  0.1005390E+00
         21   -1    0    0  505  502  0.00000000000E+00  0.00000000000E+00  0.56218964656E+03  0.56218964656E+03  0.00000000000E+00 0. -1.
          4   -1    0    0  504    0 -0.00000000000E+00 -0.00000000000E+00 -0.94419834616E+03  0.94419834616E+03  0.00000000000E+00 0. -1.
         21    1    1    2  503  502  0.10822652359E+02 -0.53758613474E+03 -0.18797968625E+03  0.56960718440E+03  0.00000000000E+00 0. -1.
         21    1    1    2  504  503  0.11117395734E+03  0.15083565325E+02 -0.31947618279E+03  0.33860329902E+03  0.00000000000E+00 0. -1.
         21    1    1    2  505  501 -0.49663265146E+02 -0.46707658357E+01  0.28038634644E+02  0.57222556664E+02  0.00000000000E+00 0. -1.
          4    1    1    2  501    0 -0.72333344556E+02  0.52717333526E+03  0.97408534799E+02  0.54095495264E+03  0.00000000000E+00 0. -1.
<scales pt_clust_3="533.48686" pt_clust_4="111.27512" pt_clust_5="49.88242" pt_clust_6="14000.00000"></scales>
<clustering>
<clus scale="   49.882">  1  5  2 -1</clus>
<clus scale="  111.275">  2  4  1 -1</clus>
<clus scale="  533.487">  2  3  1 -1</clus>
<clus scale="   49.882">  1  3  2 -1</clus>
</clustering>
</event>
<event>
 6    0  0.1622933E+002  0.7944565E+02  0.7546771E-02  0.1330632E+00
         21   -1    0    0  504  502  0.00000000000E+00  0.00000000000E+00  0.15135740725E+03  0.15135740725E+03  0.00000000000E+00 0.  1.
          2   -1    0    0  505    0 -0.00000000000E+00 -0.00000000000E+00 -0.13446464173E+04  0.13446464173E+04  0.00000000000E+00 0. -1.
         21    1    1    2  503  502  0.58993292994E+02  0.18695796779E+02 -0.47149689229E+03  0.47554080885E+03  0.00000000000E+00 0. -1.
         21    1    1    2  504  501  0.77491867085E+02  0.11652464569E+02  0.12879994864E+03  0.15076536793E+03  0.00000000000E+00 0.  1.
         21    1    1    2  505  503 -0.26219344260E+01  0.30092226590E+02 -0.22928082192E+03  0.23126199848E+03  0.00000000000E+00 0. -1.
          2    1    1    2  501    0 -0.13386322565E+03 -0.60440487938E+02 -0.62131124453E+03  0.63843564934E+03  0.00000000000E+00 0. -1.
<scales pt_clust_3="65.88741" pt_clust_4="14000.00000" pt_clust_5="30.20624" pt_clust_6="79.44565"></scales>
<clustering>
<clus scale="   30.206">  2  5  1 -1</clus>
<clus scale="   65.887">  2  3  1 -1</clus>
<clus scale="   79.446">  2  6  1 -1</clus>
<clus scale="   79.446">  1  3  2 -1</clus>
</clustering>
</event>
<event>
 6    0  0.1622933E+002  0.1806302E+03  0.7546771E-02  0.1167195E+00
          3   -1    0    0  505    0 -0.00000000000E+00  0.00000000000E+00  0.87945825908E+03  0.87945825908E+03  0.00000000000E+00 0.  1.
         21   -1    0    0  504  502  0.00000000000E+00 -0.00000000000E+00 -0.49393880214E+03  0.49393880214E+03  0.00000000000E+00 0.  1.
         21    1    1    2  503  502 -0.81331764942E+00  0.14590826694E+03 -0.10289148369E+03  0.17854002706E+03  0.00000000000E+00 0.  1.
         21    1    1    2  504  501  0.27698083793E+02 -0.41125380152E+02 -0.29838199263E+03  0.30247362574E+03  0.00000000000E+00 0.  1.
         21    1    1    2  505  503 -0.16098394449E+03 -0.18896597380E+03  0.36109174637E+03  0.43819084761E+03  0.00000000000E+00 0.  1.
          3    1    1    2  501    0  0.13409917835E+03  0.84183087009E+02  0.42570118689E+03  0.45419256081E+03  0.00000000000E+00 0.  1.
<scales pt_clust_3="117.60220" pt_clust_4="49.58307" pt_clust_5="180.63023" pt_clust_6="14000.00000"></scales>
<clustering>
<clus scale="   49.583">  2  4  1 -1</clus>
<clus scale="  117.602">  2  3  1 -1</clus>
<clus scale="  180.630">  2  5  1 -1</clus>
<clus scale="   49.583">  2  3  1 -1</clus>
</clustering>
</event>
<event>
 6    0  0.1622933E+002  0.1340083E+03  0.7546771E-02  0.1221627E+00
         21   -1    0    0  505  502  0.00000000000E+00  0.00000000000E+00  0.22080935408E+03  0.22080935408E+03  0.00000000000E+00 0. -1.
          2   -1    0    0  504    0 -0.00000000000E+00 -0.00000000000E+00 -0.16145526451E+04  0.16145526451E+04  0.00000000000E+00 0. -1.
         21    1    1    2  503  502 -0.45933207580E+02  0.12365063404E+03 -0.41285370364E+03  0.43341379704E+03  0.00000000000E+00 0. -1.
         21    1    1    2  504  503  0.11490841884E+03 -0.45159229777E+01 -0.80627078759E+03  0.81443042747E+03  0.00000000000E+00 0.  1.
         21    1    1    2  505  501 -0.13371285066E+02  0.28864384254E+02  0.18866211043E+03  0.19132520967E+03  0.00000000000E+00 0. -1.
          2    1    1    2  501    0 -0.55603926194E+02 -0.14799909532E+03 -0.36328091026E+03  0.39619256502E+03  0.00000000000E+00 0. -1.
<scales pt_clust_3="14000.00000" pt_clust_4="113.14027" pt_clust_5="31.81107" pt_clust_6="134.00826"></scales>
<clustering>
<clus scale="   31.811">  1  5  2 -1</clus>
<clus scale="  113.140">  2  4  1 -1</clus>
<clus scale="  134.008">  1  6  2 -1</clus>
<clus scale="   31.811">  1  3  2 -1</clus>
</clustering>
</event>
<event>
 6    0  0.1622933E+002  0.1572578E+03  0.7546771E-02  0.1191828E+00
          2   -1    0    0  504    0 -0.00000000000E+00  0.00000000000E+00  0.15352714075E+04  0.15352714075E+04  0.00000000000E+00 0. -1.
         21   -1    0    0  503  502  0.00000000000E+00 -0.00000000000E+00 -0.18772395469E+03  0.18772395469E+03  0.00000000000E+00 0.  1.
         21    1    1    2  503  501 -0.64261108165E+02  0.33454357097E+02  0.68685951748E+02  0.99832079007E+02  0.00000000000E+00 0. -1.
         21    1    1    2  504  505  0.54893849174E+02 -0.11949451737E+02  0.13684775917E+03  0.14793050146E+03  0.00000000000E+00 0. -1.
         21    1    1    2  505  502 -0.69828371748E+02  0.62780935553E+02 -0.15058867220E+03  0.17746660409E+03  0.00000000000E+00 0.  1.
          2    1    1    2  501    0  0.79195630739E+02 -0.84285840913E+02  0.12926024141E+04  0.12977661776E+04  0.00000000000E+00 0. -1.
<scales pt_clust_3="69.17433" pt_clust_4="56.17939" pt_clust_5="14000.00000" pt_clust_6="157.25785"></scales>
<clustering>
<clus scale="   56.179">  1  4  2 -1</clus>
<clus scale="   69.174">  2  3  1 -1</clus>
<clus scale="  157.258">  1  6  2 -1</clus>
<clus scale="   69.174">  2  3  1 -1</clus>
</clustering>
</event>
<event>
 6    0  0.1622933E+002  0.1474515E+03  0.7546771E-02  0.1203640E+00
          3   -1    0    0  504    0 -0.00000000000E+00  0.00000000000E+00  0.24480120733E+03  0.24480120733E+03  0.00000000000E+00 0. -1.
         21   -1    0    0  505  502  0.00000000000E+00 -0.00000000000E+00 -0.13528838621E+03  0.13528838621E+03  0.00000000000E+00 0.  1.
         21    1    1    2  503  502  0.26750297772E+02 -0.62793527335E+02 -0.39015441625E+02  0.78618128897E+02  0.00000000000E+00 0. -1.
         21    1    1    2  504  503 -0.41611649877E+02 -0.65705889334E+02 -0.20828920245E+02  0.80514826071E+02  0.00000000000E+00 0.  1.
         21    1    1    2  505  501  0.24954772753E+02  0.18085107714E+02  0.31888398663E+02  0.44347285976E+02  0.00000000000E+00 0. -1.
          3    1    1    2  501    0 -0.10093420647E+02  0.11041430895E+03  0.13746878432E+03  0.17660935260E+03  0.00000000000E+00 0. -1.
<scales pt_clust_3="66.30127" pt_clust_4="66.30127" pt_clust_5="30.77376" pt_clust_6="141.91540"></scales>
<clustering>
<clus scale="   30.774">  5  6 -1 -1</clus>
<clus scale="   66.301">  3  4 -1 -1</clus>
<clus scale="  141.915">  1  5  2 -1</clus>
<clus scale="  147.452">  2  3  1 -1</clus>
</clustering>
</event>
<event>
 6    0  0.1622933E+002  0.1622153E+03  0.7546771E-02  0.1186218E+00
         21   -1    0    0  503  502  0.00000000000E+00  0.00000000000E+00  0.35316226029E+02  0.35316226029E+02  0.00000000000E+00 0.  1.
          1   -1    0    0  504    0 -0.00000000000E+00 -0.00000000000E+00 -0.33501652777E+04  0.33501652777E+04  0.00000000000E+00 0. -1.
         21    1    1    2  503  505  0.47165657333E+02  0.17030712288E+03 -0.22019577629E+03  0.28233897222E+03  0.00000000000E+00 0.  1.
         21    1    1    2  504  502 -0.25824337906E+02 -0.16815518076E+02 -0.11234182678E+03  0.11649181997E+03  0.00000000000E+00 0.  1.
         21    1    1    2  505  501 -0.87408409036E+01 -0.10053994769E+03 -0.22804055393E+04  0.22826375330E+04  0.00000000000E+00 0. -1.
          1    1    1    2  501    0 -0.12600478523E+02 -0.52951657120E+02 -0.70190590929E+03  0.70401317854E+03  0.00000000000E+00 0. -1.
<scales pt_clust_3="156.29472" pt_clust_4="30.81652" pt_clust_5="31.99822" pt_clust_6="31.99822"></scales>
<clustering>
<clus scale="   30.817">  1  4  2 -1</clus>
<clus scale="   31.998">  5  6 -1 -1</clus>
<clus scale="  156.295">  1  3  2 -1</clus>
<clus scale="   30.817">  1  3  2 -1</clus>
</clustering>
</event>
<event>
 6    0  0.1622933E+002  0.1441763E+03  0.7546771E-02  0.1207817E+00
         21   -1    0    0  503  502  0.00000000000E+00  0.00000000000E+00  0.85112530464E+03  0.85112530464E+03  0.00000000000E+00 0. -1.
         -3   -1    0    0    0  501 -0.00000000000E+00 -0.00000000000E+00 -0.19241949471E+03  0.19241949471E+03  0.00000000000E+00 0. -1.
         21    1    1    2  503  501 -0.37776012446E+02  0.22471657063E+02  0.67141423784E+03  0.67285145557E+03  0.00000000000E+00 0. -1.
         21    1    1    2  504  505  0.35781155103E+02  0.16221443847E+02 -0.42024069139E+02  0.57527807954E+02  0.00000000000E+00 0.  1.
         21    1    1    2  505  502 -0.10361934664E+02 -0.14103005601E+03  0.11250450764E+03  0.18070448425E+03  0.00000000000E+00 0. -1.
         -3    1    1    2    0  504  0.12356792007E+02  0.10233695510E+03 -0.83188866411E+02  0.13246105157E+03  0.00000000000E+00 0. -1.
<scales pt_clust_3="43.95455" pt_clust_4="39.25964" pt_clust_5="129.39351" pt_clust_6="39.25964"></scales>
<clustering>
<clus scale="   39.260">  4  6 -1 -1</clus>
<clus scale="   43.955">  1  3  2 -1</clus>
<clus scale="  129.394">  1  5  2 -1</clus>
<clus scale="   43.955">  1  3  2 -1</clus>
</clustering>
</event>
<event>
 6    0  0.1622933E+002  0.1271394E+03  0.7546771E-02  0.1231763E+00
         21   -1    0    0  505  502  0.00000000000E+00  0.00000000000E+00  0.27630220776E+03  0.27630220776E+03  0.00000000000E+00 0.  1.
          2   -1    0    0  503    0 -0.00000000000E+00 -0.00000000000E+00 -0.12825235940E+04  0.12825235940E+04  0.00000000000E+00 0.  1.
         21    1    1    2  503  504 -0.78523502140E+02  0.55654647228E+02 -0.10335277351E+03  0.14122739089E+03  0.00000000000E+00 0. -1.
         21    1    1    2  504  502  0.12606601567E+03 -0.15920807341E+02  0.23149773454E+03  0.26407823369E+03  0.00000000000E+00 0.  1.
         21    1    1    2  505  501  0.84735340466E+01 -0.35571926877E+02 -0.28849928174E+02  0.46577689043E+02  0.00000000000E+00 0. -1.
          2    1    1    2  501    0 -0.56016047573E+02 -0.41619130101E+01 -0.11055164191E+04  0.11069424882E+04  0.00000000000E+00 0.  1.
<scales pt_clust_3="127.13945" pt_clust_4="14000.00000" pt_clust_5="36.56724" pt_clust_6="56.15503"></scales>
<clustering>
<clus scale="   36.567">  1  5  2 -1</clus>
<clus scale="   56.155">  2  6  1 -1</clus>
<clus scale="  127.139">  2  3  1 -1</clus>
<clus scale="   36.567">  1  3  2 -1</clus>
</clustering>
</event>
<event>
 6    0  0.1622933E+002  0.6116907E+02  0.7546771E-02  0.1392990E+00
         21   -1    0    0  501  502  0.00000000000E+00  0.00000000000E+00  0.32481741076E+02  0.32481741076E+02  0.00000000000E+00 0.  1.
          2   -1    0    0  505    0 -0.00000000000E+00 -0.00000000000E+00 -0.34594323220E+04  0.34594323220E+04  0.00000000000E+00 0.  1.
         21    1    1    2  503  502 -0.22834894415E+02 -0.56235847714E+02 -0.19977242244E+01  0.60728032021E+02  0.00000000000E+00 0.  1.
         21    1    1    2  504  503  0.21638984455E+02 -0.64605936329E+02 -0.10750729428E+04  0.10772297828E+04  0.00000000000E+00 0. -1.
         21    1    1    2  505  504 -0.18147741619E+02  0.29370498130E+02 -0.30646173709E+03  0.30840032909E+03  0.00000000000E+00 0. -1.
          2    1    1    2  501    0  0.19343651579E+02  0.91471285913E+02 -0.20434181768E+04  0.20455559192E+04  0.00000000000E+00 0.  1.
<scales pt_clust_3="61.16907" pt_clust_4="56.72106" pt_clust_5="34.52487" pt_clust_6="14000.00000"></scales>
<clustering>
<clus scale="   34.525">  2  5  1 -1</clus>
<clus scale="   56.721">  2  4  1 -1</clus>
<clus scale="   61.169">  1  3  2 -1</clus>
<clus scale="   61.169">  1  3  2 -1</clus>
</clustering>
</event>
<event>
 6    0  0.1622933E+002  0.1672062E+03  0.7546771E-02  0.1180793E+00
         21   -1    0    0  504  502  0.00000000000E+00  0.00000000000E+00  0.62664338740E+03  0.62664338740E+03  0.00000000000E+00 0. -1.
          2   -1    0    0  505    0 -0.00000000000E+00 -0.00000000000E+00 -0.12023715893E+03  0.12023715893E+03  0.00000000000E+00 0. -1.
         21    1    1    2  503  501  0.68146473774E+02  0.11232878939E+03  0.23312911394E+02  0.13343609201E+03  0.00000000000E+00 0. -1.
         21    1    1    2  504  503 -0.57214351829E+02 -0.70572105970E+02  0.36965977512E+03  0.38066028627E+03  0.00000000000E+00 0. -1.
         21    1    1    2  505  502 -0.20997848885E+02 -0.12072532590E+03  0.56643702882E+02  0.13499638161E+03  0.00000000000E+00 0. -1.
          2    1    1    2  501    0  0.10065726940E+02  0.78968642481E+02  0.56789839071E+02  0.97787786435E+02  0.00000000000E+00 0. -1.
<scales pt_clust_3="51.25777" pt_clust_4="90.85100" pt_clust_5="153.69362" pt_clust_6="51.25777"></scales>
<clustering>
<clus scale="   51.258">  3  6 -1 -1</clus>
<clus scale="   90.851">  1  4  2 -1</clus>
<clus scale="  153.694">  2  5  1 -1</clus>
<clus scale="   90.851">  1  3  2 -1</clus>
</clustering>
</event>
<event>
 6    0  0.1622933E+002  0.1375826E+03  0.7546771E-02  0.1216619E+00
         21   -1    0    0  505  502  0.00000000000E+00  0.00000000000E+00  0.11890641178E+04  0.11890641178E+04  0.00000000000E+00 0. -1.
          4   -1    0    0  504    0 -0.00000000000E+00 -0.00000000000E+00 -0.31265376656E+03  0.31265376656E+03  0.00000000000E+00 0. -1.
         21    1    1    2  503  502 -0.43389054783E+02 -0.16009146425E+01  0.25555227502E+02  0.50380975133E+02  0.00000000000E+00 0. -1.
         21    1    1    2  504  503 -0.31605941470E+02  0.13462095440E+02 -0.97189155092E+01  0.35701832846E+02  0.00000000000E+00 0.  1.
         21    1    1    2  505  501 -0.98642073425E+02 -0.94898070983E+02  0.10999745314E+04  0.11084583313E+04  0.00000000000E+00 0. -1.
          4    1    1    2  501    0  0.17363706968E+03  0.83036890186E+02 -0.23940049212E+03  0.30717674510E+03  0.00000000000E+00 0. -1.
<scales pt_clust_3="84.61360" pt_clust_4="33.21703" pt_clust_5="137.58263" pt_clust_6="14000.00000"></scales>
<clustering>
<clus scale="   33.217">  3  4 -1 -1</clus>
<clus scale="   84.614">  2  3  1 -1</clus>
<clus scale="  137.583">  1  5  2 -1</clus>
<clus scale="  137.583">  1  3  2 -1</clus>
</clustering>
</event>
<event>
 6    0  0.1622933E+002  0.7927176E+02  0.7546771E-02  0.1331131E+00
         -2   -1    0    0    0  501 -0.00000000000E+00  0.00000000000E+00  0.96234722285E+03  0.96234722285E+03  0.00000000000E+00 0.  1.
         21   -1    0    0  505  502  0.00000000000E+00 -0.00000000000E+00 -0.26069321377E+02  0.26069321377E+02  0.00000000000E+00 0.  1.
         21    1    1    2  503  501 -0.23587438595E+02 -0.46996651198E+02  0.54236000546E+03  0.54490313635E+03  0.00000000000E+00 0.  1.
         21    1    1    2  504  503  0.81434759024E+02  0.51123472570E+02  0.16428318988E+03  0.19035281952E+03  0.00000000000E+00 0.  1.
         21    1    1    2  505  504 -0.47292328035E+02 -0.42451287446E+02  0.17001202655E+03  0.18150141947E+03  0.00000000000E+00 0.  1.
         -2    1    1    2    0  502 -0.10554992394E+02  0.38324466074E+02  0.59622679590E+02  0.71659168888E+02  0.00000000000E+00 0.  1.
<scales pt_clust_3="50.73996" pt_clust_4="79.27176" pt_clust_5="14000.00000" pt_clust_6="39.75138"></scales>
<clustering>
<clus scale="   39.751">  2  6  1 -1</clus>
<clus scale="   50.740">  1  3  2 -1</clus>
<clus scale="   79.272">  1  4  2 -1</clus>
<clus scale="   39.751">  2  3  1 -1</clus>
</clustering>
</event>
<event>
 6    0  0.1622933E+002  0.1846315E+03  0.7546771E-02  0.1163394E+00
          2   -1    0    0  504    0 -0.00000000000E+00  0.00000000000E+00  0.63554031819E+03  0.63554031819E+03  0.00000000000E+00 0. -1.
         21   -1    0    0  505  502  0.00000000000E+00 -0.00000000000E+00 -0.18093265274E+03  0.18093265274E+03  0.00000000000E+00 0.  1.
         21    1    1    2  503  501 -0.97301607259E+02 -0.14721240959E+03  0.13908039704E+03  0.22468300592E+03  0.00000000000E+00 0. -1.
         21    1    1    2  504  502  0.38155562892E+02  0.20470900129E+03 -0.72660623545E+01  0.20836126764E+03  0.00000000000E+00 0.  1.
         21    1    1    2  505  503  0.19103323019E+02 -0.34061363653E+02 -0.15464950641E+02  0.42003311091E+02  0.00000000000E+00 0.  1.
          2    1    1    2  501    0  0.40042721348E+02 -0.23435228049E+02  0.33825828141E+03  0.34142538627E+03  0.00000000000E+00 0. -1.
<scales pt_clust_3="184.63146" pt_clust_4="14000.00000" pt_clust_5="39.05270" pt_clust_6="46.74744"></scales>
<clustering>
<clus scale="   39.053">  2  5  1 -1</clus>
<clus scale="   46.747">  1  6  2 -1</clus>
<clus scale="  184.631">  1  3  2 -1</clus>
<clus scale="   39.053">  2  3  1 -1</clus>
</clustering>
</event>
<event>
 6    0  0.1622933E+002  0.8006766E+02  0.7546771E-02  0.1328860E+00
          1   -1    0    0  504    0 -0.00000000000E+00  0.00000000000E+00  0.71983046091E+02  0.71983046091E+02  0.00000000000E+00 0. -1.
         21   -1    0    0  503  502  0.00000000000E+00 -0.00000000000E+00 -0.87123512723E+03  0.87123512723E+03  0.00000000000E+00 0. -1.
         21    1    1    2  503  501 -0.75597896309E+02  0.51191271403E+01 -0.65938559507E+03  0.66372480019E+03  0.00000000000E+00 0. -1.
         21    1    1    2  504  505 -0.91672968110E+01  0.36542469320E+02  0.10927919753E+02  0.39227679322E+02  0.00000000000E+00 0.  1.
         21    1    1    2  505  502 -0.37486624256E+02 -0.69333009660E+01  0.58304180779E+01  0.38565676908E+02  0.00000000000E+00 0. -1.
          1    1    1    2  501    0  0.12225181738E+03 -0.34728295495E+02 -0.15662482390E+03  0.20170001691E+03  0.00000000000E+00 0. -1.
<scales pt_clust_3="80.06766" pt_clust_4="37.67481" pt_clust_5="43.08918" pt_clust_6="14000.00000"></scales>
<clustering>
<clus scale="   37.675">  1  4  2 -1</clus>
<clus scale="   43.089">  1  5  2 -1</clus>
<clus scale="   80.068">  2  3  1 -1</clus>
<clus scale="   80.068">  2  3  1 -1</clus>
</clustering>
</event>
<event>
 6    0  0.1622933E+002  0.1576231E+03  0.7546771E-02  0.1191407E+00
          2   -1    0    0  503    0 -0.00000000000E+00  0.00000000000E+00  0.52563921125E+03  0.52563921125E+03  0.00000000000E+00 0.  1.
         21   -1    0    0  501  502  0.00000000000E+00 -0.00000000000E+00 -0.13381797520E+03  0.13381797520E+03  0.00000000000E+00 0.  1.
         21    1    1    2  503  504  0.28693288398E+02  0.11528843560E+02  0.40545468005E+02  0.50991705293E+02  0.00000000000E+00 0.  1.
         21    1    1    2  504  505 -0.22970758577E+02  0.35976274543E+02  0.63808993776E+02  0.76769367369E+02  0.00000000000E+00 0. -1.
         21    1    1    2  505  502 -0.14502747446E+03  0.56687210701E+02 -0.40108512106E+02  0.16079521432E+03  0.00000000000E+00 0.  1.
          2    1    1    2  501    0  0.13930494463E+03 -0.10419232880E+03  0.32757528638E+03  0.37090089947E+03  0.00000000000E+00 0.  1.
<scales pt_clust_3="30.92279" pt_clust_4="42.08187" pt_clust_5="14000.00000" pt_clust_6="157.62314"></scales>
<clustering>
<clus scale="   30.923">  1  3  2 -1</clus>
<clus scale="   42.082">  1  4  2 -1</clus>
<clus scale="  157.623">  1  6  2 -1</clus>
<clus scale="  157.623">  2  3  1 -1</clus>
</clustering>
</event>
<event>
 6    0  0.1622933E+002  0.1484749E+03  0.7546771E-02  0.1202360E+00
         21   -1    0    0  505  502  0.00000000000E+00  0.00000000000E+00  0.87755033666E+02  0.87755033666E+02  0.00000000000E+00 0. -1.
          2   -1    0    0  503    0 -0.00000000000E+00 -0.00000000000E+00 -0.42899499499E+03  0.42899499499E+03  0.00000000000E+00 0. -1.
         21    1    1    2  503  502 -0.99240478963E+01  0.34403079850E+02  0.20860110430E+02  0.41439146190E+02  0.00000000000E+00 0. -1.
         21    1    1    2  504  501 -0.80976400944E+02  0.22249192746E+02 -0.17676802631E+03  0.19570165869E+03  0.00000000000E+00 0. -1.
         21    1    1    2  505  504  0.12867006086E+03 -0.91181937854E+02 -0.13150323740E+03  0.20533687394E+03  0.00000000000E+00 0. -1.
          2    1    1    2  501    0 -0.37769612020E+02  0.34529665258E+02 -0.53828808044E+02  0.74272349838E+02  0.00000000000E+00 0. -1.
<scales pt_clust_3="35.80585" pt_clust_4="39.41283" pt_clust_5="140.20763" pt_clust_6="39.41283"></scales>
<clustering>
<clus scale="   35.806">  1  3  2 -1</clus>
<clus scale="   39.413">  4  6 -1 -1</clus>
<clus scale="  140.208">  1  5  2 -1</clus>
<clus scale="   35.806">  1  3  2 -1</clus>
</clustering>
</event>
<event>
 6    0  0.1622933E+002  0.8490360E+02  0.7546771E-02  0.1315685E+00
          1   -1    0    0  505    0 -0.00000000000E+00  0.00000000000E+00  0.85179464338E+03  0.85179464338E+03  0.00000000000E+00 0.  1.
         21   -1    0    0  501  502  0.00000000000E+00 -0.00000000000E+00 -0.24230586735E+03  0.24230586735E+03  0.00000000000E+00 0.  1.
         21    1    1    2  503  502 -0.36690136983E+02  0.25893216048E+01 -0.21186990494E+03  0.21503889731E+03  0.00000000000E+00 0.  1.
         21    1    1    2  504  503 -0.28928472499E+02 -0.62891037416E+02  0.37415553393E+02  0.78689660974E+02  0.00000000000E+00 0.  1.
         21    1    1    2  505  504  0.18290443464E+02 -0.39461183229E+02  0.12769379516E+03  0.13489785257E+03  0.00000000000E+00 0.  1.
          1    1    1    2  501    0  0.47328166018E+02  0.99762899040E+02  0.65624933240E+03  0.66547409988E+03  0.00000000000E+00 0.  1.
<scales pt_clust_3="36.78139" pt_clust_4="14000.00000" pt_clust_5="41.46968" pt_clust_6="84.90360"></scales>
<clustering>
<clus scale="   36.781">  2  3  1 -1</clus>
<clus scale="   41.470">  1  5  2 -1</clus>
<clus scale="   84.904">  1  6  2 -1</clus>
<clus scale="   36.781">  2  3  1 -1</clus>
</clustering>
</event>
<event>
 6    0  0.1622933E+002  0.7728442E+02  0.7546771E-02  0.1336939E+00
         21   -1    0    0  505  502  0.00000000000E+00  0.00000000000E+00  0.13372416054E+02  0.13372416054E+02  0.00000000000E+00 0. -1.
          1   -1    0    0  503    0 -0.00000000000E+00 -0.00000000000E+00 -0.16173962204E+04  0.16173962204E+04  0.00000000000E+00 0.  1.
         21    1    1    2  503  504 -0.88861871727E+02  0.68351817922E+02 -0.65157864453E+03  0.66115288192E+03  0.00000000000E+00 0. -1.
         21    1    1    2  504  502 -0.13457946591E+02 -0.42028207231E+02 -0.11991353747E+03  0.12777614409E+03  0.00000000000E+00 0. -1.
         21    1    1    2  505  501  0.32879264650E+02 -0.23551222206E+02 -0.13701010523E+03  0.14285473407E+03  0.00000000000E+00 0.  1.
          1    1    1    2  501    0  0.69440553668E+02 -0.27723884848E+01 -0.69552151712E+03  0.69898487638E+03  0.00000000000E+00 0.  1.
<scales pt_clust_3="77.28442" pt_clust_4="50.89977" pt_clust_5="40.44386" pt_clust_6="14000.00000"></scales>
<clustering>
<clus scale="   40.444">  1  5  2 -1</clus>
<clus scale="   50.900">  1  4  2 -1</clus>
<clus scale="   77.284">  1  3  2 -1</clus>
<clus scale="   40.444">  1  3  2 -1</clus>
</clustering>
</event>
<event>
 6    0  0.1622933E+002  0.3568033E+03  0.7546771E-02  0.1059857E+00
         21   -1    0    0  501  502  0.00000000000E+00  0.00000000000E+00  0.78812028073E+03  0.78812028073E+03  0.00000000000E+00 0. -1.
          2   -1    0    0  504    0 -0.00000000000E+00 -0.00000000000E+00 -0.21572305278E+04  0.21572305278E+04  0.00000000000E+00 0.  1.
         21    1    1    2  503  505  0.41661929367E+02 -0.48342120477E+02 -0.62326857827E+02  0.89203778941E+02  0.00000000000E+00 0. -1.
         21    1    1    2  504  503  0.24225021474E+03 -0.10339025932E+03 -0.34279565303E+03  0.43230032616E+03  0.00000000000E+00 0. -1.
         21    1    1    2  505  502  0.47047508985E+01 -0.65835680045E+02  0.70909931913E+03  0.71216452863E+03  0.00000000000E+00 0. -1.
          2    1    1    2  501    0 -0.28861689501E+03  0.21756805984E+03 -0.16730870554E+04  0.17116821748E+04  0.00000000000E+00 0.  1.
<scales pt_clust_3="31.95135" pt_clust_4="31.95135" pt_clust_5="66.00357" pt_clust_6="350.84914"></scales>
<clustering>
<clus scale="   31.951">  3  4 -1 -1</clus>
<clus scale="   66.004">  1  5  2 -1</clus>
<clus scale="  350.849">  2  6  1 -1</clus>
<clus scale="   66.004">  1  3  2 -1</clus>
</clustering>
</event>
<event>
 6    0  0.1622933E+002  0.1301819E+03  0.7546771E-02  0.1227186E+00
          2   -1    0    0  505    0 -0.00000000000E+00  0.00000000000E+00  0.22415881697E+04  0.22415881697E+04  0.00000000000E+00 0.  1.
         21   -1    0    0  504  502  0.00000000000E+00 -0.00000000000E+00 -0.23297539991E+02  0.23297539991E+02  0.00000000000E+00 0.  1.
         21    1    1    2  503  501  0.16521264099E+02 -0.12165305246E+03  0.88493581166E+03  0.89341133197E+03  0.00000000000E+00 0.  1.
         21    1    1    2  504  503  0.82043749806E+02  0.13219046361E+03  0.10295174934E+04  0.10412068790E+04  0.00000000000E+00 0.  1.
         21    1    1    2  505  502 -0.60346017133E+02  0.24123383845E+01  0.67768817651E+02  0.90774852278E+02  0.00000000000E+00 0.  1.
          2    1    1    2  501    0 -0.38218996772E+02 -0.12949749536E+02  0.23606850695E+03  0.23949264645E+03  0.00000000000E+00 0.  1.
<scales pt_clust_3="130.18189" pt_clust_4="14000.00000" pt_clust_5="61.88716" pt_clust_6="40.35329"></scales>
<clustering>
<clus scale="   40.353">  1  6  2 -1</clus>
<clus scale="   61.887">  2  5  1 -1</clus>
<clus scale="  130.182">  1  3  2 -1</clus>
<clus scale="   61.887">  2  3  1 -1</clus>
</clustering>
</event>
<event>
 6    0  0.1622933E+002  0.2563779E+03  0.7546771E-02  0.1109339E+00
         21   -1    0    0  503  502  0.00000000000E+00  0.00000000000E+00  0.55202030455E+02  0.55202030455E+02  0.00000000000E+00 0.  1.
          2   -1    0    0  505    0 -0.00000000000E+00 -0.00000000000E+00 -0.20166690513E+04  0.20166690513E+04  0.00000000000E+00 0.  1.
         21    1    1    2  503  501  0.77475672648E+02 -0.70624475058E+02 -0.23590047808E+03  0.25814595075E+03  0.00000000000E+00 0. -1.
         21    1    1    2  504  502 -0.26361299696E+03  0.11907231942E+03 -0.63063131873E+03  0.69380536866E+03  0.00000000000E+00 0.  1.
         21    1    1    2  505  504  0.75045358041E+02 -0.36679420710E+01 -0.76919454017E+03  0.77285541998E+03  0.00000000000E+00 0.  1.
          2    1    1    2  501    0  0.11109196627E+03 -0.44779902289E+02 -0.32574068387E+03  0.34706434237E+03  0.00000000000E+00 0.  1.
<scales pt_clust_3="41.44769" pt_clust_4="252.52102" pt_clust_5="75.13494" pt_clust_6="41.44769"></scales>
<clustering>
<clus scale="   41.448">  3  6 -1 -1</clus>
<clus scale="   75.135">  2  5  1 -1</clus>
<clus scale="  252.521">  2  4  1 -1</clus>
<clus scale="  256.378">  1  3  2 -1</clus>
</clustering>
</event>
<event>
 6    0  0.1622933E+002  0.1127527E+03  0.7546771E-02  0.1255556E+00
         -1   -1    0    0    0  501 -0.00000000000E+00  0.00000000000E+00  0.12904540362E+03  0.12904540362E+03  0.00000000000E+00 0. -1.
         21   -1    0    0  503  502  0.00000000000E+00 -0.00000000000E+00 -0.44340964244E+03  0.44340964244E+03  0.00000000000E+00 0. -1.
         21    1    1    2  503  504 -0.40122082042E+02 -0.14962376417E+02 -0.28530216240E+03  0.28849779557E+03  0.00000000000E+00 0. -1.
         21    1    1    2  504  501 -0.69358543378E+02 -0.64824559269E+02 -0.14748063545E+02  0.96074639745E+02  0.00000000000E+00 0. -1.
         21    1    1    2  505  502 -0.17424425537E+02  0.31525780400E+02 -0.35375528024E+02  0.50486764782E+02  0.00000000000E+00 0. -1.
         -1    1    1    2    0  505  0.12690505096E+03  0.48261155285E+02  0.21061515151E+02  0.13739584596E+03  0.00000000000E+00 0. -1.
<scales pt_clust_3="53.15420" pt_clust_4="14000.00000" pt_clust_5="36.02063" pt_clust_6="112.75272"></scales>
<clustering>
<clus scale="   36.021">  2  5  1 -1</clus>
<clus scale="   53.154">  2  3  1 -1</clus>
<clus scale="  112.753">  2  6  1 -1</clus>
<clus scale="   36.021">  2  3  1 -1</clus>
</clustering>
</event>
<event>
 6    0  0.1622933E+002  0.6973117E+02  0.7546771E-02  0.1361010E+00
          1   -1    0    0  503    0 -0.00000000000E+00  0.00000000000E+00  0.11849752013E+04  0.11849752013E+04  0.00000000000E+00 0.  1.
         21   -1    0    0  501  502  0.00000000000E+00 -0.00000000000E+00 -0.12354293834E+03  0.12354293834E+03  0.00000000000E+00 0.  1.
         21    1    1    2  503  505  0.26118927634E+02  0.18042283879E+02  0.51642481877E+03  0.51739957076E+03  0.00000000000E+00 0.  1.
         21    1    1    2  504  502  0.68304480436E+02  0.11525061784E+02 -0.10133542528E+03  0.12274851328E+03  0.00000000000E+00 0.  1.
         21    1    1    2  505  504 -0.70979554508E+02  0.49606045956E+02  0.29447163953E+03  0.30694039070E+03  0.00000000000E+00 0.  1.
          1    1    1    2  501    0 -0.23443853562E+02 -0.79173391620E+02  0.35187122991E+03  0.36142966487E+03  0.00000000000E+00 0.  1.
<scales pt_clust_3="31.74464" pt_clust_4="69.73117" pt_clust_5="14000.00000" pt_clust_6="67.23025"></scales>
<clustering>
<clus scale="   31.745">  1  3  2 -1</clus>
<clus scale="   69.731">  2  4  1 -1</clus>
<clus scale="   67.230">  1  6  2 -1</clus>
<clus scale="   69.731">  2  3  1 -1</clus>
</clustering>
</event>
<event>
 6    0  0.1622933E+002  0.8068050E+02  0.7546771E-02  0.1327131E+00
          2   -1    0    0  503    0 -0.00000000000E+00  0.00000000000E+00  0.93044026583E+03  0.93044026583E+03  0.00000000000E+00 0. -1.
         21   -1    0    0  505  502  0.00000000000E+00 -0.00000000000E+00 -0.26860516976E+03  0.26860516976E+03  0.00000000000E+00 0. -1.
         21    1    1    2  503  502  0.33838506249E+02 -0.10698814308E+02  0.42961693030E+02  0.55724466805E+02  0.00000000000E+00 0.  1.
         21    1    1    2  504  501 -0.79370449607E+02  0.94996277953E+02  0.52159502576E+03  0.53608332560E+03  0.00000000000E+00 0. -1.
         21    1    1    2  505  504  0.21873683035E+02 -0.39606561224E+02 -0.25113281494E+03  0.25517607341E+03  0.00000000000E+00 0. -1.
          2    1    1    2  501    0  0.23658260324E+02 -0.44690902420E+02  0.34841119222E+03  0.35206156977E+03  0.00000000000E+00 0. -1.
<scales pt_clust_3="35.48956" pt_clust_4="80.68050" pt_clust_5="45.30436" pt_clust_6="14000.00000"></scales>
<clustering>
<clus scale="   35.490">  1  3  2 -1</clus>
<clus scale="   45.304">  2  5  1 -1</clus>
<clus scale="   80.680">  2  4  1 -1</clus>
<clus scale="   45.304">  2  3  1 -1</clus>
</clustering>
</event>
<event>
 6    0  0.1622933E+002  0.2342221E+03  0.7546771E-02  0.1123703E+00
          2   -1    0    0  502    0 -0.00000000000E+00  0.00000000000E+00  0.66815374574E+03  0.66815374574E+03  0.00000000000E+00 0.  1.
         21   -1    0    0  503  502  0.00000000000E+00 -0.00000000000E+00 -0.43338463680E+03  0.43338463680E+03  0.00000000000E+00 0. -1.
         21    1    1    2  503  505 -0.32388149982E+02  0.20569157910E+02 -0.30361644904E+03  0.30603109424E+03  0.00000000000E+00 0. -1.
         21    1    1    2  504  501 -0.60271778821E+02 -0.36751873437E+02  0.11350466943E+03  0.13366636640E+03  0.00000000000E+00 0.  1.
         21    1    1    2  505  504  0.24322520170E+03 -0.16552427610E+02  0.39718993270E+02  0.24700218628E+03  0.00000000000E+00 0. -1.
          2    1    1    2  501    0 -0.15056527289E+03  0.32735143136E+02  0.38516189528E+03  0.41483873562E+03  0.00000000000E+00 0.  1.
<scales pt_clust_3="38.36773" pt_clust_4="59.25903" pt_clust_5="217.11493" pt_clust_6="59.25903"></scales>
<clustering>
<clus scale="   38.368">  2  3  1 -1</clus>
<clus scale="   59.259">  4  6 -1 -1</clus>
<clus scale="  217.115">  2  5  1 -1</clus>
<clus scale="   38.368">  2  3  1 -1</clus>
</clustering>
</event>
<event>
 6    0  0.1622933E+002  0.1359043E+03  0.7546771E-02  0.1218949E+00
          2   -1    0    0  504    0 -0.00000000000E+00  0.00000000000E+00  0.80543366069E+03  0.80543366069E+03  0.00000000000E+00 0. -1.
         21   -1    0    0  501  502  0.00000000000E+00 -0.00000000000E+00 -0.15124135187E+03  0.15124135187E+03  0.00000000000E+00 0.  1.
         21    1    1    2  503  502  0.45642131786E+02  0.13131254736E+03 -0.10528222596E+03  0.17438617030E+03  0.00000000000E+00 0.  1.
         21    1    1    2  504  505 -0.30675424779E+02  0.27091795276E+01  0.19897863945E+03  0.20134751127E+03  0.00000000000E+00 0.  1.
         21    1    1    2  505  503  0.11510308664E+01 -0.42805414904E+02  0.72249202722E+02  0.83985568469E+02  0.00000000000E+00 0. -1.
          2    1    1    2  501    0 -0.16117737873E+02 -0.91216311985E+02  0.48824669261E+03  0.49695576251E+03  0.00000000000E+00 0. -1.
<scales pt_clust_3="14000.00000" pt_clust_4="30.79483" pt_clust_5="42.54852" pt_clust_6="135.90434"></scales>
<clustering>
<clus scale="   30.795">  1  4  2 -1</clus>
<clus scale="   42.549">  1  5  2 -1</clus>
<clus scale="  135.904">  1  6  2 -1</clus>
<clus scale="  135.904">  2  3  1 -1</clus>
</clustering>
</event>
<event>
 6    0  0.1622933E+002  0.8869277E+02  0.7546771E-02  0.1306049E+00
          4   -1    0    0  504    0 -0.00000000000E+00  0.00000000000E+00  0.68214269404E+03  0.68214269404E+03  0.00000000000E+00 0. -1.
         21   -1    0    0  501  502  0.00000000000E+00 -0.00000000000E+00 -0.86900396644E+03  0.86900396644E+03  0.00000000000E+00 0.  1.
         21    1    1    2  503  502  0.32861604508E+02  0.23189112650E+02 -0.83366118068E+03  0.83463080710E+03  0.00000000000E+00 0.  1.
         21    1    1    2  504  505  0.29012135455E+01 -0.46723150269E+02  0.41911236626E+03  0.42171868036E+03  0.00000000000E+00 0.  1.
         21    1    1    2  505  503  0.93175862876E+00  0.10040742002E+03  0.10350696157E+03  0.14420890840E+03  0.00000000000E+00 0. -1.
          4    1    1    2  501    0 -0.36694576683E+02 -0.76873382397E+02  0.12418058045E+03  0.15058826461E+03  0.00000000000E+00 0. -1.
<scales pt_clust_3="40.21965" pt_clust_4="46.04181" pt_clust_5="14000.00000" pt_clust_6="88.69277"></scales>
<clustering>
<clus scale="   40.220">  2  3  1 -1</clus>
<clus scale="   46.042">  1  4  2 -1</clus>
<clus scale="   88.693">  2  6  1 -1</clus>
<clus scale="   40.220">  2  3  1 -1</clus>
</clustering>
</event>
<event>
 6    0  0.1622933E+002  0.8838402E+02  0.7546771E-02  0.1306813E+00
         21   -1    0    0  505  502  0.00000000000E+00  0.00000000000E+00  0.98785740119E+02  0.98785740119E+02  0.00000000000E+00 0. -1.
          1   -1    0    0  504    0 -0.00000000000E+00 -0.00000000000E+00 -0.46909822936E+03  0.46909822936E+03  0.00000000000E+00 0. -1.
         21    1    1    2  503  502 -0.32259893113E+02 -0.82432758680E+02  0.40012047888E+02  0.97143318780E+02  0.00000000000E+00 0. -1.
         21    1    1    2  504  503 -0.29482736390E+02 -0.39598498125E+02 -0.42596548801E+02  0.65205358434E+02  0.00000000000E+00 0. -1.
         21    1    1    2  505  501 -0.37582324196E+01  0.94257725679E+02 -0.15743318852E+03  0.18353161038E+03  0.00000000000E+00 0. -1.
          1    1    1    2  501    0  0.65500861923E+02  0.27773531126E+02 -0.21029479981E+03  0.22200368189E+03  0.00000000000E+00 0. -1.
<scales pt_clust_3="88.38402" pt_clust_4="49.36874" pt_clust_5="14000.00000" pt_clust_6="50.66067"></scales>
<clustering>
<clus scale="   49.369">  2  4  1 -1</clus>
<clus scale="   50.661">  2  6  1 -1</clus>
<clus scale="   88.384">  1  3  2 -1</clus>
<clus scale="   88.384">  1  3  2 -1</clus>
</clustering>
</event>
<event>
 6    0  0.1622933E+002  0.6756655E+02  0.7546771E-02  0.1368569E+00
         21   -1    0    0  504  502  0.00000000000E+00  0.00000000000E+00  0.17131984847E+03  0.17131984847E+03  0.00000000000E+00 0. -1.
          2   -1    0    0  505    0 -0.00000000000E+00 -0.00000000000E+00 -0.29089589838E+04  0.29089589838E+04  0.00000000000E+00 0.  1.
         21    1    1    2  503  502  0.23972103227E+02  0.41758767743E+02 -0.22765373484E+03  0.23269009305E+03  0.00000000000E+00 0. -1.
         21    1    1    2  504  501 -0.67218856838E+02 -0.69202886252E+01  0.15970381618E+03  0.17341157404E+03  0.00000000000E+00 0. -1.
         21    1    1    2  505  503 -0.29553938488E+02  0.36916387098E+02 -0.55180382290E+03  0.55382642939E+03  0.00000000000E+00 0. -1.
          2    1    1    2  501    0  0.72800692099E+02 -0.71754866216E+02 -0.21178853937E+04  0.21203507358E+04  0.00000000000E+00 0.  1.
<scales pt_clust_3="50.02571" pt_clust_4="14000.00000" pt_clust_5="47.28906" pt_clust_6="67.56655"></scales>
<clustering>
<clus scale="   47.289">  2  5  1 -1</clus>
<clus scale="   50.026">  2  3  1 -1</clus>
<clus scale="   67.567">  2  6  1 -1</clus>
<clus scale="   67.567">  1  3  2 -1</clus>
</clustering>
</event>
<event>
 6    0  0.1622933E+002  0.1586162E+03  0.7546771E-02  0.1190268E+00
         21   -1    0    0  504  502  0.00000000000E+00  0.00000000000E+00  0.92356819116E+02  0.92356819116E+02  0.00000000000E+00 0.  1.
          2   -1    0    0  505    0 -0.00000000000E+00 -0.00000000000E+00 -0.19786319994E+04  0.19786319994E+04  0.00000000000E+00 0. -1.
         21    1    1    2  503  502  0.36059709833E+02 -0.30377942729E+02 -0.45687543498E+02  0.65654197951E+02  0.00000000000E+00 0.  1.
         21    1    1    2  504  501  0.13960296292E+03  0.29860803044E+02  0.91558953119E+01  0.14305413393E+03  0.00000000000E+00 0.  1.
         21    1    1    2  505  503 -0.94517036462E+02 -0.51497325889E+02 -0.66835953326E+03  0.67697112971E+03  0.00000000000E+00 0.  1.
          2    1    1    2  501    0 -0.81145636293E+02  0.52014465574E+02 -0.11813839988E+04  0.11853093569E+04  0.00000000000E+00 0. -1.
<scales pt_clust_3="47.15000" pt_clust_4="158.61624" pt_clust_5="14000.00000" pt_clust_6="95.27144"></scales>
<clustering>
<clus scale="   47.150">  1  3  2 -1</clus>
<clus scale="   95.271">  2  6  1 -1</clus>
<clus scale="  158.616">  1  4  2 -1</clus>
<clus scale="   47.150">  1  3  2 -1</clus>
</clustering>
</event>
<event>
 6    0  0.1622933E+002  0.1278629E+03  0.7546771E-02  0.1230662E+00
         21   -1    0    0  501  502  0.00000000000E+00  0.00000000000E+00  0.15738916680E+03  0.15738916680E+03  0.00000000000E+00 0.  1.
          2   -1    0    0  504    0 -0.00000000000E+00 -0.00000000000E+00 -0.25668283265E+04  0.25668283265E+04  0.00000000000E+00 0.  1.
         21    1    1    2  503  502  0.50230359920E+02 -0.11968625168E+03  0.12372467894E+03  0.17932006044E+03  0.00000000000E+00 0.  1.
         21    1    1    2  504  505  0.26704871374E+02  0.22743005173E+02 -0.43639429031E+03  0.43780174857E+03  0.00000000000E+00 0. -1.
         21    1    1    2  505  503 -0.32392514099E+02  0.89673433570E+02 -0.46360844123E+03  0.47331108844E+03  0.00000000000E+00 0.  1.
          2    1    1    2  501    0 -0.44542717195E+02  0.72698129331E+01 -0.16331611071E+04  0.16337845959E+04  0.00000000000E+00 0.  1.
<scales pt_clust_3="14000.00000" pt_clust_4="35.07698" pt_clust_5="127.86286" pt_clust_6="34.49140"></scales>
<clustering>
<clus scale="   35.077">  2  4  1 -1</clus>
<clus scale="   34.491">  2  6  1 -1</clus>
<clus scale="  127.863">  2  5  1 -1</clus>
<clus scale="  127.863">  1  3  2 -1</clus>
</clustering>
</event>
<event>
 6    0  0.1622933E+002  0.1118658E+03  0.7546771E-02  0.1257153E+00
         21   -1    0    0  505  502  0.00000000000E+00  0.00000000000E+00  0.43781493154E+02  0.43781493154E+02  0.00000000000E+00 0. -1.
          1   -1    0    0  503    0 -0.00000000000E+00 -0.00000000000E+00 -0.58963692694E+03  0.58963692694E+03  0.00000000000E+00 0.  1.
         21    1    1    2  503  504  0.71279896131E+02  0.60568299650E+02 -0.16325936594E+03  0.18815675136E+03  0.00000000000E+00 0. -1.
         21    1    1    2  504  502 -0.21722525868E+02  0.45592249421E+02 -0.85556711788E+01  0.51222269050E+02  0.00000000000E+00 0. -1.
         21    1    1    2  505  501  0.36949271442E+00 -0.44860817907E+02 -0.13859210882E+03  0.14567224215E+03  0.00000000000E+00 0.  1.
          1    1    1    2  501    0 -0.49926862978E+02 -0.61299731164E+02 -0.23544828785E+03  0.24836715753E+03  0.00000000000E+00 0.  1.
<scales pt_clust_3="104.30300" pt_clust_4="50.50269" pt_clust_5="30.45803" pt_clust_6="30.45803"></scales>
<clustering>
<clus scale="   30.458">  5  6 -1 -1</clus>
<clus scale="   50.503">  1  4  2 -1</clus>
<clus scale="  104.303">  1  3  2 -1</clus>
<clus scale="   50.503">  1  3  2 -1</clus>
</clustering>
</event>
<event>
 6    0  0.1622933E+002  0.1952673E+03  0.7546771E-02  0.1153795E+00
          1   -1    0    0  503    0 -0.00000000000E+00  0.00000000000E+00  0.26341474378E+04  0.26341474378E+04  0.00000000000E+00 0. -1.
         21   -1    0    0  504  502  0.00000000000E+00 -0.00000000000E+00 -0.67695807669E+02  0.67695807669E+02  0.00000000000E+00 0.  1.
         21    1    1    2  503  505 -0.15055608709E+03  0.66485697329E+02  0.83966201594E+03  0.85563998523E+03  0.00000000000E+00 0. -1.
         21    1    1    2  504  501  0.90341680765E+02 -0.13266042585E+02  0.99533481863E+03  0.99951438626E+03  0.00000000000E+00 0. -1.
         21    1    1    2  505  502 -0.49063482112E+02 -0.13419624587E+02 -0.41121097263E+02  0.65408380511E+02  0.00000000000E+00 0.  1.
          1    1    1    2  501    0  0.10927788843E+03 -0.39800030157E+02  0.77257589284E+03  0.78128049348E+03  0.00000000000E+00 0. -1.
<scales pt_clust_3="187.27300" pt_clust_4="49.00034" pt_clust_5="50.86562" pt_clust_6="49.00034"></scales>
<clustering>
<clus scale="   49.000">  4  6 -1 -1</clus>
<clus scale="   50.866">  2  5  1 -1</clus>
<clus scale="  187.273">  2  3  1 -1</clus>
<clus scale="   50.866">  2  3  1 -1</clus>
</clustering>
</event>
<event>
 6    0  0.1622933E+002  0.8578008E+02  0.7546771E-02  0.1313405E+00
         21   -1    0    0  504  502  0.00000000000E+00  0.00000000000E+00  0.16442097722E+04  0.16442097722E+04  0.00000000000E+00 0.  1.
          1   -1    0    0  503    0 -0.00000000000E+00 -0.00000000000E+00 -0.76546879900E+03  0.76546879900E+03  0.00000000000E+00 0. -1.
         21    1    1    2  503  505  0.24207802068E+02 -0.22300116710E+02  0.55986034178E+00  0.32918480065E+02  0.00000000000E+00 0.  1.
         21    1    1    2  504  501  0.55901543066E+02  0.56447551590E+01  0.16136941732E+04  0.16146720194E+04  0.00000000000E+00 0.  1.
         21    1    1    2  505  502 -0.11825863737E+03  0.65863407600E+02 -0.54966993152E+03  0.56609197785E+03  0.00000000000E+00 0. -1.
          1    1    1    2  501    0  0.38149292238E+02 -0.49208046049E+02 -0.18584312879E+03  0.19599609387E+03  0.00000000000E+00 0. -1.
<scales pt_clust_3="32.91372" pt_clust_4="56.20007" pt_clust_5="14000.00000" pt_clust_6="85.78008"></scales>
<clustering>
<clus scale="   32.914">  2  3  1 -1</clus>
<clus scale="   56.200">  1  4  2 -1</clus>
<clus scale="   85.780">  1  6  2 -1</clus>
<clus scale="   56.200">  1  3  2 -1</clus>
</clustering>
</event>
<event>
 6    0  0.1622933E+002  0.8696399E+02  0.7546771E-02  0.1310375E+00
         21   -1    0    0  505  502  0.00000000000E+00  0.00000000000E+00  0.24594261407E+03  0.24594261407E+03  0.00000000000E+00 0.  1.
          2   -1    0    0  503    0 -0.00000000000E+00 -0.00000000000E+00 -0.72598018869E+03  0.72598018869E+03  0.00000000000E+00 0. -1.
         21    1    1    2  503  504  0.24204132354E+02 -0.46469827122E+02 -0.13363567828E+03  0.14354016638E+03  0.00000000000E+00 0. -1.
         21    1    1    2  504  502 -0.53456720776E+02  0.30731248663E+01 -0.73023109468E+02  0.90550757086E+02  0.00000000000E+00 0. -1.
         21    1    1    2  505  501  0.89818883675E+02 -0.12241271973E+02  0.21984382765E+03  0.23779947258E+03  0.00000000000E+00 0.  1.
          2    1    1    2  501    0 -0.60566295254E+02  0.55637974229E+02 -0.49322261452E+03  0.50003240672E+03  0.00000000000E+00 0. -1.
<scales pt_clust_3="52.39547" pt_clust_4="86.96399" pt_clust_5="14000.00000" pt_clust_6="43.30669"></scales>
<clustering>
<clus scale="   52.395">  2  3  1 -1</clus>
<clus scale="   43.307">  2  6  1 -1</clus>
<clus scale="   86.964">  2  4  1 -1</clus>
<clus scale="   86.964">  1  3  2 -1</clus>
</clustering>
</event>
<event>
 6    0  0.1622933E+002  0.1615568E+03  0.7546771E-02  0.1186950E+00
         21   -1    0    0  503  502  0.00000000000E+00  0.00000000000E+00  0.26070453581E+03  0.26070453581E+03  0.00000000000E+00 0.  1.
          1   -1    0    0  504    0 -0.00000000000E+00 -0.00000000000E+00 -0.10393182339E+04  0.10393182339E+04  0.00000000000E+00 0.  1.
         21    1    1    2  503  505 -0.14124097030E+03 -0.28548385284E+02  0.14683618705E+03  0.20573013348E+03  0.00000000000E+00 0.  1.
         21    1    1    2  504  502 -0.49870837664E+02  0.82842771308E+01 -0.89134175506E+03  0.89277424583E+03  0.00000000000E+00 0.  1.
         21    1    1    2  505  501  0.81083859110E+02  0.21442594601E+02 -0.36473529889E+02  0.91458709011E+02  0.00000000000E+00 0.  1.
          1    1    1    2  501    0  0.11002794886E+03 -0.11784864484E+01  0.23653997704E+01  0.11005968143E+03  0.00000000000E+00 0.  1.
<scales pt_clust_3="153.58603" pt_clust_4="50.55423" pt_clust_5="43.75695" pt_clust_6="43.75695"></scales>
<clustering>
<clus scale="   43.757">  5  6 -1 -1</clus>
<clus scale="   50.554">  2  4  1 -1</clus>
<clus scale="  153.586">  1  3  2 -1</clus>
<clus scale="  153.586">  1  3  2 -1</clus>
</clustering>
</event>
<event>
 6    0  0.1622933E+002  0.1110307E+03  0.7546771E-02  0.1258673E+00
         21   -1    0    0  503  502  0.00000000000E+00  0.00000000000E+00  0.30463498119E+02  0.30463498119E+02  0.00000000000E+00 0. -1.
          2   -1    0    0  505    0 -0.00000000000E+00 -0.00000000000E+00 -0.13840944201E+04  0.13840944201E+04  0.00000000000E+00 0. -1.
         21    1    1    2  503  501  0.10642860194E+03 -0.20682527774E+02 -0.12440553286E+03  0.16501984993E+03  0.00000000000E+00 0. -1.
         21    1    1    2  504  502  0.36566940071E+02  0.36464791963E+02 -0.22313043845E+03  0.22902841466E+03  0.00000000000E+00 0. -1.
         21    1    1    2  505  504 -0.22509566580E+02 -0.39296307068E+02 -0.36189208851E+03  0.36471463374E+03  0.00000000000E+00 0.  1.
          2    1    1    2  501    0 -0.12048597543E+03  0.23514042878E+02 -0.64420286220E+03  0.65579501993E+03  0.00000000000E+00 0. -1.
<scales pt_clust_3="14000.00000" pt_clust_4="42.04889" pt_clust_5="45.28665" pt_clust_6="111.03075"></scales>
<clustering>
<clus scale="   45.287">  2  5  1 -1</clus>
<clus scale="   42.049">  2  4  1 -1</clus>
<clus scale="  111.031">  2  6  1 -1</clus>
<clus scale="  111.031">  1  3  2 -1</clus>
</clustering>
</event>
<event>
 6    0  0.1622933E+002  0.1198585E+03  0.7546771E-02  0.1243331E+00
         -3   -1    0    0    0  501 -0.00000000000E+00  0.00000000000E+00  0.11273654625E+03  0.11273654625E+03  0.00000000000E+00 0.  1.
         21   -1    0    0  504  502  0.00000000000E+00 -0.00000000000E+00 -0.76619586165E+03  0.76619586165E+03  0.00000000000E+00 0.  1.
         21    1    1    2  503  505 -0.69848644506E+02 -0.77538269219E+02  0.36571929034E+01  0.10442409393E+03  0.00000000000E+00 0.  1.
         21    1    1    2  504  501 -0.44211054712E+02  0.10581151763E+02 -0.23137273339E+02  0.51008935971E+02  0.00000000000E+00 0.  1.
         21    1    1    2  505  502  0.12275114171E+03  0.17183787452E+02 -0.65655954937E+03  0.66815684327E+03  0.00000000000E+00 0.  1.
         -3    1    1    2    0  503 -0.86914424972E+01  0.49773330004E+02  0.22580314402E+02  0.55342534735E+02  0.00000000000E+00 0.  1.
<scales pt_clust_3="14000.00000" pt_clust_4="45.45963" pt_clust_5="119.85849" pt_clust_6="59.93931"></scales>
<clustering>
<clus scale="   45.460">  1  4  2 -1</clus>
<clus scale="   59.939">  1  6  2 -1</clus>
<clus scale="  119.858">  2  5  1 -1</clus>
<clus scale="  119.858">  2  3  1 -1</clus>
</clustering>
</event>
<event>
 6    0  0.1622933E+002  0.1200565E+03  0.7546771E-02  0.1243004E+00
         21   -1    0    0  505  502  0.00000000000E+00  0.00000000000E+00  0.22811138777E+03  0.22811138777E+03  0.00000000000E+00 0. -1.
          2   -1    0    0  503    0 -0.00000000000E+00 -0.00000000000E+00 -0.22578624853E+03  0.22578624853E+03  0.00000000000E+00 0. -1.
         21    1    1    2  503  504 -0.77624044808E+01 -0.35963579433E+02 -0.38703955355E+02  0.53400656636E+02  0.00000000000E+00 0.  1.
         21    1    1    2  504  502  0.91219333493E+02 -0.57355610058E+02  0.17804201542E+03  0.20810956745E+03  0.00000000000E+00 0. -1.
         21    1    1    2  505  501 -0.27508771313E+02  0.59811286048E+02 -0.45550763417E+02  0.80056195799E+02  0.00000000000E+00 0. -1.
          2    1    1    2  501    0 -0.55948157700E+02  0.33507903443E+02 -0.91462157410E+02  0.11233121641E+03  0.00000000000E+00 0. -1.
<scales pt_clust_3="36.79176" pt_clust_4="108.84263" pt_clust_5="48.28033" pt_clust_6="48.28033"></scales>
<clustering>
<clus scale="   36.792">  2  3  1 -1</clus>
<clus scale="   48.280">  5  6 -1 -1</clus>
<clus scale="  108.843">  1  4  2 -1</clus>
<clus scale="  108.843">  1  3  2 -1</clus>
</clustering>
</event>
<event>
 6    0  0.1622933E+002  0.1433405E+03  0.7546771E-02  0.1208903E+00
         -1   -1    0    0    0  501 -0.00000000000E+00  0.00000000000E+00  0.70965802899E+03  0.70965802899E+03  0.00000000000E+00 0. -1.
         21   -1    0    0  504  502  0.00000000000E+00 -0.00000000000E+00 -0.17616599721E+03  0.17616599721E+03  0.00000000000E+00 0. -1.
         21    1    1    2  503  501 -0.10566671912E+03  0.84364162600E+02  0.34774344693E+03  0.37310624807E+03  0.00000000000E+00 0. -1.
         21    1    1    2  504  505 -0.24818179962E+02 -0.37581233626E+02 -0.93569857970E+02  0.10384415967E+03  0.00000000000E+00 0. -1.
         21    1    1    2  505  503 -0.76570324437E+02 -0.49309777444E+02  0.95827134667E+02  0.13220177183E+03  0.00000000000E+00 0. -1.
         -1    1    1    2    0  502  0.20705522352E+03  0.25268484702E+01  0.18349130816E+03  0.27667184663E+03  0.00000000000E+00 0. -1.
<scales pt_clust_3="143.34055" pt_clust_4="45.03655" pt_clust_5="100.84101" pt_clust_6="14000.00000"></scales>
<clustering>
<clus scale="   45.037">  2  4  1 -1</clus>
<clus scale="  100.841">  2  5  1 -1</clus>
<clus scale="  143.341">  1  3  2 -1</clus>
<clus scale="   45.037">  2  3  1 -1</clus>
</clustering>
</event>
<event>
 6    0  0.1622933E+002  0.9434868E+02  0.7546771E-02  0.1292650E+00
         21   -1    0    0  504  502  0.00000000000E+00  0.00000000000E+00  0.98445967659E+02  0.98445967659E+02  0.00000000000E+00 0.  1.
          1   -1    0    0  503    0 -0.00000000000E+00 -0.00000000000E+00 -0.76296620555E+03  0.76296620555E+03  0.00000000000E+00 0.  1.
         21    1    1    2  503  502 -0.45635693047E+02 -0.99244403359E+02 -0.26158988774E+03  0.28348075322E+03  0.00000000000E+00 0.  1.
         21    1    1    2  504  505  0.40374064508E+02 -0.25244453998E+02  0.68657834537E+02  0.83553849617E+02  0.00000000000E+00 0.  1.
         21    1    1    2  505  501 -0.27167719564E+02  0.93031429827E+02 -0.24788608273E+03  0.26615867811E+03  0.00000000000E+00 0.  1.
          1    1    1    2  501    0  0.32429348103E+02  0.31457427529E+02 -0.22370210196E+03  0.22821889226E+03  0.00000000000E+00 0.  1.
<scales pt_clust_3="94.34868" pt_clust_4="47.77061" pt_clust_5="14000.00000" pt_clust_6="45.18000"></scales>
<clustering>
<clus scale="   45.180">  2  6  1 -1</clus>
<clus scale="   47.771">  1  4  2 -1</clus>
<clus scale="   94.349">  2  3  1 -1</clus>
<clus scale="   47.771">  1  3  2 -1</clus>
</clustering>
</event>
<event>
 6    0  0.1622933E+002  0.9837000E+02  0.7546771E-02  0.1283761E+00
          1   -1    0    0  505    0 -0.00000000000E+00  0.00000000000E+00  0.17000787710E+04  0.17000787710E+04  0.00000000000E+00 0.  1.
         21   -1    0    0  501  502  0.00000000000E+00 -0.00000000000E+00 -0.47879058920E+03  0.47879058920E+03  0.00000000000E+00 0. -1.
         21    1    1    2  503  504 -0.45894064756E+02  0.87472309995E+02  0.51622393605E+03  0.52558997550E+03  0.00000000000E+00 0.  1.
         21    1    1    2  504  502  0.33220474051E+02  0.36492478258E+02 -0.46142127911E+03  0.46405268847E+03  0.00000000000E+00 0. -1.
         21    1    1    2  505  503 -0.20418285654E+02 -0.40687080288E+02  0.44472215519E+02  0.63640575458E+02  0.00000000000E+00 0.  1.
          1    1    1    2  501    0  0.33091876359E+02 -0.83277707964E+02  0.11220133093E+04  0.11255861207E+04  0.00000000000E+00 0.  1.
<scales pt_clust_3="14000.00000" pt_clust_4="49.31373" pt_clust_5="45.52301" pt_clust_6="98.37000"></scales>
<clustering>
<clus scale="   45.523">  1  5  2 -1</clus>
<clus scale="   49.314">  2  4  1 -1</clus>
<clus scale="   98.370">  1  6  2 -1</clus>
<clus scale="   49.314">  2  3  1 -1</clus>
</clustering>
</event>
<event>
 6    0  0.1622933E+002  0.1959827E+03  0.7546771E-02  0.1153173E+00
         21   -1    0    0  505  502  0.00000000000E+00  0.00000000000E+00  0.19736674623E+03  0.19736674623E+03  0.00000000000E+00 0.  1.
          2   -1    0    0  503    0 -0.00000000000E+00 -0.00000000000E+00 -0.77028461570E+03  0.77028461570E+03  0.00000000000E+00 0. -1.
         21    1    1    2  503  502 -0.27847062775E+02  0.15343735859E+02 -0.68881992520E+02  0.75865789581E+02  0.00000000000E+00 0.  1.
         21    1    1    2  504  501  0.92208386195E+02 -0.36206336746E+02 -0.24943584714E+03  0.26838689824E+03  0.00000000000E+00 0. -1.
         21    1    1    2  505  504 -0.12820713496E+03  0.12565617398E+03  0.12873259065E+03  0.22090410456E+03  0.00000000000E+00 0.  1.
          2    1    1    2  501    0  0.63845811542E+02 -0.10479357309E+03 -0.38333262046E+03  0.40249456955E+03  0.00000000000E+00 0. -1.
<scales pt_clust_3="31.79448" pt_clust_4="66.55642" pt_clust_5="181.54088" pt_clust_6="66.55642"></scales>
<clustering>
<clus scale="   31.794">  2  3  1 -1</clus>
<clus scale="   66.556">  4  6 -1 -1</clus>
<clus scale="  181.541">  1  5  2 -1</clus>
<clus scale="  181.541">  1  3  2 -1</clus>
</clustering>
</event>
<event>
 6    0  0.1622933E+002  0.1347587E+03  0.7546771E-02  0.1220561E+00
          2   -1    0    0  503    0 -0.00000000000E+00  0.00000000000E+00  0.41713218998E+03  0.41713218998E+03  0.00000000000E+00 0. -1.
         21   -1    0    0  501  502  0.00000000000E+00 -0.00000000000E+00 -0.22470111282E+03  0.22470111282E+03  0.00000000000E+00 0. -1.
         21    1    1    2  503  505  0.21287041551E+02  0.61609925020E+02  0.25094443761E+03  0.25927211915E+03  0.00000000000E+00 0. -1.
         21    1    1    2  504  502  0.20943173469E+02 -0.36377681537E+02 -0.87595631885E+02  0.97133655106E+02  0.00000000000E+00 0. -1.
         21    1    1    2  505  504  0.38633758027E+02 -0.13904101727E+03  0.13013794667E+02  0.14489420483E+03  0.00000000000E+00 0. -1.
          2    1    1    2  501    0 -0.80863973047E+02  0.11380877379E+03  0.16068476769E+02  0.14053332371E+03  0.00000000000E+00 0. -1.
<scales pt_clust_3="64.32483" pt_clust_4="41.97561" pt_clust_5="134.75871" pt_clust_6="14000.00000"></scales>
<clustering>
<clus scale="   41.976">  2  4  1 -1</clus>
<clus scale="   64.325">  1  3  2 -1</clus>
<clus scale="  134.759">  1  5  2 -1</clus>
<clus scale="   41.976">  2  3  1 -1</clus>
</clustering>
</event>
<event>
 6    0  0.1622933E+002  0.2015656E+03  0.7546771E-02  0.1148425E+00
         21   -1    0    0  505  502  0.00000000000E+00  0.00000000000E+00  0.44094636013E+03  0.44094636013E+03  0.00000000000E+00 0.  1.
          1   -1    0    0  504    0 -0.00000000000E+00 -0.00000000000E+00 -0.47945222375E+03  0.47945222375E+03  0.00000000000E+00 0. -1.
         21    1    1    2  503  502 -0.49992215234E+01  0.97119264756E+02  0.25033757355E+03  0.26856292472E+03  0.00000000000E+00 0.  1.
         21    1    1    2  504  503  0.17143139759E+03  0.93985223242E+02 -0.13314764715E+03  0.23653803544E+03  0.00000000000E+00 0. -1.
         21    1    1    2  505  501 -0.19886714731E+03 -0.95924292795E+02  0.10507550773E+02  0.22104302941E+03  0.00000000000E+00 0.  1.
          1    1    1    2  501    0  0.32434971242E+02 -0.95180195204E+02 -0.16620334079E+03  0.19425459430E+03  0.00000000000E+00 0. -1.
<scales pt_clust_3="97.24785" pt_clust_4="201.56561" pt_clust_5="14000.00000" pt_clust_6="93.34895"></scales>
<clustering>
<clus scale="   97.248">  1  3  2 -1</clus>
<clus scale="   93.349">  2  6  1 -1</clus>
<clus scale="  201.566">  2  4  1 -1</clus>
<clus scale="   97.248">  1  3  2 -1</clus>
</clustering>
</event>
<event>
 6    0  0.1622933E+002  0.1047120E+03  0.7546771E-02  0.1270688E+00
          1   -1    0    0  504    0 -0.00000000000E+00  0.00000000000E+00  0.12340946320E+04  0.12340946320E+04  0.00000000000E+00 0.  1.
         21   -1    0    0  505  502  0.00000000000E+00 -0.00000000000E+00 -0.12581162854E+03  0.12581162854E+03  0.00000000000E+00 0.  1.
         21    1    1    2  503  502 -0.10415627073E+02  0.35349889042E+02 -0.10740904553E+03  0.11355528612E+03  0.00000000000E+00 0.  1.
         21    1    1    2  504  503 -0.31885515820E+02 -0.51112128886E+01  0.54498911542E+02  0.63347785877E+02  0.00000000000E+00 0.  1.
         21    1    1    2  505  501  0.59702107026E+02  0.76739958112E+02  0.30874801484E+03  0.32369538060E+03  0.00000000000E+00 0.  1.
          1    1    1    2  501    0 -0.17400964133E+02 -0.10697863427E+03  0.85244512257E+03  0.85930780791E+03  0.00000000000E+00 0.  1.
<scales pt_clust_3="36.86325" pt_clust_4="32.29258" pt_clust_5="14000.00000" pt_clust_6="104.71204"></scales>
<clustering>
<clus scale="   32.293">  1  4  2 -1</clus>
<clus scale="   36.863">  2  3  1 -1</clus>
<clus scale="  104.712">  1  6  2 -1</clus>
<clus scale="   36.863">  2  3  1 -1</clus>
</clustering>
</event>
<event>
 6    0  0.1622933E+002  0.1236934E+03  0.7546771E-02  0.1237125E+00
         21   -1    0    0  505  502  0.00000000000E+00  0.00000000000E+00  0.98674159732E+02  0.98674159732E+02  0.00000000000E+00 0. -1.
         -1   -1    0    0    0  501 -0.00000000000E+00 -0.00000000000E+00 -0.33196123039E+03  0.33196123039E+03  0.00000000000E+00 0. -1.
         21    1    1    2  503  502  0.36137713439E+02 -0.36817647744E+02 -0.64661389384E+02  0.82719821053E+02  0.00000000000E+00 0. -1.
         21    1    1    2  504  501  0.87850064440E+00  0.41363251327E+02 -0.14743033632E+03  0.15312542046E+03  0.00000000000E+00 0.  1.
         21    1    1    2  505  504 -0.10485948370E+03  0.34751224732E+02  0.88636445579E+01  0.11082293597E+03  0.00000000000E+00 0. -1.
         -1    1    1    2    0  503  0.67843269615E+02 -0.39296828315E+02 -0.30058989509E+02  0.83967212637E+02  0.00000000000E+00 0. -1.
<scales pt_clust_3="38.10943" pt_clust_4="41.37258" pt_clust_5="114.42422" pt_clust_6="38.10943"></scales>
<clustering>
<clus scale="   38.109">  3  6 -1 -1</clus>
<clus scale="   41.373">  2  4  1 -1</clus>
<clus scale="  114.424">  1  5  2 -1</clus>
<clus scale="  114.424">  1  3  2 -1</clus>
</clustering>
</event>
<event>
 6    0  0.1622933E+002  0.9438110E+02  0.7546771E-02  0.1292576E+00
          3   -1    0    0  504    0 -0.00000000000E+00  0.00000000000E+00  0.72257679539E+03  0.72257679539E+03  0.00000000000E+00 0.  1.
         21   -1    0    0  505  502  0.00000000000E+00 -0.00000000000E+00 -0.38296410856E+03  0.38296410856E+03  0.00000000000E+00 0.  1.
         21    1    1    2  503  502  0.80471967546E+02 -0.32636470546E+02  0.81332984405E+02  0.11897870029E+03  0.00000000000E+00 0.  1.
         21    1    1    2  504  503 -0.30479679760E+02 -0.24544457831E+02  0.27422740256E+03  0.27700561294E+03  0.00000000000E+00 0.  1.
         21    1    1    2  505  501  0.28866832488E+02  0.30649182879E+02 -0.35650513006E+03  0.35898269344E+03  0.00000000000E+00 0.  1.
          3    1    1    2  501    0 -0.78859120273E+02  0.26531745498E+02  0.34055742993E+03  0.35057389727E+03  0.00000000000E+00 0.  1.
<scales pt_clust_3="14000.00000" pt_clust_4="39.13363" pt_clust_5="41.99561" pt_clust_6="94.38110"></scales>
<clustering>
<clus scale="   39.134">  1  4  2 -1</clus>
<clus scale="   41.996">  2  5  1 -1</clus>
<clus scale="   94.381">  1  6  2 -1</clus>
<clus scale="   41.996">  2  3  1 -1</clus>
</clustering>
</event>
<event>
 6    0  0.1622933E+002  0.1151545E+03  0.7546771E-02  0.1251312E+00
         21   -1    0    0  505  502  0.00000000000E+00  0.00000000000E+00  0.44292516416E+02  0.44292516416E+02  0.00000000000E+00 0.  1.
          1   -1    0    0  504    0 -0.00000000000E+00 -0.00000000000E+00 -0.21256285690E+04  0.21256285690E+04  0.00000000000E+00 0. -1.
         21    1    1    2  503  502 -0.11440133146E+03  0.25202368551E+02 -0.11291969463E+03  0.16270734912E+03  0.00000000000E+00 0.  1.
         21    1    1    2  504  503  0.84729305519E+02 -0.94968356104E+02 -0.38224193756E+03  0.40287335815E+03  0.00000000000E+00 0. -1.
         21    1    1    2  505  501  0.90586375430E+02  0.10380909048E+03 -0.59631612438E+03  0.61202543973E+03  0.00000000000E+00 0. -1.
          1    1    1    2  501    0 -0.60914349484E+02 -0.34043102930E+02 -0.98985829598E+03  0.99231493839E+03  0.00000000000E+00 0. -1.
<scales pt_clust_3="115.15452" pt_clust_4="14000.00000" pt_clust_5="103.54859" pt_clust_6="69.78174"></scales>
<clustering>
<clus scale="   69.782">  2  6  1 -1</clus>
<clus scale="  103.549">  2  5  1 -1</clus>
<clus scale="  115.155">  1  3  2 -1</clus>
<clus scale="  115.155">  1  3  2 -1</clus>
</clustering>
</event>
<event>
 6    0  0.1622933E+002  0.3045217E+03  0.7546771E-02  0.1083002E+00
          1   -1    0    0  503    0 -0.00000000000E+00  0.00000000000E+00  0.39409197639E+04  0.39409197639E+04  0.00000000000E+00 0.  1.
         21   -1    0    0  501  502  0.00000000000E+00 -0.00000000000E+00 -0.28305722498E+02  0.28305722498E+02  0.00000000000E+00 0.  1.
         21    1    1    2  503  505 -0.34405042983E+02  0.70789116104E+02  0.25965862901E+03  0.27132528367E+03  0.00000000000E+00 0. -1.
         21    1    1    2  504  502 -0.38333321163E+02 -0.35195100772E+01  0.16106157052E+03  0.16559788634E+03  0.00000000000E+00 0. -1.
         21    1    1    2  505  504  0.85006582708E+02  0.21178124984E+03  0.10516896996E+04  0.10761638543E+04  0.00000000000E+00 0.  1.
          1    1    1    2  501    0 -0.12268218562E+02 -0.27905085586E+03  0.24402041423E+04  0.24561384621E+04  0.00000000000E+00 0.  1.
<scales pt_clust_3="71.39849" pt_clust_4="38.49455" pt_clust_5="71.39849" pt_clust_6="281.15381"></scales>
<clustering>
<clus scale="   38.495">  2  4  1 -1</clus>
<clus scale="   71.398">  3  5 -1 -1</clus>
<clus scale="  281.154">  1  6  2 -1</clus>
<clus scale="   38.495">  2  3  1 -1</clus>
</clustering>
</event>
<event>
 6    0  0.1622933E+002  0.2211512E+03  0.7546771E-02  0.1133028E+00
         21   -1    0    0  504  502  0.00000000000E+00  0.00000000000E+00  0.36526702682E+03  0.36526702682E+03  0.00000000000E+00 0.  1.
          2   -1    0    0  505    0 -0.00000000000E+00 -0.00000000000E+00 -0.73121764978E+03  0.73121764978E+03  0.00000000000E+00 0.  1.
         21    1    1    2  503  502  0.13739015114E+03 -0.15930371688E+03  0.15766877597E+03  0.26289383933E+03  0.00000000000E+00 0.  1.
         21    1    1    2  504  501 -0.82503436642E+02  0.80782560123E+01  0.57972453080E+02  0.10115770161E+03  0.00000000000E+00 0.  1.
         21    1    1    2  505  503  0.46383178412E+02  0.67737378500E+02 -0.59487706719E+03  0.60051517613E+03  0.00000000000E+00 0.  1.
          2    1    1    2  501    0 -0.10126989291E+03  0.83488082364E+02  0.13285215179E+02  0.13191795954E+03  0.00000000000E+00 0.  1.
<scales pt_clust_3="204.49520" pt_clust_4="66.91708" pt_clust_5="82.09599" pt_clust_6="66.91708"></scales>
<clustering>
<clus scale="   66.917">  4  6 -1 -1</clus>
<clus scale="   82.096">  2  5  1 -1</clus>
<clus scale="  204.495">  1  3  2 -1</clus>
<clus scale="  204.495">  1  3  2 -1</clus>
</clustering>
</event>
<event>
 6    0  0.1622933E+002  0.9897228E+02  0.7546771E-02  0.1282472E+00
          1   -1    0    0  503    0 -0.00000000000E+00  0.00000000000E+00  0.36980150195E+03  0.36980150195E+03  0.00000000000E+00 0. -1.
         21   -1    0    0  505  502  0.00000000000E+00 -0.00000000000E+00 -0.50272086733E+03  0.50272086733E+03  0.00000000000E+00 0. -1.
         21    1    1    2  503  504 -0.13007872465E+02 -0.48814999243E+02  0.54928956764E+02  0.74627737392E+02  0.00000000000E+00 0. -1.
         21    1    1    2  504  502 -0.57448760581E+02 -0.32958079034E+02  0.26175756209E+03  0.27000669692E+03  0.00000000000E+00 0. -1.
         21    1    1    2  505  501 -0.15210727439E+02  0.33041917550E+02 -0.42466956165E+03  0.42622455483E+03  0.00000000000E+00 0. -1.
          1    1    1    2  501    0  0.85667360485E+02  0.48731160727E+02 -0.24936322585E+02  0.10166338014E+03  0.00000000000E+00 0. -1.
<scales pt_clust_3="47.04115" pt_clust_4="14000.00000" pt_clust_5="36.37492" pt_clust_6="98.97228"></scales>
<clustering>
<clus scale="   36.375">  2  5  1 -1</clus>
<clus scale="   47.041">  1  3  2 -1</clus>
<clus scale="   98.972">  2  6  1 -1</clus>
<clus scale="   36.375">  2  3  1 -1</clus>
</clustering>
</event>
<event>
 6    0  0.1622933E+002  0.1357279E+03  0.7546771E-02  0.1219196E+00
         21   -1    0    0  503  502  0.00000000000E+00  0.00000000000E+00  0.29769134674E+03  0.29769134674E+03  0.00000000000E+00 0.  1.
         -1   -1    0    0    0  501 -0.00000000000E+00 -0.00000000000E+00 -0.38192188209E+03  0.38192188209E+03  0.00000000000E+00 0. -1.
         21    1    1    2  503  504 -0.20902647936E+02 -0.27132176744E+02  0.24798760035E+03  0.25034161786E+03  0.00000000000E+00 0.  1.
         21    1    1    2  504  505  0.57611778465E+02 -0.72939575315E+01 -0.92613456448E+02  0.10931409401E+03  0.00000000000E+00 0. -1.
         21    1    1    2  505  501  0.77654101915E+02  0.29544908961E+02 -0.45797360168E+02  0.94870750961E+02  0.00000000000E+00 0. -1.
         -1    1    1    2    0  502 -0.11436323244E+03  0.48812253141E+01 -0.19380731908E+03  0.22508676599E+03  0.00000000000E+00 0. -1.
<scales pt_clust_3="34.25019" pt_clust_4="54.80381" pt_clust_5="54.80381" pt_clust_6="121.16157"></scales>
<clustering>
<clus scale="   34.250">  1  3  2 -1</clus>
<clus scale="   54.804">  4  5 -1 -1</clus>
<clus scale="  121.162">  2  6  1 -1</clus>
<clus scale="   34.250">  1  3  2 -1</clus>
</clustering>
</event>
<event>
 6    0  0.1622933E+002  0.3593926E+03  0.7546771E-02  0.1058825E+00
         21   -1    0    0  504  502  0.00000000000E+00  0.00000000000E+00  0.76270708727E+02  0.76270708727E+02  0.00000000000E+00 0.  1.
          2   -1    0    0  505    0 -0.00000000000E+00 -0.00000000000E+00 -0.55855365637E+04  0.55855365637E+04  0.00000000000E+00 0.  1.
         21    1    1    2  503  502 -0.91377082681E+02 -0.44211313217E+01  0.13660665035E+02  0.92498277879E+02  0.00000000000E+00 0.  1.
         21    1    1    2  504  501  0.21187984969E+03 -0.84839231771E+02 -0.17638909516E+04  0.17785955288E+04  0.00000000000E+00 0. -1.
         21    1    1    2  505  503 -0.25629593286E+03  0.17333247005E+03 -0.19216231733E+04  0.19463728755E+04  0.00000000000E+00 0.  1.
          2    1    1    2  501    0  0.13579316585E+03 -0.84072106956E+02 -0.18374123951E+04  0.18443405903E+04  0.00000000000E+00 0.  1.
<scales pt_clust_3="91.48397" pt_clust_4="69.34963" pt_clust_5="349.70030" pt_clust_6="69.34963"></scales>
<clustering>
<clus scale="   69.350">  4  6 -1 -1</clus>
<clus scale="   91.484">  1  3  2 -1</clus>
<clus scale="  349.700">  1  5  2 -1</clus>
<clus scale="   91.484">  1  3  2 -1</clus>
</clustering>
</event>
<event>
 6    0  0.1622933E+002  0.8684022E+02  0.7546771E-02  0.1310689E+00
          1   -1    0    0  503    0 -0.00000000000E+00  0.00000000000E+00  0.68214492497E+03  0.68214492497E+03  0.00000000000E+00 0.  1.
         21   -1    0    0  501  502  0.00000000000E+00 -0.00000000000E+00 -0.15029277112E+04  0.15029277112E+04  0.00000000000E+00 0.  1.
         21    1    1    2  503  504 -0.71489026333E+02 -0.16039161601E+01  0.63391423718E+03  0.63793456838E+03  0.00000000000E+00 0.  1.
         21    1    1    2  504  505  0.11340706789E+03  0.25496329502E+02 -0.73677169063E+02  0.13762104166E+03  0.00000000000E+00 0.  1.
         21    1    1    2  505  502 -0.33628846307E+02 -0.54238682533E+02 -0.13762153414E+04  0.13776942331E+04  0.00000000000E+00 0.  1.
          1    1    1    2  501    0 -0.82891952513E+01  0.30346269191E+02 -0.48045129542E+01  0.31822793034E+02  0.00000000000E+00 0.  1.
<scales pt_clust_3="14000.00000" pt_clust_4="86.84022" pt_clust_5="63.79429" pt_clust_6="31.45802"></scales>
<clustering>
<clus scale="   31.458">  1  6  2 -1</clus>
<clus scale="   63.794">  2  5  1 -1</clus>
<clus scale="   86.840">  2  4  1 -1</clus>
<clus scale="   63.794">  2  3  1 -1</clus>
</clustering>
</event>
<event>
 6    0  0.1622933E+002  0.7020227E+02  0.7546771E-02  0.1359407E+00
          2   -1    0    0  505    0 -0.00000000000E+00  0.00000000000E+00  0.11419326242E+04  0.11419326242E+04  0.00000000000E+00 0.  1.
         21   -1    0    0  504  502  0.00000000000E+00 -0.00000000000E+00 -0.10617396350E+03  0.10617396350E+03  0.00000000000E+00 0. -1.
         21    1    1    2  503  502 -0.11052793329E+02  0.44612467849E+02 -0.79010485926E+02  0.91406200086E+02  0.00000000000E+00 0. -1.
         21    1    1    2  504  501  0.21845712724E+02  0.23184473379E+02  0.14345681708E+02  0.34936421596E+02  0.00000000000E+00 0.  1.
         21    1    1    2  505  503  0.19536502959E+02 -0.12079286293E+03  0.39056763639E+03  0.40928678121E+03  0.00000000000E+00 0.  1.
          2    1    1    2  501    0 -0.30329422353E+02  0.52995921699E+02  0.70985582852E+03  0.71247718480E+03  0.00000000000E+00 0.  1.
<scales pt_clust_3="70.20227" pt_clust_4="31.85522" pt_clust_5="14000.00000" pt_clust_6="61.18912"></scales>
<clustering>
<clus scale="   31.855">  2  4  1 -1</clus>
<clus scale="   61.189">  1  6  2 -1</clus>
<clus scale="   70.202">  2  3  1 -1</clus>
<clus scale="   31.855">  2  3  1 -1</clus>
</clustering>
</event>
<event>
 6    0  0.1622933E+002  0.1238848E+03  0.7546771E-02  0.1236822E+00
         21   -1    0    0  501  502  0.00000000000E+00  0.00000000000E+00  0.22135759814E+04  0.22135759814E+04  0.00000000000E+00 0. -1.
          2   -1    0    0  503    0 -0.00000000000E+00 -0.00000000000E+00 -0.13491786719E+04  0.13491786719E+04  0.00000000000E+00 0. -1.
         21    1    1    2  503  504 -0.41098777669E+02 -0.85678106663E+01 -0.44594820828E+03  0.44791999439E+03  0.00000000000E+00 0. -1.
         21    1    1    2  504  505  0.92903506081E+01 -0.53508110723E+02 -0.11118324413E+03  0.12373820066E+03  0.00000000000E+00 0. -1.
         21    1    1    2  505  502 -0.28850657454E+01  0.12398754033E+03  0.22029604163E+04  0.22064486918E+04  0.00000000000E+00 0. -1.
          2    1    1    2  501    0  0.34693492807E+02 -0.61911618942E+02 -0.78143165439E+03  0.78464776650E+03  0.00000000000E+00 0. -1.
<scales pt_clust_3="41.98234" pt_clust_4="54.76543" pt_clust_5="14000.00000" pt_clust_6="123.88485"></scales>
<clustering>
<clus scale="   41.982">  2  3  1 -1</clus>
<clus scale="   54.765">  2  4  1 -1</clus>
<clus scale="  123.885">  2  6  1 -1</clus>
<clus scale="  123.885">  1  3  2 -1</clus>
</clustering>
</event>
<event>
 6    0  0.1622933E+002  0.1673365E+03  0.7546771E-02  0.1180654E+00
          2   -1    0    0  503    0 -0.00000000000E+00  0.00000000000E+00  0.88669644111E+03  0.88669644111E+03  0.00000000000E+00 0. -1.
         21   -1    0    0  501  502  0.00000000000E+00 -0.00000000000E+00 -0.67986118863E+02  0.67986118863E+02  0.00000000000E+00 0. -1.
         21    1    1    2  503  505  0.18339997370E+02 -0.50207116779E+02  0.19137141063E+03  0.19869606661E+03  0.00000000000E+00 0. -1.
         21    1    1    2  504  502 -0.46000151408E+02  0.21303637320E+02  0.41503140584E+02  0.65516177933E+02  0.00000000000E+00 0. -1.
         21    1    1    2  505  504 -0.17829005325E+02 -0.15854807604E+03  0.17625973896E+03  0.23774537099E+03  0.00000000000E+00 0. -1.
          2    1    1    2  501    0  0.45489159363E+02  0.18745155550E+03  0.40957603208E+03  0.45272494445E+03  0.00000000000E+00 0. -1.
<scales pt_clust_3="51.16416" pt_clust_4="50.69378" pt_clust_5="167.33649" pt_clust_6="14000.00000"></scales>
<clustering>
<clus scale="   50.694">  2  4  1 -1</clus>
<clus scale="   51.164">  1  3  2 -1</clus>
<clus scale="  167.336">  2  5  1 -1</clus>
<clus scale="   50.694">  2  3  1 -1</clus>
</clustering>
</event>
<event>
 6    0  0.1622933E+002  0.1245248E+03  0.7546771E-02  0.1235814E+00
          2   -1    0    0  504    0 -0.00000000000E+00  0.00000000000E+00  0.71799991642E+03  0.71799991642E+03  0.00000000000E+00 0. -1.
         21   -1    0    0  501  502  0.00000000000E+00 -0.00000000000E+00 -0.11082261638E+03  0.11082261638E+03  0.00000000000E+00 0. -1.
         21    1    1    2  503  502 -0.20312568625E+02  0.40907266835E+02 -0.21050780832E+02  0.50290558733E+02  0.00000000000E+00 0.  1.
         21    1    1    2  504  505 -0.13215124028E+01 -0.37113212040E+02  0.44364226270E+03  0.44519388378E+03  0.00000000000E+00 0. -1.
         21    1    1    2  505  503 -0.23511037271E+02  0.12977180791E+03  0.11981463044E+03  0.17818259362E+03  0.00000000000E+00 0. -1.
          2    1    1    2  501    0  0.45145118298E+02 -0.13356586271E+03  0.64771187741E+02  0.15515549667E+03  0.00000000000E+00 0. -1.
<scales pt_clust_3="43.93803" pt_clust_4="37.13673" pt_clust_5="124.52479" pt_clust_6="14000.00000"></scales>
<clustering>
<clus scale="   37.137">  1  4  2 -1</clus>
<clus scale="   43.938">  2  3  1 -1</clus>
<clus scale="  124.525">  1  5  2 -1</clus>
<clus scale="   43.938">  2  3  1 -1</clus>
</clustering>
</event>
<event>
 6    0  0.1622933E+002  0.2010814E+03  0.7546771E-02  0.1148830E+00
          4   -1    0    0  505    0 -0.00000000000E+00  0.00000000000E+00  0.46604390823E+03  0.46604390823E+03  0.00000000000E+00 0. -1.
         21   -1    0    0  504  502  0.00000000000E+00 -0.00000000000E+00 -0.13815420175E+03  0.13815420175E+03  0.00000000000E+00 0. -1.
         21    1    1    2  503  502  0.18927317281E+03 -0.30443681511E+02  0.52245585564E+02  0.19869764191E+03  0.00000000000E+00 0. -1.
         21    1    1    2  504  501 -0.91956199197E+02  0.50342686215E+02  0.11153610051E+03  0.15307067107E+03  0.00000000000E+00 0. -1.
         21    1    1    2  505  503  0.34674132808E+00 -0.74837248675E+02  0.94381945922E+02  0.12045200594E+03  0.00000000000E+00 0. -1.
          4    1    1    2  501    0 -0.97663714944E+02  0.54938243971E+02  0.69726074484E+02  0.13197779105E+03  0.00000000000E+00 0. -1.
<scales pt_clust_3="197.67868" pt_clust_4="35.62906" pt_clust_5="74.83805" pt_clust_6="35.62906"></scales>
<clustering>
<clus scale="   35.629">  4  6 -1 -1</clus>
<clus scale="   74.838">  1  5  2 -1</clus>
<clus scale="  197.679">  2  3  1 -1</clus>
<clus scale="  197.679">  2  3  1 -1</clus>
</clustering>
</event>
<event>
 6    0  0.1622933E+002  0.1034090E+03  0.7546771E-02  0.1273286E+00
         21   -1    0    0  504  502  0.00000000000E+00  0.00000000000E+00  0.12744498059E+03  0.12744498059E+03  0.00000000000E+00 0. -1.
         -1   -1    0    0    0  501 -0.00000000000E+00 -0.00000000000E+00 -0.29732945070E+03  0.29732945070E+03  0.00000000000E+00 0. -1.
         21    1    1    2  503  501  0.37773370608E+02  0.58655638669E+01 -0.90518256345E+02  0.98258776190E+02  0.00000000000E+00 0. -1.
         21    1    1    2  504  503 -0.81564525544E+02  0.10603183918E+02 -0.63894678613E+02  0.10415243296E+03  0.00000000000E+00 0.  1.
         21    1    1    2  505  502  0.83222606651E+02 -0.83749953327E+02  0.42186474862E+02  0.12537844951E+03  0.00000000000E+00 0. -1.
         -1    1    1    2    0  505 -0.39431451716E+02  0.67281205542E+02 -0.57658010013E+02  0.96984772631E+02  0.00000000000E+00 0. -1.
<scales pt_clust_3="38.22607" pt_clust_4="67.20090" pt_clust_5="14000.00000" pt_clust_6="103.40901"></scales>
<clustering>
<clus scale="   38.226">  2  3  1 -1</clus>
<clus scale="   67.201">  2  4  1 -1</clus>
<clus scale="  103.409">  2  6  1 -1</clus>
<clus scale="  103.409">  1  3  2 -1</clus>
</clustering>
</event>
<event>
 6    0  0.1622933E+002  0.8800742E+02  0.7546771E-02  0.1307750E+00
         21   -1    0    0  501  502  0.00000000000E+00  0.00000000000E+00  0.48762051549E+02  0.48762051549E+02  0.00000000000E+00 0. -1.
          2   -1    0    0  504    0 -0.00000000000E+00 -0.00000000000E+00 -0.11482988088E+04  0.11482988088E+04  0.00000000000E+00 0. -1.
         21    1    1    2  503  502 -0.62192384952E+02 -0.64147896558E+02 -0.64965213932E+01  0.89582644351E+02  0.00000000000E+00 0. -1.
         21    1    1    2  504  505 -0.10356819353E+02 -0.31165824936E+02 -0.15275742626E+03  0.15624789160E+03  0.00000000000E+00 0.  1.
         21    1    1    2  505  503  0.57387663693E+02  0.11513703280E+02 -0.35809933865E+03  0.36285127207E+03  0.00000000000E+00 0. -1.
          2    1    1    2  501    0  0.15161540611E+02  0.83800018213E+02 -0.58218347100E+03  0.58837905237E+03  0.00000000000E+00 0. -1.
<scales pt_clust_3="88.00742" pt_clust_4="32.84163" pt_clust_5="53.63139" pt_clust_6="14000.00000"></scales>
<clustering>
<clus scale="   32.842">  2  4  1 -1</clus>
<clus scale="   53.631">  2  5  1 -1</clus>
<clus scale="   88.007">  1  3  2 -1</clus>
<clus scale="   88.007">  1  3  2 -1</clus>
</clustering>
</event>
<event>
 6    0  0.1622933E+002  0.1123133E+03  0.7546771E-02  0.1256345E+00
         21   -1    0    0  503  502  0.00000000000E+00  0.00000000000E+00  0.19254079806E+03  0.19254079806E+03  0.00000000000E+00 0. -1.
          1   -1    0    0  505    0 -0.00000000000E+00 -0.00000000000E+00 -0.52722797987E+03  0.52722797987E+03  0.00000000000E+00 0.  1.
         21    1    1    2  503  501  0.69729987365E+02 -0.88797494861E+02 -0.11639969557E+03  0.16216089344E+03  0.00000000000E+00 0. -1.
         21    1    1    2  504  502  0.42848941153E+02  0.43696097885E+02  0.13360423210E+03  0.14695397771E+03  0.00000000000E+00 0. -1.
         21    1    1    2  505  504 -0.91667796021E+02  0.67201925934E+02 -0.84737674172E+02  0.14177290679E+03  0.00000000000E+00 0. -1.
          1    1    1    2  501    0 -0.20911132497E+02 -0.22100528958E+02 -0.26715404416E+03  0.26888099999E+03  0.00000000000E+00 0.  1.
<scales pt_clust_3="112.31333" pt_clust_4="60.41616" pt_clust_5="14000.00000" pt_clust_6="30.42546"></scales>
<clustering>
<clus scale="   30.425">  2  6  1 -1</clus>
<clus scale="   60.416">  1  4  2 -1</clus>
<clus scale="  112.313">  2  3  1 -1</clus>
<clus scale="   60.416">  1  3  2 -1</clus>
</clustering>
</event>
<event>
 6    0  0.1622933E+002  0.1603747E+03  0.7546771E-02  0.1188274E+00
         21   -1    0    0  501  502  0.00000000000E+00  0.00000000000E+00  0.10631746580E+04  0.10631746580E+04  0.00000000000E+00 0.  1.
          1   -1    0    0  505    0 -0.00000000000E+00 -0.00000000000E+00 -0.95122809834E+03  0.95122809834E+03  0.00000000000E+00 0.  1.
         21    1    1    2  503  502 -0.11532823086E+02 -0.29858477482E+02  0.94469935856E+03  0.94524145738E+03  0.00000000000E+00 0.  1.
         21    1    1    2  504  503 -0.14702141776E+03  0.11303858036E+02  0.18299955272E+01  0.14746668563E+03  0.00000000000E+00 0.  1.
         21    1    1    2  505  504 -0.36932543741E+02 -0.12904929133E+03 -0.19431644092E+03  0.23617072552E+03  0.00000000000E+00 0.  1.
          1    1    1    2  501    0  0.19548678459E+03  0.14760391078E+03 -0.64026635347E+03  0.68552388785E+03  0.00000000000E+00 0.  1.
<scales pt_clust_3="32.00835" pt_clust_4="160.37473" pt_clust_5="139.87504" pt_clust_6="14000.00000"></scales>
<clustering>
<clus scale="   32.008">  1  3  2 -1</clus>
<clus scale="  139.875">  2  5  1 -1</clus>
<clus scale="  160.375">  1  4  2 -1</clus>
<clus scale="   32.008">  1  3  2 -1</clus>
</clustering>
</event>
<event>
 6    0  0.1622933E+002  0.1573757E+03  0.7546771E-02  0.1191692E+00
         21   -1    0    0  504  502  0.00000000000E+00  0.00000000000E+00  0.74583509035E+02  0.74583509035E+02  0.00000000000E+00 0. -1.
          1   -1    0    0  503    0 -0.00000000000E+00 -0.00000000000E+00 -0.83972303795E+03  0.83972303795E+03  0.00000000000E+00 0. -1.
         21    1    1    2  503  505 -0.22971689142E+02 -0.25480949002E+02 -0.20874143051E+03  0.21154186837E+03  0.00000000000E+00 0.  1.
         21    1    1    2  504  501 -0.83226248660E+02 -0.12948701937E+03 -0.10054688809E+03  0.18385639330E+03  0.00000000000E+00 0. -1.
         21    1    1    2  505  502 -0.40570941548E+02  0.58728367272E+02 -0.15408354415E+03  0.16981390107E+03  0.00000000000E+00 0. -1.
          1    1    1    2  501    0  0.14676887935E+03  0.96239601099E+02 -0.30176766616E+03  0.34909438424E+03  0.00000000000E+00 0. -1.
<scales pt_clust_3="34.30710" pt_clust_4="157.37566" pt_clust_5="69.87489" pt_clust_6="14000.00000"></scales>
<clustering>
<clus scale="   34.307">  2  3  1 -1</clus>
<clus scale="   69.875">  2  5  1 -1</clus>
<clus scale="  157.376">  1  4  2 -1</clus>
<clus scale="  157.376">  1  3  2 -1</clus>
</clustering>
</event>
<event>
 6    0  0.1622933E+002  0.6953813E+02  0.7546771E-02  0.1361671E+00
          2   -1    0    0  503    0 -0.00000000000E+00  0.00000000000E+00  0.12568849038E+04  0.12568849038E+04  0.00000000000E+00 0. -1.
         21   -1    0    0  505  502  0.00000000000E+00 -0.00000000000E+00 -0.76843322518E+02  0.76843322518E+02  0.00000000000E+00 0.  1.
         21    1    1    2  503  504  0.95223376216E+01  0.47523495924E+02  0.50885080129E+02  0.70274098773E+02  0.00000000000E+00 0.  1.
         21    1    1    2  504  502 -0.73013333117E+01  0.32949353969E+02 -0.55926248724E+02  0.65320094086E+02  0.00000000000E+00 0.  1.
         21    1    1    2  505  501 -0.70227245400E+02 -0.78891652415E+02  0.81926854012E+03  0.82604884822E+03  0.00000000000E+00 0. -1.
          2    1    1    2  501    0  0.68006241090E+02 -0.15811974781E+01  0.36581420971E+03  0.37208518519E+03  0.00000000000E+00 0. -1.
<scales pt_clust_3="14000.00000" pt_clust_4="33.74862" pt_clust_5="69.53813" pt_clust_6="66.76675"></scales>
<clustering>
<clus scale="   33.749">  2  4  1 -1</clus>
<clus scale="   66.767">  1  6  2 -1</clus>
<clus scale="   69.538">  1  5  2 -1</clus>
<clus scale="   33.749">  2  3  1 -1</clus>
</clustering>
</event>
<event>
 6    0  0.1622933E+002  0.1396253E+03  0.7546771E-02  0.1213834E+00
          2   -1    0    0  504    0 -0.00000000000E+00  0.00000000000E+00  0.74507034772E+03  0.74507034772E+03  0.00000000000E+00 0.  1.
         21   -1    0    0  503  502  0.00000000000E+00 -0.00000000000E+00 -0.94790506748E+03  0.94790506748E+03  0.00000000000E+00 0. -1.
         21    1    1    2  503  505 -0.61140126451E+02 -0.11228330745E+03 -0.93126414383E+03  0.93999923499E+03  0.00000000000E+00 0. -1.
         21    1    1    2  504  502  0.35517168826E+02 -0.20142110955E+02  0.22933286703E+03  0.23293934364E+03  0.00000000000E+00 0.  1.
         21    1    1    2  505  501  0.14641683582E+02  0.31912977373E+02  0.60627378619E+02  0.70060659868E+02  0.00000000000E+00 0. -1.
          2    1    1    2  501    0  0.10981274043E+02  0.10051244103E+03  0.43846917841E+03  0.44997617670E+03  0.00000000000E+00 0.  1.
<scales pt_clust_3="127.85659" pt_clust_4="40.83104" pt_clust_5="33.06265" pt_clust_6="33.06265"></scales>
<clustering>
<clus scale="   33.063">  5  6 -1 -1</clus>
<clus scale="   40.831">  1  4  2 -1</clus>
<clus scale="  127.857">  2  3  1 -1</clus>
<clus scale="  127.857">  2  3  1 -1</clus>
</clustering>
</event>
<event>
 6    0  0.1622933E+002  0.1215846E+03  0.7546771E-02  0.1240506E+00
         21   -1    0    0  505  502  0.00000000000E+00  0.00000000000E+00  0.16225476075E+03  0.16225476075E+03  0.00000000000E+00 0. -1.
          2   -1    0    0  503    0 -0.00000000000E+00 -0.00000000000E+00 -0.19653390814E+04  0.19653390814E+04  0.00000000000E+00 0.  1.
         21    1    1    2  503  502  0.77292082000E+02  0.11907842491E+03  0.11924425323E+03  0.18539937742E+03  0.00000000000E+00 0. -1.
         21    1    1    2  504  501 -0.33014859341E+02 -0.33305585326E+02 -0.70877206234E+03  0.71032181391E+03  0.00000000000E+00 0.  1.
         21    1    1    2  505  504 -0.40447099306E+02 -0.11488555315E+02 -0.47461990846E+02  0.63408164463E+02  0.00000000000E+00 0. -1.
          2    1    1    2  501    0 -0.38301233539E+01 -0.74284284266E+02 -0.11660945206E+04  0.11684644863E+04  0.00000000000E+00 0.  1.
<scales pt_clust_3="114.02931" pt_clust_4="33.50093" pt_clust_5="42.04705" pt_clust_6="33.50093"></scales>
<clustering>
<clus scale="   33.501">  4  6 -1 -1</clus>
<clus scale="   42.047">  1  5  2 -1</clus>
<clus scale="  114.029">  1  3  2 -1</clus>
<clus scale="   42.047">  1  3  2 -1</clus>
</clustering>
</event>
<event>
 6    0  0.1622933E+002  0.8710564E+02  0.7546771E-02  0.1310016E+00
         21   -1    0    0  505  502  0.00000000000E+00  0.00000000000E+00  0.21815559614E+03  0.21815559614E+03  0.00000000000E+00 0.  1.
         -1   -1    0    0    0  501 -0.00000000000E+00 -0.00000000000E+00 -0.27001011284E+03  0.27001011284E+03  0.00000000000E+00 0. -1.
         21    1    1    2  503  502  0.45308988109E+02 -0.73534869621E+02  0.15806512552E+03  0.18012458289E+03  0.00000000000E+00 0.  1.
         21    1    1    2  504  501 -0.38343241033E+02 -0.31956001779E+02 -0.49819017687E+02  0.70521803054E+02  0.00000000000E+00 0. -1.
         21    1    1    2  505  504  0.46548373836E+02  0.22772930443E+02 -0.27779306939E+01  0.51894839499E+02  0.00000000000E+00 0. -1.
         -1    1    1    2    0  503 -0.53514120911E+02  0.82717940956E+02 -0.15732269384E+03  0.18562448354E+03  0.00000000000E+00 0. -1.
<scales pt_clust_3="14000.00000" pt_clust_4="49.91383" pt_clust_5="45.53028" pt_clust_6="87.10564"></scales>
<clustering>
<clus scale="   49.914">  2  4  1 -1</clus>
<clus scale="   45.530">  2  5  1 -1</clus>
<clus scale="   87.106">  2  6  1 -1</clus>
<clus scale="   87.106">  1  3  2 -1</clus>
</clustering>
</event>
<event>
 6    0  0.1622933E+002  0.3122755E+03  0.7546771E-02  0.1079260E+00
         -4   -1    0    0    0  501 -0.00000000000E+00  0.00000000000E+00  0.11335739155E+04  0.11335739155E+04  0.00000000000E+00 0. -1.
         21   -1    0    0  503  502  0.00000000000E+00 -0.00000000000E+00 -0.99575984365E+02  0.99575984365E+02  0.00000000000E+00 0.  1.
         21    1    1    2  503  505  0.29810667138E+03 -0.65282543464E+02  0.35538546760E+03  0.46843166907E+03  0.00000000000E+00 0.  1.
         21    1    1    2  504  502 -0.17017376939E+03  0.71096088638E+02  0.27949412922E+03  0.33485927474E+03  0.00000000000E+00 0. -1.
         21    1    1    2  505  501 -0.50968388409E+01 -0.31374479127E+02  0.11414444712E+03  0.11848751207E+03  0.00000000000E+00 0. -1.
         -4    1    1    2    0  504 -0.12283606315E+03  0.25560933953E+02  0.28497388716E+03  0.31137144397E+03  0.00000000000E+00 0. -1.
<scales pt_clust_3="306.14261" pt_clust_4="51.05879" pt_clust_5="31.78578" pt_clust_6="51.05879"></scales>
<clustering>
<clus scale="   31.786">  1  5  2 -1</clus>
<clus scale="   51.059">  4  6 -1 -1</clus>
<clus scale="  306.143">  2  3  1 -1</clus>
<clus scale="  306.143">  2  3  1 -1</clus>
</clustering>
</event>
<event>
 6    0  0.1622933E+002  0.1101905E+03  0.7546771E-02  0.1260218E+00
          2   -1    0    0  504    0 -0.00000000000E+00  0.00000000000E+00  0.30110183084E+04  0.30110183084E+04  0.00000000000E+00 0. -1.
         21   -1    0    0  505  502  0.00000000000E+00 -0.00000000000E+00 -0.41420246436E+03  0.41420246436E+03  0.00000000000E+00 0.  1.
         21    1    1    2  503  502 -0.11843478190E+03  0.27465935162E+02  0.16895356965E+04  0.16939043789E+04  0.00000000000E+00 0. -1.
         21    1    1    2  504  503  0.19887263853E+02 -0.36373458005E+02  0.58875855410E+03  0.59021620338E+03  0.00000000000E+00 0. -1.
         21    1    1    2  505  501 -0.16978216405E+02  0.45760834069E+02 -0.40477604664E+03  0.40770818204E+03  0.00000000000E+00 0.  1.
          2    1    1    2  501    0  0.11552573445E+03 -0.36853311226E+02  0.72329764009E+03  0.73339200843E+03  0.00000000000E+00 0. -1.
<scales pt_clust_3="14000.00000" pt_clust_4="41.45518" pt_clust_5="48.78412" pt_clust_6="110.19046"></scales>
<clustering>
<clus scale="   41.455">  1  4  2 -1</clus>
<clus scale="   48.784">  2  5  1 -1</clus>
<clus scale="  110.190">  2  6  1 -1</clus>
<clus scale="   48.784">  2  3  1 -1</clus>
</clustering>
</event>
<event>
 6    0  0.1622933E+002  0.3018033E+03  0.7546771E-02  0.1084343E+00
          2   -1    0    0  504    0 -0.00000000000E+00  0.00000000000E+00  0.21836121798E+04  0.21836121798E+04  0.00000000000E+00 0. -1.
         21   -1    0    0  503  502  0.00000000000E+00 -0.00000000000E+00 -0.55639624535E+03  0.55639624535E+03  0.00000000000E+00 0.  1.
         21    1    1    2  503  505 -0.27868627545E+03 -0.10014672254E+03 -0.50264072271E+03  0.58338932308E+03  0.00000000000E+00 0.  1.
         21    1    1    2  504  502  0.58862232615E+02 -0.27203603788E+02  0.69590172577E+03  0.69891631145E+03  0.00000000000E+00 0. -1.
         21    1    1    2  505  501  0.49165003030E+02  0.39099882648E+00  0.29094084813E+03  0.29506597146E+03  0.00000000000E+00 0. -1.
          2    1    1    2  501    0  0.17065903980E+03  0.12695932750E+03  0.11430140833E+04  0.11626368192E+04  0.00000000000E+00 0. -1.
<scales pt_clust_3="294.88177" pt_clust_4="64.84442" pt_clust_5="30.89725" pt_clust_6="30.89725"></scales>
<clustering>
<clus scale="   30.897">  5  6 -1 -1</clus>
<clus scale="   64.844">  1  4  2 -1</clus>
<clus scale="  294.882">  2  3  1 -1</clus>
<clus scale="  294.882">  2  3  1 -1</clus>
</clustering>
</event>
<event>
 6    0  0.1622933E+002  0.1337501E+03  0.7546771E-02  0.1221995E+00
         21   -1    0    0  503  502  0.00000000000E+00  0.00000000000E+00  0.10535064980E+03  0.10535064980E+03  0.00000000000E+00 0. -1.
          2   -1    0    0  505    0 -0.00000000000E+00 -0.00000000000E+00 -0.34740415089E+03  0.34740415089E+03  0.00000000000E+00 0. -1.
         21    1    1    2  503  504  0.82435576433E+02 -0.11946110746E+03 -0.15676366596E+03  0.21363854386E+03  0.00000000000E+00 0. -1.
         21    1    1    2  504  501 -0.11265900177E+02  0.35639564286E+02 -0.56273437557E+02  0.67555894072E+02  0.00000000000E+00 0. -1.
         21    1    1    2  505  502 -0.14323060454E+01  0.42706602752E+02  0.44866675309E+02  0.61959050771E+02  0.00000000000E+00 0. -1.
          2    1    1    2  501    0 -0.69737370211E+02  0.41114940422E+02 -0.73883072883E+02  0.10960131198E+03  0.00000000000E+00 0. -1.
<scales pt_clust_3="126.08698" pt_clust_4="30.32070" pt_clust_5="42.73061" pt_clust_6="30.32070"></scales>
<clustering>
<clus scale="   30.321">  4  6 -1 -1</clus>
<clus scale="   42.731">  1  5  2 -1</clus>
<clus scale="  126.087">  1  3  2 -1</clus>
<clus scale="   42.731">  1  3  2 -1</clus>
</clustering>
</event>
<event>
 6    0  0.1622933E+002  0.2495281E+03  0.7546771E-02  0.1113603E+00
          2   -1    0    0  503    0 -0.00000000000E+00  0.00000000000E+00  0.17496987603E+04  0.17496987603E+04  0.00000000000E+00 0.  1.
         21   -1    0    0  504  502  0.00000000000E+00 -0.00000000000E+00 -0.31233774420E+03  0.31233774420E+03  0.00000000000E+00 0.  1.
         21    1    1    2  503  505 -0.14637837315E+03  0.28399976475E+02  0.96246472818E+02  0.17747273120E+03  0.00000000000E+00 0. -1.
         21    1    1    2  504  501  0.28979712120E+03  0.17328888658E+03 -0.98871618221E+02  0.35183377689E+03  0.00000000000E+00 0.  1.
         21    1    1    2  505  502  0.55336724467E+02 -0.57584267644E+02  0.84649869925E+01  0.80310378903E+02  0.00000000000E+00 0.  1.
          2    1    1    2  501    0 -0.19875547252E+03 -0.14410459541E+03  0.14315211745E+04  0.14524196175E+04  0.00000000000E+00 0.  1.
<scales pt_clust_3="139.67835" pt_clust_4="14000.00000" pt_clust_5="79.86301" pt_clust_6="249.52808"></scales>
<clustering>
<clus scale="   79.863">  2  5  1 -1</clus>
<clus scale="  139.678">  2  3  1 -1</clus>
<clus scale="  249.528">  1  6  2 -1</clus>
<clus scale="   79.863">  2  3  1 -1</clus>
</clustering>
</event>
<event>
 6    0  0.1622933E+002  0.1002788E+03  0.7546771E-02  0.1279711E+00
          2   -1    0    0  504    0 -0.00000000000E+00  0.00000000000E+00  0.10367463532E+04  0.10367463532E+04  0.00000000000E+00 0. -1.
         21   -1    0    0  505  502  0.00000000000E+00 -0.00000000000E+00 -0.97207806318E+02  0.97207806318E+02  0.00000000000E+00 0. -1.
         21    1    1    2  503  501  0.34458462525E+02  0.16348204276E+02  0.45375915576E+03  0.45535922178E+03  0.00000000000E+00 0.  1.
         21    1    1    2  504  502 -0.18770436185E+02 -0.66538399190E+02 -0.69769557575E+02  0.98221581160E+02  0.00000000000E+00 0. -1.
         21    1    1    2  505  503 -0.78293104317E+02  0.40815896961E+02  0.19166524497E+03  0.21102443877E+03  0.00000000000E+00 0. -1.
          2    1    1    2  501    0  0.62605077976E+02  0.93742979536E+01  0.36388370372E+03  0.36934891781E+03  0.00000000000E+00 0. -1.
<scales pt_clust_3="30.26899" pt_clust_4="69.13529" pt_clust_5="92.38588" pt_clust_6="30.26899"></scales>
<clustering>
<clus scale="   30.269">  3  6 -1 -1</clus>
<clus scale="   69.135">  2  4  1 -1</clus>
<clus scale="   92.386">  2  5  1 -1</clus>
<clus scale="   69.135">  2  3  1 -1</clus>
</clustering>
</event>
<event>
 6    0  0.1622933E+002  0.7036573E+02  0.7546771E-02  0.1358854E+00
          2   -1    0    0  504    0 -0.00000000000E+00  0.00000000000E+00  0.24994803344E+04  0.24994803344E+04  0.00000000000E+00 0. -1.
         21   -1    0    0  503  502  0.00000000000E+00 -0.00000000000E+00 -0.90552631438E+02  0.90552631438E+02  0.00000000000E+00 0.  1.
         21    1    1    2  503  501 -0.40078558753E+02  0.58775761652E+01 -0.80865436204E+02  0.90443659511E+02  0.00000000000E+00 0.  1.
         21    1    1    2  504  505  0.58342782164E+02 -0.42971078635E+02  0.94484129284E+03  0.94761567235E+03  0.00000000000E+00 0. -1.
         21    1    1    2  505  502 -0.66715360410E+02 -0.21907103357E+02  0.65506606288E+03  0.65881894875E+03  0.00000000000E+00 0. -1.
          2    1    1    2  501    0  0.48451136999E+02  0.59000605827E+02  0.88988578343E+03  0.89315468521E+03  0.00000000000E+00 0. -1.
<scales pt_clust_3="40.50724" pt_clust_4="62.56584" pt_clust_5="70.36573" pt_clust_6="14000.00000"></scales>
<clustering>
<clus scale="   40.507">  2  3  1 -1</clus>
<clus scale="   62.566">  1  4  2 -1</clus>
<clus scale="   70.366">  1  5  2 -1</clus>
<clus scale="   40.507">  2  3  1 -1</clus>
</clustering>
</event>
<event>
 6    0  0.1622933E+002  0.1052558E+03  0.7546771E-02  0.1269616E+00
         21   -1    0    0  503  502  0.00000000000E+00  0.00000000000E+00  0.30050849471E+02  0.30050849471E+02  0.00000000000E+00 0. -1.
         -1   -1    0    0    0  501 -0.00000000000E+00 -0.00000000000E+00 -0.14241920993E+04  0.14241920993E+04  0.00000000000E+00 0. -1.
         21    1    1    2  503  505 -0.27292509680E+02 -0.29648202317E+02 -0.37506825281E+02  0.55051420762E+02  0.00000000000E+00 0. -1.
         21    1    1    2  504  501  0.52281189840E+02 -0.10518320148E+02 -0.23598052043E+03  0.24193132061E+03  0.00000000000E+00 0. -1.
         21    1    1    2  505  504 -0.27166523690E+02  0.12361466082E+03 -0.22850739541E+03  0.26121683356E+03  0.00000000000E+00 0. -1.
         -1    1    1    2    0  502  0.21778435296E+01 -0.83448138355E+02 -0.89214650870E+03  0.89604337383E+03  0.00000000000E+00 0. -1.
<scales pt_clust_3="40.29761" pt_clust_4="50.63474" pt_clust_5="105.25582" pt_clust_6="14000.00000"></scales>
<clustering>
<clus scale="   40.298">  1  3  2 -1</clus>
<clus scale="   50.635">  2  4  1 -1</clus>
<clus scale="  105.256">  1  5  2 -1</clus>
<clus scale="   40.298">  1  3  2 -1</clus>
</clustering>
</event>
<event>
 6    0  0.1622933E+002  0.3159036E+03  0.7546771E-02  0.1077550E+00
          2   -1    0    0  505    0 -0.00000000000E+00  0.00000000000E+00  0.28136927138E+04  0.28136927138E+04  0.00000000000E+00 0. -1.
         21   -1    0    0  504  502  0.00000000000E+00 -0.00000000000E+00 -0.43852548036E+02  0.43852548036E+02  0.00000000000E+00 0. -1.
         21    1    1    2  503  501 -0.23437264773E+02 -0.14955541276E+03  0.60262924196E+03  0.62135185694E+03  0.00000000000E+00 0. -1.
         21    1    1    2  504  503 -0.30028563363E+02  0.17505048983E+02  0.42332262280E+02  0.54773732640E+02  0.00000000000E+00 0.  1.
         21    1    1    2  505  502  0.24973426526E+02  0.30085330950E+03  0.16312432878E+04  0.16589427506E+04  0.00000000000E+00 0. -1.
          2    1    1    2  501    0  0.28492401610E+02 -0.16880294573E+03  0.49363537373E+03  0.52247692163E+03  0.00000000000E+00 0. -1.
<scales pt_clust_3="68.62692" pt_clust_4="34.75833" pt_clust_5="307.61094" pt_clust_6="68.62692"></scales>
<clustering>
<clus scale="   34.758">  2  4  1 -1</clus>
<clus scale="   68.627">  3  6 -1 -1</clus>
<clus scale="  307.611">  1  5  2 -1</clus>
<clus scale="   34.758">  2  3  1 -1</clus>
</clustering>
</event>
<event>
 6    0  0.1622933E+002  0.1227214E+03  0.7546771E-02  0.1238674E+00
         21   -1    0    0  505  502  0.00000000000E+00  0.00000000000E+00  0.12702048043E+04  0.12702048043E+04  0.00000000000E+00 0. -1.
          2   -1    0    0  503    0 -0.00000000000E+00 -0.00000000000E+00 -0.93207894217E+03  0.93207894217E+03  0.00000000000E+00 0. -1.
         21    1    1    2  503  504  0.44738308413E+02 -0.82695933432E+00 -0.85622110067E+02  0.96609243003E+02  0.00000000000E+00 0. -1.
         21    1    1    2  504  502 -0.11805187540E+02  0.31421637333E+02  0.12304920067E+04  0.12309497392E+04  0.00000000000E+00 0. -1.
         21    1    1    2  505  501 -0.10020513284E+03  0.73284280560E+02 -0.10631383658E+03  0.16344505582E+03  0.00000000000E+00 0.  1.
          2    1    1    2  501    0  0.67272011964E+02 -0.10387895856E+03 -0.70043019790E+03  0.71127970852E+03  0.00000000000E+00 0. -1.
<scales pt_clust_3="43.24135" pt_clust_4="33.56608" pt_clust_5="14000.00000" pt_clust_6="122.72144"></scales>
<clustering>
<clus scale="   33.566">  1  4  2 -1</clus>
<clus scale="   43.241">  1  3  2 -1</clus>
<clus scale="  122.721">  2  6  1 -1</clus>
<clus scale="   33.566">  1  3  2 -1</clus>
</clustering>
</event>
<event>
 6    0  0.1622933E+002  0.8701588E+02  0.7546771E-02  0.1310243E+00
         -2   -1    0    0    0  501 -0.00000000000E+00  0.00000000000E+00  0.57857810671E+03  0.57857810671E+03  0.00000000000E+00 0.  1.
         21   -1    0    0  503  502  0.00000000000E+00 -0.00000000000E+00 -0.17035971617E+03  0.17035971617E+03  0.00000000000E+00 0. -1.
         21    1    1    2  503  505  0.27706733357E+02  0.13472483263E+02 -0.12319766706E+03  0.12699148021E+03  0.00000000000E+00 0. -1.
         21    1    1    2  504  502  0.33342270353E+02 -0.23380362651E+02  0.17748587183E+02  0.44422524657E+02  0.00000000000E+00 0. -1.
         21    1    1    2  505  501 -0.24321911958E+02  0.90763865293E+02  0.52004470748E+02  0.10739692557E+03  0.00000000000E+00 0. -1.
         -2    1    1    2    0  504 -0.36727091751E+02 -0.80855985905E+02  0.46166299967E+03  0.47012689244E+03  0.00000000000E+00 0.  1.
<scales pt_clust_3="30.80862" pt_clust_4="45.82043" pt_clust_5="14000.00000" pt_clust_6="87.01588"></scales>
<clustering>
<clus scale="   30.809">  2  3  1 -1</clus>
<clus scale="   45.820">  2  4  1 -1</clus>
<clus scale="   87.016">  1  6  2 -1</clus>
<clus scale="   30.809">  2  3  1 -1</clus>
</clustering>
</event>
<event>
 6    0  0.1622933E+002  0.1861643E+03  0.7546771E-02  0.1161967E+00
         -3   -1    0    0    0  501 -0.00000000000E+00  0.00000000000E+00  0.36668528832E+03  0.36668528832E+03  0.00000000000E+00 0. -1.
         21   -1    0    0  503  502  0.00000000000E+00 -0.00000000000E+00 -0.82906979205E+03  0.82906979205E+03  0.00000000000E+00 0.  1.
         21    1    1    2  503  504  0.30404166274E+02  0.19648303837E+03 -0.72987750327E+03  0.75647284649E+03  0.00000000000E+00 0.  1.
         21    1    1    2  504  501 -0.90193272051E+02 -0.93862679514E+02  0.29398166365E+02  0.13345141856E+03  0.00000000000E+00 0. -1.
         21    1    1    2  505  502  0.57410076442E+02 -0.57050571856E+02  0.20485532123E+02  0.83488571988E+02  0.00000000000E+00 0. -1.
         -3    1    1    2    0  505  0.23790293351E+01 -0.45569787003E+02  0.21760930105E+03  0.22234224334E+03  0.00000000000E+00 0. -1.
<scales pt_clust_3="14000.00000" pt_clust_4="186.16432" pt_clust_5="93.54907" pt_clust_6="45.63184"></scales>
<clustering>
<clus scale="   45.632">  1  6  2 -1</clus>
<clus scale="   93.549">  1  5  2 -1</clus>
<clus scale="  186.164">  1  4  2 -1</clus>
<clus scale="  186.164">  2  3  1 -1</clus>
</clustering>
</event>
<event>
 6    0  0.1622933E+002  0.8015318E+02  0.7546771E-02  0.1328617E+00
         21   -1    0    0  504  502  0.00000000000E+00  0.00000000000E+00  0.14298408849E+03  0.14298408849E+03  0.00000000000E+00 0. -1.
          2   -1    0    0  505    0 -0.00000000000E+00 -0.00000000000E+00 -0.61351557679E+03  0.61351557679E+03  0.00000000000E+00 0.  1.
         21    1    1    2  503  502  0.52601722563E+01  0.29959369599E+02 -0.15841501945E+02  0.34295574391E+02  0.00000000000E+00 0.  1.
         21    1    1    2  504  501  0.59430234924E+02  0.19144091985E+02  0.10763746063E+03  0.12443581483E+03  0.00000000000E+00 0. -1.
         21    1    1    2  505  503 -0.32786152662E+02 -0.10673126339E+03 -0.19604884128E+03  0.22561392368E+03  0.00000000000E+00 0.  1.
          2    1    1    2  501    0 -0.31904254518E+02  0.57627801807E+02 -0.36627860571E+03  0.37215435238E+03  0.00000000000E+00 0.  1.
<scales pt_clust_3="30.41765" pt_clust_4="14000.00000" pt_clust_5="80.15318" pt_clust_6="66.39097"></scales>
<clustering>
<clus scale="   30.418">  1  3  2 -1</clus>
<clus scale="   66.391">  2  6  1 -1</clus>
<clus scale="   80.153">  2  5  1 -1</clus>
<clus scale="   30.418">  1  3  2 -1</clus>
</clustering>
</event>
<event>
 6    0  0.1622933E+002  0.1549834E+03  0.7546771E-02  0.1194480E+00
          2   -1    0    0  504    0 -0.00000000000E+00  0.00000000000E+00  0.40879307383E+03  0.40879307383E+03  0.00000000000E+00 0. -1.
         21   -1    0    0  503  502  0.00000000000E+00 -0.00000000000E+00 -0.78358695941E+03  0.78358695941E+03  0.00000000000E+00 0. -1.
         21    1    1    2  503  505 -0.74042355412E+02 -0.36415317580E+02 -0.70003253586E+03  0.70487863992E+03  0.00000000000E+00 0. -1.
         21    1    1    2  504  502  0.39153975275E+02 -0.13801460171E+02  0.68926809447E+02  0.80463775348E+02  0.00000000000E+00 0.  1.
         21    1    1    2  505  501 -0.70562288040E+02 -0.99007378244E+02  0.50043146075E+02  0.13147552589E+03  0.00000000000E+00 0. -1.
          2    1    1    2  501    0  0.10545066818E+03  0.14922415600E+03  0.20626869476E+03  0.27556209208E+03  0.00000000000E+00 0. -1.
<scales pt_clust_3="82.30234" pt_clust_4="41.51523" pt_clust_5="154.98340" pt_clust_6="14000.00000"></scales>
<clustering>
<clus scale="   41.515">  1  4  2 -1</clus>
<clus scale="   82.302">  2  3  1 -1</clus>
<clus scale="  154.983">  2  5  1 -1</clus>
<clus scale="   82.302">  2  3  1 -1</clus>
</clustering>
</event>
<event>
 6    0  0.1622933E+002  0.6041336E+02  0.7546771E-02  0.1396105E+00
         21   -1    0    0  501  502  0.00000000000E+00  0.00000000000E+00  0.50660915811E+02  0.50660915811E+02  0.00000000000E+00 0. -1.
          1   -1    0    0  504    0 -0.00000000000E+00 -0.00000000000E+00 -0.19153986809E+04  0.19153986809E+04  0.00000000000E+00 0. -1.
         21    1    1    2  503  502  0.51306735504E+02  0.30417069540E+02  0.23750881579E+02  0.64200339589E+02  0.00000000000E+00 0. -1.
         21    1    1    2  504  505  0.51171012735E+01  0.36795999772E+02 -0.13490576202E+03  0.13992746318E+03  0.00000000000E+00 0.  1.
         21    1    1    2  505  503  0.40924903997E+02  0.11846926044E+01 -0.22266219576E+03  0.22639501913E+03  0.00000000000E+00 0.  1.
          1    1    1    2  501    0 -0.97348740775E+02 -0.68397761916E+02 -0.15309206889E+04  0.15355367749E+04  0.00000000000E+00 0. -1.
<scales pt_clust_3="60.41336" pt_clust_4="37.15011" pt_clust_5="41.97811" pt_clust_6="14000.00000"></scales>
<clustering>
<clus scale="   37.150">  2  4  1 -1</clus>
<clus scale="   41.978">  2  5  1 -1</clus>
<clus scale="   60.413">  1  3  2 -1</clus>
<clus scale="   60.413">  1  3  2 -1</clus>
</clustering>
</event>
<event>
 6    0  0.1622933E+002  0.1383537E+03  0.7546771E-02  0.1215561E+00
         21   -1    0    0  503  502  0.00000000000E+00  0.00000000000E+00  0.93490845910E+02  0.93490845910E+02  0.00000000000E+00 0. -1.
          2   -1    0    0  505    0 -0.00000000000E+00 -0.00000000000E+00 -0.26648282724E+03  0.26648282724E+03  0.00000000000E+00 0. -1.
         21    1    1    2  503  501  0.29189487447E+02 -0.88819997349E+01  0.91343164976E+01  0.31848890633E+02  0.00000000000E+00 0.  1.
         21    1    1    2  504  502 -0.89630605923E+00  0.86344559289E+02 -0.26269751743E+02  0.90256778915E+02  0.00000000000E+00 0. -1.
         21    1    1    2  505  504 -0.90654400542E+01  0.49538730547E+02 -0.54842886469E+02  0.74458110531E+02  0.00000000000E+00 0. -1.
          2    1    1    2  501    0 -0.19227741333E+02 -0.12700129010E+03 -0.10101365961E+03  0.16340989307E+03  0.00000000000E+00 0. -1.
<scales pt_clust_3="30.51092" pt_clust_4="34.06402" pt_clust_5="34.06402" pt_clust_6="130.97145"></scales>
<clustering>
<clus scale="   30.511">  1  3  2 -1</clus>
<clus scale="   34.064">  4  5 -1 -1</clus>
<clus scale="  130.971">  2  6  1 -1</clus>
<clus scale="   30.511">  1  3  2 -1</clus>
</clustering>
</event>
<event>
 6    0  0.1622933E+002  0.2475731E+03  0.7546771E-02  0.1114848E+00
         -1   -1    0    0    0  501 -0.00000000000E+00  0.00000000000E+00  0.10120997645E+04  0.10120997645E+04  0.00000000000E+00 0. -1.
         21   -1    0    0  504  502  0.00000000000E+00 -0.00000000000E+00 -0.10183883687E+03  0.10183883687E+03  0.00000000000E+00 0. -1.
         21    1    1    2  503  502 -0.22760050529E+03 -0.44349213675E+02  0.34621993776E+03  0.41669783785E+03  0.00000000000E+00 0. -1.
         21    1    1    2  504  505  0.48511306257E+02  0.96188515529E+02  0.72003263977E+02  0.12957641521E+03  0.00000000000E+00 0. -1.
         21    1    1    2  505  501  0.11429973191E+03  0.77731227068E+02  0.24073395782E+03  0.27759576874E+03  0.00000000000E+00 0.  1.
         -1    1    1    2    0  503  0.64789467119E+02 -0.12957052892E+03  0.25130376805E+03  0.29006857956E+03  0.00000000000E+00 0. -1.
<scales pt_clust_3="223.74842" pt_clust_4="93.54996" pt_clust_5="93.54996" pt_clust_6="144.86613"></scales>
<clustering>
<clus scale="   93.550">  4  5 -1 -1</clus>
<clus scale="  144.866">  1  6  2 -1</clus>
<clus scale="  223.748">  1  3  2 -1</clus>
<clus scale="  247.573">  2  3  1 -1</clus>
</clustering>
</event>
<event>
 6    0  0.1622933E+002  0.3573818E+03  0.7546771E-02  0.1059625E+00
         -1   -1    0    0    0  501 -0.00000000000E+00  0.00000000000E+00  0.16172276798E+04  0.16172276798E+04  0.00000000000E+00 0. -1.
         21   -1    0    0  504  502  0.00000000000E+00 -0.00000000000E+00 -0.18686842702E+04  0.18686842702E+04  0.00000000000E+00 0.  1.
         21    1    1    2  503  502  0.23870743198E+03 -0.25438378550E+03 -0.18189414842E+04  0.18520908378E+04  0.00000000000E+00 0.  1.
         21    1    1    2  504  501 -0.12104064131E+03  0.21401910618E+02  0.17006203989E+03  0.20983321005E+03  0.00000000000E+00 0.  1.
         21    1    1    2  505  503 -0.10317229185E+02  0.86262823631E+02  0.58922683604E+03  0.59559716610E+03  0.00000000000E+00 0. -1.
         -1    1    1    2    0  505 -0.10734956148E+03  0.14671905126E+03  0.80819601790E+03  0.82839073613E+03  0.00000000000E+00 0. -1.
<scales pt_clust_3="347.70228" pt_clust_4="122.91818" pt_clust_5="57.10938" pt_clust_6="57.10938"></scales>
<clustering>
<clus scale="   57.109">  5  6 -1 -1</clus>
<clus scale="  122.918">  1  4  2 -1</clus>
<clus scale="  347.702">  2  3  1 -1</clus>
<clus scale="  347.702">  2  3  1 -1</clus>
</clustering>
</event>
<event>
 6    0  0.1622933E+002  0.1409767E+03  0.7546771E-02  0.1212021E+00
          1   -1    0    0  504    0 -0.00000000000E+00  0.00000000000E+00  0.11064398888E+04  0.11064398888E+04  0.00000000000E+00 0. -1.
         21   -1    0    0  505  502  0.00000000000E+00 -0.00000000000E+00 -0.10888812322E+03  0.10888812322E+03  0.00000000000E+00 0. -1.
         21    1    1    2  503  502 -0.28181258737E+02  0.27462930293E+02 -0.58826521348E+02  0.70773974724E+02  0.00000000000E+00 0. -1.
         21    1    1    2  504  503 -0.10557964147E+02  0.65238456131E+02  0.14708952886E+03  0.16125401163E+03  0.00000000000E+00 0. -1.
         21    1    1    2  505  501 -0.14368447874E+02 -0.17041999296E+03  0.18124798971E+03  0.24919923770E+03  0.00000000000E+00 0. -1.
          1    1    1    2  501    0  0.53107670758E+02  0.77718606540E+02  0.72804076840E+03  0.73410078801E+03  0.00000000000E+00 0. -1.
<scales pt_clust_3="39.34966" pt_clust_4="71.26493" pt_clust_5="14000.00000" pt_clust_6="140.97671"></scales>
<clustering>
<clus scale="   39.350">  2  3  1 -1</clus>
<clus scale="   71.265">  1  4  2 -1</clus>
<clus scale="  140.977">  1  6  2 -1</clus>
<clus scale="   39.350">  2  3  1 -1</clus>
</clustering>
</event>
<event>
 6    0  0.1622933E+002  0.1163457E+03  0.7546771E-02  0.1249250E+00
          1   -1    0    0  503    0 -0.00000000000E+00  0.00000000000E+00  0.15929743588E+04  0.15929743588E+04  0.00000000000E+00 0. -1.
         21   -1    0    0  505  502  0.00000000000E+00 -0.00000000000E+00 -0.16815076043E+03  0.16815076043E+03  0.00000000000E+00 0.  1.
         21    1    1    2  503  504  0.42944319546E+02  0.56586559803E+01  0.10010612595E+03  0.10907553081E+03  0.00000000000E+00 0. -1.
         21    1    1    2  504  502 -0.37416843276E+02 -0.23414542423E+02 -0.14344375909E+03  0.15008122127E+03  0.00000000000E+00 0.  1.
         21    1    1    2  505  501 -0.90545502087E+02  0.50434100858E+02  0.15997392661E+03  0.19061412244E+03  0.00000000000E+00 0. -1.
          1    1    1    2  501    0  0.85018025817E+02 -0.32678214415E+02  0.13081873049E+04  0.13113542447E+04  0.00000000000E+00 0. -1.
<scales pt_clust_3="43.31553" pt_clust_4="44.05126" pt_clust_5="14000.00000" pt_clust_6="116.34569"></scales>
<clustering>
<clus scale="   43.316">  1  3  2 -1</clus>
<clus scale="   44.051">  2  4  1 -1</clus>
<clus scale="  116.346">  1  6  2 -1</clus>
<clus scale="   44.051">  2  3  1 -1</clus>
</clustering>
</event>
<event>
 6    0  0.1622933E+002  0.2616232E+03  0.7546771E-02  0.1106172E+00
          2   -1    0    0  503    0 -0.00000000000E+00  0.00000000000E+00  0.39972388833E+04  0.39972388833E+04  0.00000000000E+00 0. -1.
         21   -1    0    0  504  502  0.00000000000E+00 -0.00000000000E+00 -0.28769768479E+02  0.28769768479E+02  0.00000000000E+00 0. -1.
         21    1    1    2  503  505  0.68778340813E+02  0.51395912941E+02  0.12018956740E+04  0.12049585932E+04  0.00000000000E+00 0.  1.
         21    1    1    2  504  501 -0.79301663791E+01 -0.35799281413E+02  0.24760381703E+03  0.25030406768E+03  0.00000000000E+00 0. -1.
         21    1    1    2  505  502  0.20170019678E+03  0.83471883770E+02  0.81037168599E+03  0.83925728725E+03  0.00000000000E+00 0. -1.
          2    1    1    2  501    0 -0.26254837121E+03 -0.99068515297E+02  0.17085979378E+04  0.17314887037E+04  0.00000000000E+00 0. -1.
<scales pt_clust_3="85.86035" pt_clust_4="35.10113" pt_clust_5="242.93496" pt_clust_6="35.10113"></scales>
<clustering>
<clus scale="   35.101">  4  6 -1 -1</clus>
<clus scale="   85.860">  1  3  2 -1</clus>
<clus scale="  242.935">  2  5  1 -1</clus>
<clus scale="  242.935">  2  3  1 -1</clus>
</clustering>
</event>
<event>
 6    0  0.1622933E+002  0.2275788E+03  0.7546771E-02  0.1128356E+00
          2   -1    0    0  503    0 -0.00000000000E+00  0.00000000000E+00  0.10853931365E+04  0.10853931365E+04  0.00000000000E+00 0.  1.
         21   -1    0    0  504  502  0.00000000000E+00 -0.00000000000E+00 -0.23353534995E+03  0.23353534995E+03  0.00000000000E+00 0.  1.
         21    1    1    2  503  505 -0.88144564093E+01 -0.57803314452E+02  0.35347357897E+03  0.35827711179E+03  0.00000000000E+00 0.  1.
         21    1    1    2  504  501 -0.98168102466E+02 -0.28027351261E+02  0.27936665755E+03  0.29743610761E+03  0.00000000000E+00 0.  1.
         21    1    1    2  505  502  0.18542506959E+03  0.12969339660E+03 -0.15777371352E+03  0.27585390741E+03  0.00000000000E+00 0.  1.
          2    1    1    2  501    0 -0.78442510714E+02 -0.43862730886E+02  0.37679126354E+03  0.38736135962E+03  0.00000000000E+00 0.  1.
<scales pt_clust_3="58.47151" pt_clust_4="42.42810" pt_clust_5="223.04093" pt_clust_6="42.42810"></scales>
<clustering>
<clus scale="   42.428">  4  6 -1 -1</clus>
<clus scale="   58.472">  1  3  2 -1</clus>
<clus scale="  223.041">  2  5  1 -1</clus>
<clus scale="  223.041">  2  3  1 -1</clus>
</clustering>
</event>
<event>
 6    0  0.1622933E+002  0.8797024E+02  0.7546771E-02  0.1307843E+00
         21   -1    0    0  501  502  0.00000000000E+00  0.00000000000E+00  0.12941980204E+03  0.12941980204E+03  0.00000000000E+00 0. -1.
          4   -1    0    0  503    0 -0.00000000000E+00 -0.00000000000E+00 -0.42599675844E+03  0.42599675844E+03  0.00000000000E+00 0.  1.
         21    1    1    2  503  504  0.46115014010E+02 -0.39519322315E+02 -0.62692236358E+02  0.87285095251E+02  0.00000000000E+00 0.  1.
         21    1    1    2  504  505 -0.30797432733E+02 -0.39119650233E+02 -0.16000770028E+02  0.52295827164E+02  0.00000000000E+00 0. -1.
         21    1    1    2  505  502  0.25978249525E+02 -0.30514550526E+02  0.83514296135E+02  0.92631770473E+02  0.00000000000E+00 0. -1.
          4    1    1    2  501    0 -0.41295830802E+02  0.10915352307E+03 -0.30139824615E+03  0.32320386759E+03  0.00000000000E+00 0.  1.
<scales pt_clust_3="87.97024" pt_clust_4="55.98011" pt_clust_5="40.07502" pt_clust_6="14000.00000"></scales>
<clustering>
<clus scale="   40.075">  1  5  2 -1</clus>
<clus scale="   55.980">  1  4  2 -1</clus>
<clus scale="   87.970">  1  3  2 -1</clus>
<clus scale="   40.075">  1  3  2 -1</clus>
</clustering>
</event>
<event>
 6    0  0.1622933E+002  0.2062498E+03  0.7546771E-02  0.1144571E+00
          2   -1    0    0  502    0 -0.00000000000E+00  0.00000000000E+00  0.27159830997E+04  0.27159830997E+04  0.00000000000E+00 0. -1.
         21   -1    0    0  503  502  0.00000000000E+00 -0.00000000000E+00 -0.75954342781E+02  0.75954342781E+02  0.00000000000E+00 0. -1.
         21    1    1    2  503  505 -0.39407283357E+02 -0.25700638244E+02 -0.32299566616E+02  0.57067668529E+02  0.00000000000E+00 0. -1.
         21    1    1    2  504  501  0.10114349490E+03  0.27104031355E+02  0.11787814086E+04  0.11834231045E+04  0.00000000000E+00 0. -1.
         21    1    1    2  505  504 -0.14691122619E+03 -0.68192572945E+02  0.21938494923E+03  0.27269560197E+03  0.00000000000E+00 0. -1.
          2    1    1    2  501    0  0.85175014648E+02  0.66789179834E+02  0.12741619658E+04  0.12787510675E+04  0.00000000000E+00 0. -1.
<scales pt_clust_3="47.04739" pt_clust_4="42.18992" pt_clust_5="201.74003" pt_clust_6="42.18992"></scales>
<clustering>
<clus scale="   42.190">  4  6 -1 -1</clus>
<clus scale="   47.047">  2  3  1 -1</clus>
<clus scale="  201.740">  2  5  1 -1</clus>
<clus scale="   47.047">  2  3  1 -1</clus>
</clustering>
</event>
<event>
 6    0  0.1622933E+002  0.9270895E+02  0.7546771E-02  0.1296421E+00
         21   -1    0    0  501  502  0.00000000000E+00  0.00000000000E+00  0.81124733125E+02  0.81124733125E+02  0.00000000000E+00 0. -1.
          1   -1    0    0  503    0 -0.00000000000E+00 -0.00000000000E+00 -0.27885536770E+04  0.27885536770E+04  0.00000000000E+00 0.  1.
         21    1    1    2  503  504  0.13663464995E+01  0.36974193508E+02 -0.29360573767E+03  0.29592784101E+03  0.00000000000E+00 0. -1.
         21    1    1    2  504  505  0.61090475202E+02 -0.41245635530E+02 -0.62268416436E+03  0.62703175132E+03  0.00000000000E+00 0.  1.
         21    1    1    2  505  502  0.90960398361E+02  0.12254744548E+02  0.46348153574E+02  0.10282083531E+03  0.00000000000E+00 0. -1.
          1    1    1    2  501    0 -0.15341722006E+03 -0.79833025261E+01 -0.18374871954E+04  0.18438979825E+04  0.00000000000E+00 0.  1.
<scales pt_clust_3="36.99943" pt_clust_4="69.25885" pt_clust_5="92.70895" pt_clust_6="14000.00000"></scales>
<clustering>
<clus scale="   36.999">  2  3  1 -1</clus>
<clus scale="   69.259">  2  4  1 -1</clus>
<clus scale="   92.709">  1  5  2 -1</clus>
<clus scale="   92.709">  1  3  2 -1</clus>
</clustering>
</event>
<event>
 6    0  0.1622933E+002  0.7193701E+02  0.7546771E-02  0.1353627E+00
         -3   -1    0    0    0  501 -0.00000000000E+00  0.00000000000E+00  0.73588759699E+03  0.73588759699E+03  0.00000000000E+00 0.  1.
         21   -1    0    0  505  502  0.00000000000E+00 -0.00000000000E+00 -0.76654368022E+03  0.76654368022E+03  0.00000000000E+00 0. -1.
         21    1    1    2  503  501  0.44613087938E+02 -0.84522854206E+02  0.24978508418E+02  0.98784444025E+02  0.00000000000E+00 0.  1.
         21    1    1    2  504  502 -0.44393155938E+02  0.46394323798E+02  0.12643943197E+03  0.14181013903E+03  0.00000000000E+00 0. -1.
         21    1    1    2  505  503  0.57823558571E+02 -0.28414507295E+01 -0.71844855876E+03  0.72077733687E+03  0.00000000000E+00 0. -1.
         -3    1    1    2    0  504 -0.58043490571E+02  0.40969981138E+02  0.53637453514E+03  0.54105935728E+03  0.00000000000E+00 0.  1.
<scales pt_clust_3="14000.00000" pt_clust_4="57.69887" pt_clust_5="57.89333" pt_clust_6="71.93701"></scales>
<clustering>
<clus scale="   57.893">  2  5  1 -1</clus>
<clus scale="   57.699">  2  4  1 -1</clus>
<clus scale="   71.937">  1  6  2 -1</clus>
<clus scale="   57.893">  2  3  1 -1</clus>
</clustering>
</event>
<event>
 6    0  0.1622933E+002  0.1594425E+03  0.7546771E-02  0.1189328E+00
         21   -1    0    0  501  502  0.00000000000E+00  0.00000000000E+00  0.72979273913E+03  0.72979273913E+03  0.00000000000E+00 0.  1.
          1   -1    0    0  504    0 -0.00000000000E+00 -0.00000000000E+00 -0.34507760391E+03  0.34507760391E+03  0.00000000000E+00 0.  1.
         21    1    1    2  503  505  0.66786762939E+01 -0.47925613915E+02  0.55440680463E+01  0.48705296188E+02  0.00000000000E+00 0.  1.
         21    1    1    2  504  503  0.42150907058E+02 -0.12691417078E+02 -0.23379465707E+01  0.44082162236E+02  0.00000000000E+00 0. -1.
         21    1    1    2  505  502  0.15505081941E+03 -0.27861913906E+02  0.62959392999E+03  0.64900351272E+03  0.00000000000E+00 0.  1.
          1    1    1    2  501    0 -0.20388040276E+03  0.88478944900E+02 -0.24808491624E+03  0.33307937190E+03  0.00000000000E+00 0.  1.
<scales pt_clust_3="49.69400" pt_clust_4="44.02012" pt_clust_5="14000.00000" pt_clust_6="159.44248"></scales>
<clustering>
<clus scale="   44.020">  2  4  1 -1</clus>
<clus scale="   49.694">  2  3  1 -1</clus>
<clus scale="  159.442">  2  6  1 -1</clus>
<clus scale="  159.442">  1  3  2 -1</clus>
</clustering>
</event>
<event>
 6    0  0.1622933E+002  0.9991459E+02  0.7546771E-02  0.1280476E+00
         21   -1    0    0  503  502  0.00000000000E+00  0.00000000000E+00  0.14587381257E+03  0.14587381257E+03  0.00000000000E+00 0. -1.
          2   -1    0    0  504    0 -0.00000000000E+00 -0.00000000000E+00 -0.20129998407E+04  0.20129998407E+04  0.00000000000E+00 0. -1.
         21    1    1    2  503  505  0.89676166857E+02 -0.47870903170E+02  0.11809436553E+03  0.15581950277E+03  0.00000000000E+00 0. -1.
         21    1    1    2  504  502 -0.30302860103E+02  0.88482634854E+02 -0.32325738202E+03  0.33651563862E+03  0.00000000000E+00 0. -1.
         21    1    1    2  505  501 -0.46425562255E+02  0.11443053035E+01 -0.27551520953E+03  0.27940163376E+03  0.00000000000E+00 0. -1.
          2    1    1    2  501    0 -0.12947744499E+02 -0.41756036988E+02 -0.13864478021E+04  0.13871368782E+04  0.00000000000E+00 0. -1.
<scales pt_clust_3="14000.00000" pt_clust_4="99.91459" pt_clust_5="54.97434" pt_clust_6="43.71740"></scales>
<clustering>
<clus scale="   43.717">  2  6  1 -1</clus>
<clus scale="   54.974">  2  5  1 -1</clus>
<clus scale="   99.915">  2  4  1 -1</clus>
<clus scale="   99.915">  1  3  2 -1</clus>
</clustering>
</event>
<event>
 6    0  0.1622933E+002  0.1050683E+03  0.7546771E-02  0.1269985E+00
         -3   -1    0    0    0  501 -0.00000000000E+00  0.00000000000E+00  0.66946167430E+02  0.66946167430E+02  0.00000000000E+00 0. -1.
         21   -1    0    0  503  502  0.00000000000E+00 -0.00000000000E+00 -0.15978581078E+04  0.15978581078E+04  0.00000000000E+00 0. -1.
         21    1    1    2  503  504 -0.24187515803E+02 -0.29166014205E+02  0.34357574466E+02  0.51148169357E+02  0.00000000000E+00 0. -1.
         21    1    1    2  504  501 -0.46138042318E+00 -0.37562820502E+02 -0.66896881663E+02  0.76722689813E+02  0.00000000000E+00 0.  1.
         21    1    1    2  505  502 -0.31526495595E+02  0.10672431036E+03 -0.14461664839E+04  0.14504418283E+04  0.00000000000E+00 0. -1.
         -3    1    1    2    0  505  0.56175391821E+02 -0.39995475652E+02 -0.52206149285E+02  0.86491587695E+02  0.00000000000E+00 0. -1.
<scales pt_clust_3="60.26165" pt_clust_4="37.56565" pt_clust_5="105.06826" pt_clust_6="14000.00000"></scales>
<clustering>
<clus scale="   37.566">  1  4  2 -1</clus>
<clus scale="   60.262">  1  3  2 -1</clus>
<clus scale="  105.068">  2  5  1 -1</clus>
<clus scale="  105.068">  2  3  1 -1</clus>
</clustering>
</event>
<event>
 6    0  0.1622933E+002  0.1463156E+03  0.7546771E-02  0.1205075E+00
         -1   -1    0    0    0  501 -0.00000000000E+00  0.00000000000E+00  0.38557114151E+02  0.38557114151E+02  0.00000000000E+00 0.  1.
         21   -1    0    0  504  502  0.00000000000E+00 -0.00000000000E+00 -0.13127225775E+04  0.13127225775E+04  0.00000000000E+00 0.  1.
         21    1    1    2  503  502  0.15117644707E+02 -0.54695688883E+02 -0.49235459029E+03  0.49561396685E+03  0.00000000000E+00 0.  1.
         21    1    1    2  504  505  0.12069214959E+02  0.11530412903E+03 -0.34780146392E+03  0.36661501119E+03  0.00000000000E+00 0.  1.
         21    1    1    2  505  501 -0.19348438323E+02  0.35437563754E+02  0.39933420977E+01  0.40572524834E+02  0.00000000000E+00 0.  1.
         -1    1    1    2    0  503 -0.78384213430E+01 -0.96046003904E+02 -0.43800275121E+03  0.44847818874E+03  0.00000000000E+00 0.  1.
<scales pt_clust_3="42.75243" pt_clust_4="135.79058" pt_clust_5="40.37552" pt_clust_6="42.75243"></scales>
<clustering>
<clus scale="   40.376">  1  5  2 -1</clus>
<clus scale="   42.752">  3  6 -1 -1</clus>
<clus scale="  135.791">  1  4  2 -1</clus>
<clus scale="  146.316">  2  3  1 -1</clus>
</clustering>
</event>
<event>
 6    0  0.1622933E+002  0.2107090E+03  0.7546771E-02  0.1141006E+00
         21   -1    0    0  503  502  0.00000000000E+00  0.00000000000E+00  0.65541650418E+03  0.65541650418E+03  0.00000000000E+00 0. -1.
         -3   -1    0    0    0  501 -0.00000000000E+00 -0.00000000000E+00 -0.45143455348E+03  0.45143455348E+03  0.00000000000E+00 0.  1.
         21    1    1    2  503  505 -0.17469070666E+03 -0.10228541346E+03  0.53320585338E+03  0.57033992573E+03  0.00000000000E+00 0. -1.
         21    1    1    2  504  502 -0.20571923673E+02  0.27386031690E+02  0.29431283790E+02  0.45159708158E+02  0.00000000000E+00 0.  1.
         21    1    1    2  505  501  0.30729833715E+01 -0.76919635595E+02 -0.15404927465E+03  0.17221281191E+03  0.00000000000E+00 0. -1.
         -3    1    1    2    0  504  0.19218964696E+03  0.15181901737E+03 -0.20460591182E+03  0.31913861187E+03  0.00000000000E+00 0.  1.
<scales pt_clust_3="14000.00000" pt_clust_4="34.25199" pt_clust_5="76.56741" pt_clust_6="210.70903"></scales>
<clustering>
<clus scale="   34.252">  1  4  2 -1</clus>
<clus scale="   76.567">  2  5  1 -1</clus>
<clus scale="  210.709">  2  6  1 -1</clus>
<clus scale="   34.252">  1  3  2 -1</clus>
</clustering>
</event>
<event>
 6    0  0.1622933E+002  0.2675002E+03  0.7546771E-02  0.1102719E+00
          1   -1    0    0  505    0 -0.00000000000E+00  0.00000000000E+00  0.24482648200E+04  0.24482648200E+04  0.00000000000E+00 0. -1.
         21   -1    0    0  501  502  0.00000000000E+00 -0.00000000000E+00 -0.39127676527E+03  0.39127676527E+03  0.00000000000E+00 0. -1.
         21    1    1    2  503  502 -0.95947545889E+02  0.23554739316E+01 -0.27228470334E+03  0.28870476181E+03  0.00000000000E+00 0. -1.
         21    1    1    2  504  503 -0.21742523948E+03  0.13716191090E+03  0.13081918803E+03  0.28844546195E+03  0.00000000000E+00 0. -1.
         21    1    1    2  505  504  0.14836168753E+03  0.26377892495E+02  0.17508104047E+04  0.17572831465E+04  0.00000000000E+00 0. -1.
          1    1    1    2  501    0  0.16501109784E+03 -0.16589527732E+03  0.44764316525E+03  0.50510821498E+03  0.00000000000E+00 0. -1.
<scales pt_clust_3="95.97645" pt_clust_4="14000.00000" pt_clust_5="147.94175" pt_clust_6="267.50018"></scales>
<clustering>
<clus scale="   95.976">  2  3  1 -1</clus>
<clus scale="  147.942">  1  5  2 -1</clus>
<clus scale="  267.500">  1  6  2 -1</clus>
<clus scale="   95.976">  2  3  1 -1</clus>
</clustering>
</event>
<event>
 6    0  0.1622933E+002  0.9539370E+02  0.7546771E-02  0.1290292E+00
         21   -1    0    0  503  502  0.00000000000E+00  0.00000000000E+00  0.55657993223E+02  0.55657993223E+02  0.00000000000E+00 0.  1.
          2   -1    0    0  505    0 -0.00000000000E+00 -0.00000000000E+00 -0.17648264853E+04  0.17648264853E+04  0.00000000000E+00 0.  1.
         21    1    1    2  503  501 -0.59388222420E+02  0.84342884638E+02 -0.38161104017E+03  0.39530705677E+03  0.00000000000E+00 0.  1.
         21    1    1    2  504  502 -0.98307316812E+01 -0.96886738351E+02 -0.82105566738E+01  0.97729711933E+02  0.00000000000E+00 0.  1.
         21    1    1    2  505  504  0.12454684047E+02 -0.42633392449E+02 -0.18169499299E+03  0.18704490312E+03  0.00000000000E+00 0.  1.
          2    1    1    2  501    0  0.56764270055E+02  0.55177246162E+02 -0.11376519023E+04  0.11404028067E+04  0.00000000000E+00 0.  1.
<scales pt_clust_3="14000.00000" pt_clust_4="95.39370" pt_clust_5="44.41537" pt_clust_6="70.14033"></scales>
<clustering>
<clus scale="   44.415">  2  5  1 -1</clus>
<clus scale="   70.140">  2  6  1 -1</clus>
<clus scale="   95.394">  1  4  2 -1</clus>
<clus scale="   95.394">  1  3  2 -1</clus>
</clustering>
</event>
<event>
 6    0  0.1622933E+002  0.8250436E+02  0.7546771E-02  0.1322091E+00
         21   -1    0    0  503  502  0.00000000000E+00  0.00000000000E+00  0.16257040079E+03  0.16257040079E+03  0.00000000000E+00 0.  1.
          4   -1    0    0  505    0 -0.00000000000E+00 -0.00000000000E+00 -0.51642669139E+03  0.51642669139E+03  0.00000000000E+00 0.  1.
         21    1    1    2  503  501  0.10918977659E+03 -0.36867545515E+02 -0.10892734060E+03  0.15857739043E+03  0.00000000000E+00 0.  1.
         21    1    1    2  504  502 -0.64053325212E+02  0.47698575849E+02  0.11252474348E+03  0.13798478360E+03  0.00000000000E+00 0.  1.
         21    1    1    2  505  504 -0.32395415681E+02  0.27416569557E+02 -0.28733183728E+02  0.51251605737E+02  0.00000000000E+00 0.  1.
          4    1    1    2  501    0 -0.12741035695E+02 -0.38247599891E+02 -0.32872050976E+03  0.33118331242E+03  0.00000000000E+00 0.  1.
<scales pt_clust_3="82.50436" pt_clust_4="14000.00000" pt_clust_5="40.03924" pt_clust_6="40.31393"></scales>
<clustering>
<clus scale="   40.314">  2  6  1 -1</clus>
<clus scale="   40.039">  2  5  1 -1</clus>
<clus scale="   82.504">  2  3  1 -1</clus>
<clus scale="   82.504">  1  3  2 -1</clus>
</clustering>
</event>
<event>
 6    0  0.1622933E+002  0.8496393E+02  0.7546771E-02  0.1315527E+00
          2   -1    0    0  504    0 -0.00000000000E+00  0.00000000000E+00  0.14280280708E+03  0.14280280708E+03  0.00000000000E+00 0. -1.
         21   -1    0    0  501  502  0.00000000000E+00 -0.00000000000E+00 -0.89699170555E+03  0.89699170555E+03  0.00000000000E+00 0.  1.
         21    1    1    2  503  505  0.69694444697E+02  0.40966796172E+02 -0.46723446809E+02  0.93373842654E+02  0.00000000000E+00 0.  1.
         21    1    1    2  504  503 -0.12368735516E+02 -0.39489793127E+02  0.54121528012E+01  0.41733928373E+02  0.00000000000E+00 0. -1.
         21    1    1    2  505  502 -0.26456976838E+01 -0.84990108820E+02 -0.77985519219E+03  0.78447717564E+03  0.00000000000E+00 0.  1.
          2    1    1    2  501    0 -0.54680011497E+02  0.83513105776E+02  0.66977587720E+02  0.12020956597E+03  0.00000000000E+00 0. -1.
<scales pt_clust_3="75.03914" pt_clust_4="41.38151" pt_clust_5="14000.00000" pt_clust_6="84.96393"></scales>
<clustering>
<clus scale="   41.382">  1  4  2 -1</clus>
<clus scale="   75.039">  1  3  2 -1</clus>
<clus scale="   84.964">  1  6  2 -1</clus>
<clus scale="   84.964">  2  3  1 -1</clus>
</clustering>
</event>
<event>
 6    0  0.1622933E+002  0.1132161E+03  0.7546771E-02  0.1254727E+00
         21   -1    0    0  505  502  0.00000000000E+00  0.00000000000E+00  0.19868845109E+03  0.19868845109E+03  0.00000000000E+00 0.  1.
          1   -1    0    0  504    0 -0.00000000000E+00 -0.00000000000E+00 -0.88583698021E+03  0.88583698021E+03  0.00000000000E+00 0.  1.
         21    1    1    2  503  502  0.52806965921E+01 -0.87242283313E+02 -0.86129602098E+02  0.12270863911E+03  0.00000000000E+00 0.  1.
         21    1    1    2  504  503 -0.83441689225E+01 -0.30242026150E+02 -0.26324825736E+03  0.26511101506E+03  0.00000000000E+00 0. -1.
         21    1    1    2  505  501 -0.10232816526E+02 -0.28923981898E+02  0.16760088400E+03  0.17038592541E+03  0.00000000000E+00 0.  1.
          1    1    1    2  501    0  0.13296288857E+02  0.14640829136E+03 -0.50537155365E+03  0.52631985172E+03  0.00000000000E+00 0.  1.
<scales pt_clust_3="113.21614" pt_clust_4="32.33200" pt_clust_5="30.68073" pt_clust_6="14000.00000"></scales>
<clustering>
<clus scale="   30.681">  1  5  2 -1</clus>
<clus scale="   32.332">  2  4  1 -1</clus>
<clus scale="  113.216">  1  3  2 -1</clus>
<clus scale="   30.681">  1  3  2 -1</clus>
</clustering>
</event>
<event>
 6    0  0.1622933E+002  0.1369008E+03  0.7546771E-02  0.1217561E+00
         21   -1    0    0  505  502  0.00000000000E+00  0.00000000000E+00  0.87868486175E+02  0.87868486175E+02  0.00000000000E+00 0. -1.
          2   -1    0    0  503    0 -0.00000000000E+00 -0.00000000000E+00 -0.15193868777E+04  0.15193868777E+04  0.00000000000E+00 0.  1.
         21    1    1    2  503  504  0.64243510677E+02  0.10804322922E+03 -0.39775815501E+03  0.41714759729E+03  0.00000000000E+00 0. -1.
         21    1    1    2  504  502  0.13699240547E+03  0.40309451288E+02 -0.31513513508E+02  0.14623567470E+03  0.00000000000E+00 0. -1.
         21    1    1    2  505  501 -0.60519117384E+02 -0.81999198670E+02 -0.17834391777E+03  0.20540931127E+03  0.00000000000E+00 0. -1.
          2    1    1    2  501    0 -0.14071679877E+03 -0.66353481841E+02 -0.82390280524E+03  0.83846278063E+03  0.00000000000E+00 0.  1.
<scales pt_clust_3="14000.00000" pt_clust_4="93.16764" pt_clust_5="101.91385" pt_clust_6="136.90080"></scales>
<clustering>
<clus scale="  101.914">  1  5  2 -1</clus>
<clus scale="   93.168">  1  4  2 -1</clus>
<clus scale="  136.901">  2  6  1 -1</clus>
<clus scale="  101.914">  1  3  2 -1</clus>
</clustering>
</event>
<event>
 6    0  0.1622933E+002  0.1031473E+03  0.7546771E-02  0.1273813E+00
         21   -1    0    0  504  502  0.00000000000E+00  0.00000000000E+00  0.25890320787E+03  0.25890320787E+03  0.00000000000E+00 0.  1.
         -1   -1    0    0    0  501 -0.00000000000E+00 -0.00000000000E+00 -0.14609534281E+03  0.14609534281E+03  0.00000000000E+00 0.  1.
         21    1    1    2  503  502 -0.45953964019E+02 -0.89815554994E+02  0.14363325075E+03  0.17552524447E+03  0.00000000000E+00 0.  1.
         21    1    1    2  504  505 -0.53499346023E+02 -0.76948970270E+01  0.13296724580E+02  0.55661426048E+02  0.00000000000E+00 0.  1.
         21    1    1    2  505  501 -0.15814855986E+02  0.31556512555E+02 -0.10293754834E+02  0.36767982581E+02  0.00000000000E+00 0.  1.
         -1    1    1    2    0  503  0.11526816603E+03  0.65953939466E+02 -0.33828355434E+02  0.13704389757E+03  0.00000000000E+00 0.  1.
<scales pt_clust_3="103.14730" pt_clust_4="56.27721" pt_clust_5="35.29764" pt_clust_6="14000.00000"></scales>
<clustering>
<clus scale="   35.298">  2  5  1 -1</clus>
<clus scale="   56.277">  2  4  1 -1</clus>
<clus scale="  103.147">  1  3  2 -1</clus>
<clus scale="  103.147">  1  3  2 -1</clus>
</clustering>
</event>
<event>
 6    0  0.1622933E+002  0.9687604E+02  0.7546771E-02  0.1287006E+00
         21   -1    0    0  501  502  0.00000000000E+00  0.00000000000E+00  0.18190884211E+02  0.18190884211E+02  0.00000000000E+00 0. -1.
          2   -1    0    0  504    0 -0.00000000000E+00 -0.00000000000E+00 -0.13262810832E+04  0.13262810832E+04  0.00000000000E+00 0.  1.
         21    1    1    2  503  502 -0.25050671601E+02 -0.31873413506E+02 -0.71044508435E+02  0.81797144295E+02  0.00000000000E+00 0. -1.
         21    1    1    2  504  505  0.19599975607E+02 -0.37299490577E+02 -0.22258242293E+03  0.22653552931E+03  0.00000000000E+00 0.  1.
         21    1    1    2  505  503 -0.86350021324E+02 -0.11989744293E+02 -0.47509935515E+03  0.48303154909E+03  0.00000000000E+00 0. -1.
          2    1    1    2  501    0  0.91800717318E+02  0.81162648376E+02 -0.53936391250E+03  0.55310774475E+03  0.00000000000E+00 0.  1.
<scales pt_clust_3="40.53949" pt_clust_4="45.05322" pt_clust_5="96.87604" pt_clust_6="14000.00000"></scales>
<clustering>
<clus scale="   40.539">  1  3  2 -1</clus>
<clus scale="   45.053">  2  4  1 -1</clus>
<clus scale="   96.876">  2  5  1 -1</clus>
<clus scale="   40.539">  1  3  2 -1</clus>
</clustering>
</event>
<event>
 6    0  0.1622933E+002  0.1495515E+03  0.7546771E-02  0.1201025E+00
          1   -1    0    0  505    0 -0.00000000000E+00  0.00000000000E+00  0.66658399540E+03  0.66658399540E+03  0.00000000000E+00 0.  1.
         21   -1    0    0  503  502  0.00000000000E+00 -0.00000000000E+00 -0.13321767701E+04  0.13321767701E+04  0.00000000000E+00 0.  1.
         21    1    1    2  503  501 -0.35960787038E+02  0.15489693092E+02 -0.39810357877E+02  0.55838816165E+02  0.00000000000E+00 0. -1.
         21    1    1    2  504  502 -0.77555667270E+02 -0.11146187018E+03 -0.12389288143E+04  0.12463479598E+04  0.00000000000E+00 0.  1.
         21    1    1    2  505  504 -0.32821327369E+01 -0.93794994391E+02  0.10004740590E+03  0.13717782910E+03  0.00000000000E+00 0. -1.
          1    1    1    2  501    0  0.11679858704E+03  0.18976717148E+03  0.51309899150E+03  0.55939616050E+03  0.00000000000E+00 0.  1.
<scales pt_clust_3="39.15493" pt_clust_4="149.55151" pt_clust_5="93.64830" pt_clust_6="14000.00000"></scales>
<clustering>
<clus scale="   39.155">  2  3  1 -1</clus>
<clus scale="   93.648">  1  5  2 -1</clus>
<clus scale="  149.552">  2  4  1 -1</clus>
<clus scale="   39.155">  2  3  1 -1</clus>
</clustering>
</event>
<event>
 6    0  0.1622933E+002  0.1094269E+03  0.7546771E-02  0.1261635E+00
          1   -1    0    0  505    0 -0.00000000000E+00  0.00000000000E+00  0.29560297889E+04  0.29560297889E+04  0.00000000000E+00 0.  1.
         21   -1    0    0  504  502  0.00000000000E+00 -0.00000000000E+00 -0.22845221694E+03  0.22845221694E+03  0.00000000000E+00 0. -1.
         21    1    1    2  503  502 -0.13814146156E+02 -0.43803169998E+02  0.57622765587E+02  0.73688068572E+02  0.00000000000E+00 0.  1.
         21    1    1    2  504  501 -0.68041051206E+02 -0.31845012176E+02 -0.21230022872E+03  0.22520008118E+03  0.00000000000E+00 0. -1.
         21    1    1    2  505  503  0.53307275554E+02 -0.39952828443E+01  0.12613922451E+04  0.12625244646E+04  0.00000000000E+00 0.  1.
          1    1    1    2  501    0  0.28547921807E+02  0.79643465018E+02  0.16208627900E+04  0.16230693914E+04  0.00000000000E+00 0.  1.
<scales pt_clust_3="45.92982" pt_clust_4="14000.00000" pt_clust_5="53.42994" pt_clust_6="109.42688"></scales>
<clustering>
<clus scale="   45.930">  2  3  1 -1</clus>
<clus scale="   53.430">  1  5  2 -1</clus>
<clus scale="  109.427">  1  6  2 -1</clus>
<clus scale="   45.930">  2  3  1 -1</clus>
</clustering>
</event>
<event>
 6    0  0.1622933E+002  0.8799829E+02  0.7546771E-02  0.1307773E+00
         21   -1    0    0  501  502  0.00000000000E+00  0.00000000000E+00  0.33218884497E+04  0.33218884497E+04  0.00000000000E+00 0.  1.
          2   -1    0    0  505    0 -0.00000000000E+00 -0.00000000000E+00 -0.20155035349E+03  0.20155035349E+03  0.00000000000E+00 0. -1.
         21    1    1    2  503  502  0.39485230679E+02  0.18985380602E+02  0.31091816776E+04  0.31094903494E+04  0.00000000000E+00 0.  1.
         21    1    1    2  504  503 -0.54270176663E+02  0.51820980733E+02  0.84553225638E+02  0.11304828210E+03  0.00000000000E+00 0. -1.
         21    1    1    2  505  504 -0.74814635284E+02 -0.64133066472E+02  0.77442026347E+02  0.12532975430E+03  0.00000000000E+00 0. -1.
          2    1    1    2  501    0  0.89599581267E+02 -0.66732948630E+01 -0.15083883340E+03  0.17557041746E+03  0.00000000000E+00 0. -1.
<scales pt_clust_3="43.81242" pt_clust_4="70.48340" pt_clust_5="14000.00000" pt_clust_6="87.99829"></scales>
<clustering>
<clus scale="   43.812">  1  3  2 -1</clus>
<clus scale="   70.483">  1  4  2 -1</clus>
<clus scale="   87.998">  2  6  1 -1</clus>
<clus scale="   43.812">  1  3  2 -1</clus>
</clustering>
</event>
<event>
 6    0  0.1622933E+002  0.1129953E+03  0.7546771E-02  0.1255121E+00
         21   -1    0    0  505  502  0.00000000000E+00  0.00000000000E+00  0.14994853151E+03  0.14994853151E+03  0.00000000000E+00 0.  1.
          2   -1    0    0  503    0 -0.00000000000E+00 -0.00000000000E+00 -0.22752208001E+03  0.22752208001E+03  0.00000000000E+00 0. -1.
         21    1    1    2  503  502  0.10483944842E+02 -0.34837264706E+02 -0.37481142212E+02  0.52233936604E+02  0.00000000000E+00 0.  1.
         21    1    1    2  504  501  0.11328355239E+03  0.36063910451E+02 -0.37725139458E+02  0.12472752313E+03  0.00000000000E+00 0. -1.
         21    1    1    2  505  504 -0.24483964116E+02  0.41439846700E+02  0.59074155607E+02  0.76200270695E+02  0.00000000000E+00 0.  1.
          2    1    1    2  501    0 -0.99283533114E+02 -0.42666492445E+02 -0.61441422440E+02  0.12430888109E+03  0.00000000000E+00 0. -1.
<scales pt_clust_3="36.38060" pt_clust_4="14000.00000" pt_clust_5="46.47811" pt_clust_6="112.99531"></scales>
<clustering>
<clus scale="   36.381">  2  3  1 -1</clus>
<clus scale="   46.478">  1  5  2 -1</clus>
<clus scale="  112.995">  2  6  1 -1</clus>
<clus scale="   46.478">  1  3  2 -1</clus>
</clustering>
</event>
<event>
 6    0  0.1622933E+002  0.2007229E+03  0.7546771E-02  0.1149131E+00
         21   -1    0    0  505  502  0.00000000000E+00  0.00000000000E+00  0.79311808273E+03  0.79311808273E+03  0.00000000000E+00 0.  1.
         -2   -1    0    0    0  501 -0.00000000000E+00 -0.00000000000E+00 -0.27379526289E+03  0.27379526289E+03  0.00000000000E+00 0. -1.
         21    1    1    2  503  504  0.40833517018E+02 -0.79352923138E+02 -0.62146716575E+02  0.10874960645E+03  0.00000000000E+00 0.  1.
         21    1    1    2  504  501 -0.33697625938E+02 -0.98534608255E+01 -0.31177608508E+02  0.46953849218E+02  0.00000000000E+00 0.  1.
         21    1    1    2  505  503 -0.20138190159E+03  0.13671394884E+02  0.66613174486E+03  0.69604100370E+03  0.00000000000E+00 0.  1.
         -2    1    1    2    0  502  0.19424601051E+03  0.75534989080E+02 -0.53484599943E+02  0.21516888624E+03  0.00000000000E+00 0. -1.
<scales pt_clust_3="87.72156" pt_clust_4="35.10870" pt_clust_5="14000.00000" pt_clust_6="200.72290"></scales>
<clustering>
<clus scale="   35.109">  2  4  1 -1</clus>
<clus scale="   87.722">  2  3  1 -1</clus>
<clus scale="  200.723">  2  6  1 -1</clus>
<clus scale="  200.723">  1  3  2 -1</clus>
</clustering>
</event>
<event>
 6    0  0.1622933E+002  0.1009378E+03  0.7546771E-02  0.1278336E+00
          1   -1    0    0  503    0 -0.00000000000E+00  0.00000000000E+00  0.16134544010E+04  0.16134544010E+04  0.00000000000E+00 0.  1.
         21   -1    0    0  505  502  0.00000000000E+00 -0.00000000000E+00 -0.26469505677E+02  0.26469505677E+02  0.00000000000E+00 0. -1.
         21    1    1    2  503  504  0.12630730625E+03  0.40953000275E+02  0.11920709565E+04  0.11994431413E+04  0.00000000000E+00 0.  1.
         21    1    1    2  504  502 -0.32292341658E+02 -0.18396536475E+01  0.95452927104E+02  0.10078413044E+03  0.00000000000E+00 0. -1.
         21    1    1    2  505  501 -0.65885549067E+02 -0.25697164243E+02  0.46082731848E+02  0.84408933180E+02  0.00000000000E+00 0. -1.
          1    1    1    2  501    0 -0.28129415526E+02 -0.13416182384E+02  0.25337827983E+03  0.25528770173E+03  0.00000000000E+00 0.  1.
<scales pt_clust_3="14000.00000" pt_clust_4="34.43777" pt_clust_5="100.93778" pt_clust_6="31.16501"></scales>
<clustering>
<clus scale="   31.165">  1  6  2 -1</clus>
<clus scale="   34.438">  2  4  1 -1</clus>
<clus scale="  100.938">  2  5  1 -1</clus>
<clus scale="   34.438">  2  3  1 -1</clus>
</clustering>
</event>
<event>
 6    0  0.1622933E+002  0.8566211E+02  0.7546771E-02  0.1313710E+00
         21   -1    0    0  503  502  0.00000000000E+00  0.00000000000E+00  0.18164227115E+02  0.18164227115E+02  0.00000000000E+00 0.  1.
          1   -1    0    0  505    0 -0.00000000000E+00 -0.00000000000E+00 -0.10872795679E+04  0.10872795679E+04  0.00000000000E+00 0. -1.
         21    1    1    2  503  501  0.16676166360E+02 -0.76959244768E+02 -0.34626292380E+03  0.35510397390E+03  0.00000000000E+00 0. -1.
         21    1    1    2  504  502  0.47650726380E+02  0.89372863208E+02 -0.28668854501E+03  0.30405332138E+03  0.00000000000E+00 0.  1.
         21    1    1    2  505  504 -0.23452024122E+02  0.28279093480E+02 -0.17970300104E+03  0.18341993661E+03  0.00000000000E+00 0.  1.
          1    1    1    2  501    0 -0.40874868618E+02 -0.40692711919E+02 -0.25646087088E+03  0.26286656307E+03  0.00000000000E+00 0. -1.
<scales pt_clust_3="14000.00000" pt_clust_4="85.66211" pt_clust_5="36.73833" pt_clust_6="57.68370"></scales>
<clustering>
<clus scale="   36.738">  2  5  1 -1</clus>
<clus scale="   57.684">  2  6  1 -1</clus>
<clus scale="   85.662">  1  4  2 -1</clus>
<clus scale="   85.662">  1  3  2 -1</clus>
</clustering>
</event>
<event>
 6    0  0.1622933E+002  0.3242414E+03  0.7546771E-02  0.1073714E+00
         21   -1    0    0  503  502  0.00000000000E+00  0.00000000000E+00  0.77236397657E+03  0.77236397657E+03  0.00000000000E+00 0. -1.
          2   -1    0    0  504    0 -0.00000000000E+00 -0.00000000000E+00 -0.33497863093E+03  0.33497863093E+03  0.00000000000E+00 0. -1.
         21    1    1    2  503  501  0.19663931531E+03 -0.26791519109E+03  0.54018948998E+03  0.63423201987E+03  0.00000000000E+00 0. -1.
         21    1    1    2  504  505  0.25734359815E+02  0.98267821987E+02  0.27753389268E+02  0.10530466623E+03  0.00000000000E+00 0.  1.
         21    1    1    2  505  502  0.34733800782E+02  0.10021859987E+02  0.44575926923E+01  0.36424507231E+02  0.00000000000E+00 0. -1.
          2    1    1    2  501    0 -0.25710747591E+03  0.15962550912E+03 -0.13501512630E+03  0.33138141418E+03  0.00000000000E+00 0. -1.
<scales pt_clust_3="324.24144" pt_clust_4="138.02033" pt_clust_5="36.12270" pt_clust_6="14000.00000"></scales>
<clustering>
<clus scale="   36.123">  4  5 -1 -1</clus>
<clus scale="  138.020">  2  4  1 -1</clus>
<clus scale="  324.241">  1  3  2 -1</clus>
<clus scale="  324.241">  1  3  2 -1</clus>
</clustering>
</event>
<event>
 6    0  0.1622933E+002  0.3375529E+03  0.7546771E-02  0.1067843E+00
         21   -1    0    0  505  502  0.00000000000E+00  0.00000000000E+00  0.10650534757E+04  0.10650534757E+04  0.00000000000E+00 0.  1.
          2   -1    0    0  504    0 -0.00000000000E+00 -0.00000000000E+00 -0.79255644072E+03  0.79255644072E+03  0.00000000000E+00 0.  1.
         21    1    1    2  503  501 -0.26028287625E+03 -0.12445968844E+03  0.71950863327E+02  0.29734544968E+03  0.00000000000E+00 0. -1.
         21    1    1    2  504  502  0.39568686097E+02 -0.40081676970E+00  0.70789653743E+01  0.40198921930E+02  0.00000000000E+00 0. -1.
         21    1    1    2  505  503 -0.78475890480E+02 -0.57116426800E+02  0.80743671924E+03  0.81324953561E+03  0.00000000000E+00 0.  1.
          2    1    1    2  501    0  0.29919008063E+03  0.18197693201E+03 -0.61396951291E+03  0.70681600924E+03  0.00000000000E+00 0.  1.
<scales pt_clust_3="14000.00000" pt_clust_4="39.57072" pt_clust_5="74.64611" pt_clust_6="337.55291"></scales>
<clustering>
<clus scale="   39.571">  1  4  2 -1</clus>
<clus scale="   74.646">  1  5  2 -1</clus>
<clus scale="  337.553">  2  6  1 -1</clus>
<clus scale="   39.571">  1  3  2 -1</clus>
</clustering>
</event>
<event>
 6    0  0.1622933E+002  0.3290536E+03  0.7546771E-02  0.1071556E+00
          1   -1    0    0  504    0 -0.00000000000E+00  0.00000000000E+00  0.28157930863E+03  0.28157930863E+03  0.00000000000E+00 0.  1.
         21   -1    0    0  501  502  0.00000000000E+00 -0.00000000000E+00 -0.19608742885E+04  0.19608742885E+04  0.00000000000E+00 0.  1.
         21    1    1    2  503  502 -0.95383921594E+01 -0.55506435674E+02 -0.15761516173E+04  0.15771575273E+04  0.00000000000E+00 0.  1.
         21    1    1    2  504  505 -0.27060158725E+03  0.67953488751E+02 -0.12401951248E+03  0.30532562148E+03  0.00000000000E+00 0.  1.
         21    1    1    2  505  503 -0.33037945334E+02 -0.30276020983E+02 -0.56441926021E+01  0.45166361250E+02  0.00000000000E+00 0.  1.
          1    1    1    2  501    0  0.31317792475E+03  0.17828967905E+02  0.26520342534E+02  0.31480408703E+03  0.00000000000E+00 0.  1.
<scales pt_clust_3="56.32003" pt_clust_4="44.65542" pt_clust_5="44.65542" pt_clust_6="309.61403"></scales>
<clustering>
<clus scale="   44.655">  4  5 -1 -1</clus>
<clus scale="   56.320">  2  3  1 -1</clus>
<clus scale="  309.614">  1  6  2 -1</clus>
<clus scale="   56.320">  2  3  1 -1</clus>
</clustering>
</event>
<event>
 6    0  0.1622933E+002  0.1302791E+03  0.7546771E-02  0.1227042E+00
         21   -1    0    0  504  502  0.00000000000E+00  0.00000000000E+00  0.54654026236E+02  0.54654026236E+02  0.00000000000E+00 0. -1.
          3   -1    0    0  505    0 -0.00000000000E+00 -0.00000000000E+00 -0.10406270548E+04  0.10406270548E+04  0.00000000000E+00 0. -1.
         21    1    1    2  503  502 -0.73473552913E+01  0.10059472712E+03 -0.22872775648E+03  0.24997933782E+03  0.00000000000E+00 0. -1.
         21    1    1    2  504  501  0.38780608026E+02  0.16690854105E+02 -0.10573309103E+02  0.43523729562E+02  0.00000000000E+00 0. -1.
         21    1    1    2  505  503 -0.81871129543E+02  0.43146410869E+02 -0.46169589341E+03  0.47087959461E+03  0.00000000000E+00 0. -1.
          3    1    1    2  501    0  0.50437876808E+02 -0.16043199209E+03 -0.28497606961E+03  0.33089841908E+03  0.00000000000E+00 0. -1.
<scales pt_clust_3="14000.00000" pt_clust_4="42.21990" pt_clust_5="89.44147" pt_clust_6="130.27905"></scales>
<clustering>
<clus scale="   42.220">  1  4  2 -1</clus>
<clus scale="   89.441">  2  5  1 -1</clus>
<clus scale="  130.279">  2  6  1 -1</clus>
<clus scale="   42.220">  1  3  2 -1</clus>
</clustering>
</event>
<event>
 6    0  0.1622933E+002  0.7875749E+02  0.7546771E-02  0.1332615E+00
          2   -1    0    0  504    0 -0.00000000000E+00  0.00000000000E+00  0.17902153938E+04  0.17902153938E+04  0.00000000000E+00 0.  1.
         21   -1    0    0  503  502  0.00000000000E+00 -0.00000000000E+00 -0.26481768899E+03  0.26481768899E+03  0.00000000000E+00 0. -1.
         21    1    1    2  503  501 -0.32102863669E+02  0.50864080900E+02 -0.23959859171E+03  0.24703285962E+03  0.00000000000E+00 0. -1.
         21    1    1    2  504  505  0.81218152405E+02  0.40860102389E+01  0.28943262694E+03  0.30063986645E+03  0.00000000000E+00 0. -1.
         21    1    1    2  505  502  0.26797146180E+02 -0.76728142566E+02  0.97048277833E+02  0.12658460860E+03  0.00000000000E+00 0. -1.
          2    1    1    2  501    0 -0.75912434916E+02  0.21778051427E+02  0.13785153917E+04  0.13807757481E+04  0.00000000000E+00 0.  1.
<scales pt_clust_3="60.14772" pt_clust_4="78.75749" pt_clust_5="42.06207" pt_clust_6="14000.00000"></scales>
<clustering>
<clus scale="   60.148">  2  3  1 -1</clus>
<clus scale="   42.062">  2  5  1 -1</clus>
<clus scale="   78.757">  2  4  1 -1</clus>
<clus scale="   60.148">  2  3  1 -1</clus>
</clustering>
</event>
<event>
 6    0  0.1622933E+002  0.1772988E+03  0.7546771E-02  0.1170443E+00
         21   -1    0    0  504  502  0.00000000000E+00  0.00000000000E+00  0.29256232576E+03  0.29256232576E+03  0.00000000000E+00 0.  1.
         -3   -1    0    0    0  501 -0.00000000000E+00 -0.00000000000E+00 -0.74656476914E+03  0.74656476914E+03  0.00000000000E+00 0.  1.
         21    1    1    2  503  501  0.48802275773E+02  0.16566585981E+02 -0.59871614235E+02  0.78998253669E+02  0.00000000000E+00 0.  1.
         21    1    1    2  504  503 -0.49136100802E+02  0.16022866192E+03  0.24368737435E+03  0.29575516381E+03  0.00000000000E+00 0.  1.
         21    1    1    2  505  502  0.92581314873E+01 -0.95923448646E+02 -0.24611760154E+03  0.26431211624E+03  0.00000000000E+00 0.  1.
         -3    1    1    2    0  505 -0.89243064591E+01 -0.80871799256E+02 -0.39170060196E+03  0.40006156118E+03  0.00000000000E+00 0.  1.
<scales pt_clust_3="51.53750" pt_clust_4="167.66404" pt_clust_5="51.13734" pt_clust_6="51.13734"></scales>
<clustering>
<clus scale="   51.537">  2  3  1 -1</clus>
<clus scale="   51.137">  5  6 -1 -1</clus>
<clus scale="  167.664">  1  4  2 -1</clus>
<clus scale="  167.664">  1  3  2 -1</clus>
</clustering>
</event>
<event>
 6    0  0.1622933E+002  0.1031192E+03  0.7546771E-02  0.1273870E+00
         21   -1    0    0  505  502  0.00000000000E+00  0.00000000000E+00  0.99886940017E+03  0.99886940017E+03  0.00000000000E+00 0. -1.
         -2   -1    0    0    0  501 -0.00000000000E+00 -0.00000000000E+00 -0.61141139000E+02  0.61141139000E+02  0.00000000000E+00 0.  1.
         21    1    1    2  503  501  0.99529836528E+02 -0.43819542340E+02  0.74467016988E+01  0.10900364222E+03  0.00000000000E+00 0.  1.
         21    1    1    2  504  503 -0.88350855369E+02 -0.27526378387E+02  0.30924750127E+03  0.32279651825E+03  0.00000000000E+00 0. -1.
         21    1    1    2  505  504 -0.22080003703E+02  0.39977080136E+02  0.51679992727E+03  0.51881389566E+03  0.00000000000E+00 0. -1.
         -2    1    1    2    0  502  0.10901022545E+02  0.31368840591E+02  0.10423413093E+03  0.10939648304E+03  0.00000000000E+00 0.  1.
<scales pt_clust_3="103.11923" pt_clust_4="14000.00000" pt_clust_5="60.28020" pt_clust_6="33.20898"></scales>
<clustering>
<clus scale="   33.209">  1  6  2 -1</clus>
<clus scale="   60.280">  1  5  2 -1</clus>
<clus scale="  103.119">  2  3  1 -1</clus>
<clus scale="   33.209">  1  3  2 -1</clus>
</clustering>
</event>
<event>
 6    0  0.1622933E+002  0.1468936E+03  0.7546771E-02  0.1204343E+00
         21   -1    0    0  501  502  0.00000000000E+00  0.00000000000E+00  0.34675751686E+03  0.34675751686E+03  0.00000000000E+00 0.  1.
          2   -1    0    0  504    0 -0.00000000000E+00 -0.00000000000E+00 -0.52924129387E+03  0.52924129387E+03  0.00000000000E+00 0.  1.
         21    1    1    2  503  502 -0.31773444099E+02  0.14085436033E+03  0.25305661278E+03  0.29135399748E+03  0.00000000000E+00 0.  1.
         21    1    1    2  504  505  0.49480000721E+02 -0.50121600752E+01 -0.34888417272E+02  0.60750258269E+02  0.00000000000E+00 0. -1.
         21    1    1    2  505  503  0.43050871146E+02  0.79359066726E+02 -0.38241905571E+02  0.98049387146E+02  0.00000000000E+00 0.  1.
          2    1    1    2  501    0 -0.60757427768E+02 -0.21520126698E+03 -0.36241006696E+03  0.42584516784E+03  0.00000000000E+00 0.  1.
<scales pt_clust_3="146.89360" pt_clust_4="49.73321" pt_clust_5="93.22683" pt_clust_6="14000.00000"></scales>
<clustering>
<clus scale="   49.733">  2  4  1 -1</clus>
<clus scale="   93.227">  2  5  1 -1</clus>
<clus scale="  146.894">  1  3  2 -1</clus>
<clus scale="  146.894">  1  3  2 -1</clus>
</clustering>
</event>
<event>
 6    0  0.1622933E+002  0.1326803E+03  0.7546771E-02  0.1223532E+00
          2   -1    0    0  504    0 -0.00000000000E+00  0.00000000000E+00  0.27369534042E+04  0.27369534042E+04  0.00000000000E+00 0. -1.
         21   -1    0    0  501  502  0.00000000000E+00 -0.00000000000E+00 -0.32441387267E+02  0.32441387267E+02  0.00000000000E+00 0. -1.
         21    1    1    2  503  505  0.12825886766E+03 -0.39429376202E+01  0.98546413735E+03  0.99378340190E+03  0.00000000000E+00 0. -1.
         21    1    1    2  504  503 -0.62419984977E+01 -0.45407047157E+02  0.37145846951E+03  0.37427550955E+03  0.00000000000E+00 0. -1.
         21    1    1    2  505  502  0.13677338129E+02  0.52641472443E+02  0.81026529863E+01  0.54989518863E+02  0.00000000000E+00 0.  1.
          2    1    1    2  501    0 -0.13569420729E+03 -0.32914876661E+01  0.13394867571E+04  0.13463463612E+04  0.00000000000E+00 0. -1.
<scales pt_clust_3="132.68029" pt_clust_4="45.83408" pt_clust_5="53.78195" pt_clust_6="14000.00000"></scales>
<clustering>
<clus scale="   45.834">  1  4  2 -1</clus>
<clus scale="   53.782">  2  5  1 -1</clus>
<clus scale="  132.680">  2  3  1 -1</clus>
<clus scale="   53.782">  2  3  1 -1</clus>
</clustering>
</event>
<event>
 6    0  0.1622933E+002  0.1928199E+03  0.7546771E-02  0.1155942E+00
         21   -1    0    0  504  502  0.00000000000E+00  0.00000000000E+00  0.52916253428E+02  0.52916253428E+02  0.00000000000E+00 0. -1.
          1   -1    0    0  503    0 -0.00000000000E+00 -0.00000000000E+00 -0.31455190435E+04  0.31455190435E+04  0.00000000000E+00 0.  1.
         21    1    1    2  503  505  0.13083664421E+03  0.63831496291E+02 -0.13036537179E+04  0.13117567242E+04  0.00000000000E+00 0. -1.
         21    1    1    2  504  501 -0.13826129788E+02 -0.95898404094E+02 -0.51880775902E+03  0.52777756356E+03  0.00000000000E+00 0.  1.
         21    1    1    2  505  502 -0.11872133964E+03  0.13933805891E+03 -0.15863507170E+03  0.24222910049E+03  0.00000000000E+00 0. -1.
          1    1    1    2  501    0  0.17108252211E+01 -0.10727115111E+03 -0.11115062415E+04  0.11166719087E+04  0.00000000000E+00 0.  1.
<scales pt_clust_3="145.57708" pt_clust_4="66.28908" pt_clust_5="179.76048" pt_clust_6="66.28908"></scales>
<clustering>
<clus scale="   66.289">  4  6 -1 -1</clus>
<clus scale="  145.577">  2  3  1 -1</clus>
<clus scale="  179.760">  1  5  2 -1</clus>
<clus scale="  179.760">  1  3  2 -1</clus>
</clustering>
</event>
<event>
 6    0  0.1622933E+002  0.1287999E+03  0.7546771E-02  0.1229247E+00
         -3   -1    0    0    0  501 -0.00000000000E+00  0.00000000000E+00  0.15003911753E+04  0.15003911753E+04  0.00000000000E+00 0.  1.
         21   -1    0    0  505  502  0.00000000000E+00 -0.00000000000E+00 -0.20600907666E+03  0.20600907666E+03  0.00000000000E+00 0. -1.
         21    1    1    2  503  501 -0.17480740047E+02  0.31645913251E+02  0.12183849473E+03  0.12708917695E+03  0.00000000000E+00 0. -1.
         21    1    1    2  504  502  0.63731957702E+02 -0.72434342871E+02  0.40723813885E+03  0.41851092960E+03  0.00000000000E+00 0.  1.
         21    1    1    2  505  503 -0.69995866029E+02  0.11020896403E+03 -0.17461129311E+03  0.21802417457E+03  0.00000000000E+00 0. -1.
         -3    1    1    2    0  504  0.23744648375E+02 -0.69420534412E+02  0.93991675817E+03  0.94277597085E+03  0.00000000000E+00 0.  1.
<scales pt_clust_3="36.15301" pt_clust_4="128.79992" pt_clust_5="14000.00000" pt_clust_6="49.20211"></scales>
<clustering>
<clus scale="   36.153">  1  3  2 -1</clus>
<clus scale="   49.202">  1  6  2 -1</clus>
<clus scale="  128.800">  1  4  2 -1</clus>
<clus scale="  128.800">  2  3  1 -1</clus>
</clustering>
</event>
<event>
 6    0  0.1622933E+002  0.1086659E+03  0.7546771E-02  0.1263061E+00
         21   -1    0    0  501  502  0.00000000000E+00  0.00000000000E+00  0.94690960065E+02  0.94690960065E+02  0.00000000000E+00 0. -1.
          1   -1    0    0  504    0 -0.00000000000E+00 -0.00000000000E+00 -0.39164958766E+03  0.39164958766E+03  0.00000000000E+00 0. -1.
         21    1    1    2  503  502 -0.65374783406E+02  0.20365956401E+02 -0.28600378756E+02  0.74206577542E+02  0.00000000000E+00 0. -1.
         21    1    1    2  504  505  0.27123354420E+02  0.17874051462E+02 -0.14271738556E+03  0.14636738097E+03  0.00000000000E+00 0.  1.
         21    1    1    2  505  503 -0.55242278643E+02 -0.82317657958E+02  0.49024282724E+01  0.99256939124E+02  0.00000000000E+00 0. -1.
          1    1    1    2  501    0  0.93493707629E+02  0.44077650095E+02 -0.13054329155E+03  0.16650965009E+03  0.00000000000E+00 0. -1.
<scales pt_clust_3="64.40515" pt_clust_4="32.48320" pt_clust_5="108.66589" pt_clust_6="14000.00000"></scales>
<clustering>
<clus scale="   32.483">  2  4  1 -1</clus>
<clus scale="   64.405">  1  3  2 -1</clus>
<clus scale="  108.666">  1  5  2 -1</clus>
<clus scale="   64.405">  1  3  2 -1</clus>
</clustering>
</event>
<event>
 6    0  0.1622933E+002  0.1697036E+03  0.7546771E-02  0.1178157E+00
         21   -1    0    0  503  502  0.00000000000E+00  0.00000000000E+00  0.31404073743E+03  0.31404073743E+03  0.00000000000E+00 0. -1.
          2   -1    0    0  504    0 -0.00000000000E+00 -0.00000000000E+00 -0.40373608499E+03  0.40373608499E+03  0.00000000000E+00 0.  1.
         21    1    1    2  503  501 -0.31777247716E+00 -0.76137994445E+02 -0.19877633812E+03  0.21285940847E+03  0.00000000000E+00 0.  1.
         21    1    1    2  504  505 -0.18239226255E+02  0.14215127259E+03  0.54886277409E+02  0.15346712065E+03  0.00000000000E+00 0. -1.
         21    1    1    2  505  502  0.21245503591E+02  0.26033653927E+02  0.18691546930E+03  0.18991186173E+03  0.00000000000E+00 0. -1.
          2    1    1    2  501    0 -0.26885048592E+01 -0.92046932073E+02 -0.13272075615E+03  0.16153843158E+03  0.00000000000E+00 0.  1.
<scales pt_clust_3="40.83195" pt_clust_4="163.74095" pt_clust_5="33.60242" pt_clust_6="40.83195"></scales>
<clustering>
<clus scale="   33.602">  1  5  2 -1</clus>
<clus scale="   40.832">  3  6 -1 -1</clus>
<clus scale="  163.741">  1  4  2 -1</clus>
<clus scale="   33.602">  1  3  2 -1</clus>
</clustering>
</event>
<event>
 6    0  0.1622933E+002  0.7992541E+02  0.7546771E-02  0.1329263E+00
         21   -1    0    0  503  502  0.00000000000E+00  0.00000000000E+00  0.36369145127E+03  0.36369145127E+03  0.00000000000E+00 0. -1.
          2   -1    0    0  505    0 -0.00000000000E+00 -0.00000000000E+00 -0.90464753953E+03  0.90464753953E+03  0.00000000000E+00 0.  1.
         21    1    1    2  503  501 -0.88179769939E+02 -0.19306819888E+02 -0.51582643191E+02  0.10396727466E+03  0.00000000000E+00 0.  1.
         21    1    1    2  504  502  0.63587183408E+00  0.64112625608E+02  0.32751911249E+03  0.33373582688E+03  0.00000000000E+00 0. -1.
         21    1    1    2  505  504  0.39913974359E+02  0.63153536297E+01 -0.62692871041E+03  0.62822974856E+03  0.00000000000E+00 0.  1.
          2    1    1    2  501    0  0.47629923746E+02 -0.51121159350E+02 -0.18996384715E+03  0.20240614070E+03  0.00000000000E+00 0.  1.
<scales pt_clust_3="14000.00000" pt_clust_4="64.19262" pt_clust_5="40.41051" pt_clust_6="79.92541"></scales>
<clustering>
<clus scale="   40.411">  2  5  1 -1</clus>
<clus scale="   64.193">  1  4  2 -1</clus>
<clus scale="   79.925">  2  6  1 -1</clus>
<clus scale="   64.193">  1  3  2 -1</clus>
</clustering>
</event>
<event>
 6    0  0.1622933E+002  0.2865016E+03  0.7546771E-02  0.1092190E+00
          1   -1    0    0  504    0 -0.00000000000E+00  0.00000000000E+00  0.39776103467E+03  0.39776103467E+03  0.00000000000E+00 0. -1.
         21   -1    0    0  503  502  0.00000000000E+00 -0.00000000000E+00 -0.57958845295E+03  0.57958845295E+03  0.00000000000E+00 0. -1.
         21    1    1    2  503  505  0.14224879521E+03 -0.41275981891E+01 -0.32455325891E+03  0.35438196155E+03  0.00000000000E+00 0. -1.
         21    1    1    2  504  502  0.15621015294E+03 -0.11964920227E+03 -0.91036589345E+02  0.21680683588E+03  0.00000000000E+00 0. -1.
         21    1    1    2  505  501 -0.76058432577E+02  0.69652629917E+02  0.67539144228E+02  0.12327980379E+03  0.00000000000E+00 0.  1.
          1    1    1    2  501    0 -0.22240051557E+03  0.54124170541E+02  0.16622328575E+03  0.28288088640E+03  0.00000000000E+00 0. -1.
<scales pt_clust_3="142.30867" pt_clust_4="275.97092" pt_clust_5="51.66082" pt_clust_6="51.66082"></scales>
<clustering>
<clus scale="   51.661">  5  6 -1 -1</clus>
<clus scale="  142.309">  2  3  1 -1</clus>
<clus scale="  275.971">  2  4  1 -1</clus>
<clus scale="  142.309">  2  3  1 -1</clus>
</clustering>
</event>
<event>
 6    0  0.1622933E+002  0.1339907E+03  0.7546771E-02  0.1221652E+00
         21   -1    0    0  505  502  0.00000000000E+00  0.00000000000E+00  0.12669888957E+03  0.12669888957E+03  0.00000000000E+00 0. -1.
          2   -1    0    0  503    0 -0.00000000000E+00 -0.00000000000E+00 -0.10465533708E+04  0.10465533708E+04  0.00000000000E+00 0. -1.
         21    1    1    2  503  504  0.68064000658E+02 -0.62221139973E+02 -0.16559234666E+03  0.18953892401E+03  0.00000000000E+00 0. -1.
         21    1    1    2  504  502  0.24937557523E+02 -0.53724365806E+02  0.99700579712E+02  0.11596721455E+03  0.00000000000E+00 0. -1.
         21    1    1    2  505  501 -0.45456288380E+02  0.56976163588E+02 -0.30535118148E+03  0.31392977144E+03  0.00000000000E+00 0. -1.
          2    1    1    2  501    0 -0.47545269801E+02  0.58969342191E+02 -0.54861153276E+03  0.55381635032E+03  0.00000000000E+00 0. -1.
<scales pt_clust_3="127.73073" pt_clust_4="59.22997" pt_clust_5="39.70473" pt_clust_6="39.70473"></scales>
<clustering>
<clus scale="   39.705">  5  6 -1 -1</clus>
<clus scale="   59.230">  1  4  2 -1</clus>
<clus scale="  127.731">  1  3  2 -1</clus>
<clus scale="   59.230">  1  3  2 -1</clus>
</clustering>
</event>
<event>
 6    0  0.1622933E+002  0.8512359E+02  0.7546771E-02  0.1315110E+00
         -3   -1    0    0    0  501 -0.00000000000E+00  0.00000000000E+00  0.46495220138E+03  0.46495220138E+03  0.00000000000E+00 0.  1.
         21   -1    0    0  504  502  0.00000000000E+00 -0.00000000000E+00 -0.11474327470E+03  0.11474327470E+03  0.00000000000E+00 0. -1.
         21    1    1    2  503  502  0.68964499062E+02 -0.58043552397E+02 -0.64918480466E+02  0.11108359560E+03  0.00000000000E+00 0. -1.
         21    1    1    2  504  505 -0.41079284816E+02 -0.38844172896E+02  0.31339783545E+02  0.64641777834E+02  0.00000000000E+00 0. -1.
         21    1    1    2  505  501 -0.23397351597E+02  0.23889870852E+02  0.24328651727E+03  0.24557380047E+03  0.00000000000E+00 0.  1.
         -3    1    1    2    0  503 -0.44878626499E+01  0.72997854441E+02  0.14050110633E+03  0.15839630218E+03  0.00000000000E+00 0.  1.
<scales pt_clust_3="14000.00000" pt_clust_4="57.12940" pt_clust_5="33.43893" pt_clust_6="85.12359"></scales>
<clustering>
<clus scale="   33.439">  1  5  2 -1</clus>
<clus scale="   57.129">  1  4  2 -1</clus>
<clus scale="   85.124">  1  6  2 -1</clus>
<clus scale="   85.124">  2  3  1 -1</clus>
</clustering>
</event>
<event>
 6    0  0.1622933E+002  0.7422436E+02  0.7546771E-02  0.1346290E+00
         21   -1    0    0  501  502  0.00000000000E+00  0.00000000000E+00  0.24439106155E+02  0.24439106155E+02  0.00000000000E+00 0. -1.
          2   -1    0    0  505    0 -0.00000000000E+00 -0.00000000000E+00 -0.17887542375E+04  0.17887542375E+04  0.00000000000E+00 0. -1.
         21    1    1    2  503  504  0.34841304728E+02  0.42637439984E+02 -0.35547864800E+03  0.35971785748E+03  0.00000000000E+00 0. -1.
         21    1    1    2  504  502 -0.24056714009E+02  0.70554111701E+02 -0.53453719417E+02  0.91727358439E+02  0.00000000000E+00 0. -1.
         21    1    1    2  505  503  0.26213432087E+02 -0.28421961745E+02 -0.44674823861E+03  0.44841826528E+03  0.00000000000E+00 0. -1.
          2    1    1    2  501    0 -0.36998022807E+02 -0.84769589939E+02 -0.90863452533E+03  0.91332986247E+03  0.00000000000E+00 0. -1.
<scales pt_clust_3="54.57978" pt_clust_4="14000.00000" pt_clust_5="38.66461" pt_clust_6="74.22436"></scales>
<clustering>
<clus scale="   38.665">  2  5  1 -1</clus>
<clus scale="   54.580">  2  3  1 -1</clus>
<clus scale="   74.224">  2  6  1 -1</clus>
<clus scale="   74.224">  1  3  2 -1</clus>
</clustering>
</event>
<event>
 6    0  0.1622933E+002  0.8703740E+02  0.7546771E-02  0.1310189E+00
          2   -1    0    0  503    0 -0.00000000000E+00  0.00000000000E+00  0.41403834872E+03  0.41403834872E+03  0.00000000000E+00 0.  1.
         21   -1    0    0  505  502  0.00000000000E+00 -0.00000000000E+00 -0.40716655656E+03  0.40716655656E+03  0.00000000000E+00 0. -1.
         21    1    1    2  503  502 -0.66403514463E+02  0.16156293078E+01  0.44169298160E+02  0.79768188466E+02  0.00000000000E+00 0. -1.
         21    1    1    2  504  501  0.52338797262E+02 -0.11739268266E+02  0.10058092092E+03  0.11398983187E+03  0.00000000000E+00 0.  1.
         21    1    1    2  505  504 -0.24255633094E+02  0.62085367310E+02 -0.37541798985E+03  0.38128938573E+03  0.00000000000E+00 0. -1.
          2    1    1    2  501    0  0.38320350295E+02 -0.51961728352E+02  0.23753956293E+03  0.24615749921E+03  0.00000000000E+00 0.  1.
<scales pt_clust_3="66.42317" pt_clust_4="50.77963" pt_clust_5="66.87129" pt_clust_6="50.77963"></scales>
<clustering>
<clus scale="   50.780">  4  6 -1 -1</clus>
<clus scale="   66.423">  1  3  2 -1</clus>
<clus scale="   66.871">  2  5  1 -1</clus>
<clus scale="   66.871">  2  3  1 -1</clus>
</clustering>
</event>
<event>
 6    0  0.1622933E+002  0.1393844E+03  0.7546771E-02  0.1214160E+00
         21   -1    0    0  505  502  0.00000000000E+00  0.00000000000E+00  0.99099572091E+02  0.99099572091E+02  0.00000000000E+00 0. -1.
         -1   -1    0    0    0  501 -0.00000000000E+00 -0.00000000000E+00 -0.15739966866E+04  0.15739966866E+04  0.00000000000E+00 0. -1.
         21    1    1    2  503  501 -0.12631372223E+02 -0.34651988451E+02 -0.10919456475E+03  0.11525521611E+03  0.00000000000E+00 0. -1.
         21    1    1    2  504  502  0.46603996220E+02 -0.72797370008E+02  0.59935772490E+02  0.10518405948E+03  0.00000000000E+00 0. -1.
         21    1    1    2  505  503 -0.69121266308E+02 -0.34277204179E+02 -0.14991060462E+03  0.16859971993E+03  0.00000000000E+00 0. -1.
         -1    1    1    2    0  504  0.35148642311E+02  0.14172656264E+03 -0.12757277176E+04  0.12840572632E+04  0.00000000000E+00 0. -1.
<scales pt_clust_3="30.94684" pt_clust_4="86.43720" pt_clust_5="30.94684" pt_clust_6="132.00232"></scales>
<clustering>
<clus scale="   30.947">  3  5 -1 -1</clus>
<clus scale="   86.437">  1  4  2 -1</clus>
<clus scale="  132.002">  2  6  1 -1</clus>
<clus scale="   86.437">  1  3  2 -1</clus>
</clustering>
</event>
<event>
 6    0  0.1622933E+002  0.9604543E+02  0.7546771E-02  0.1288839E+00
         21   -1    0    0  505  502  0.00000000000E+00  0.00000000000E+00  0.92120647208E+02  0.92120647208E+02  0.00000000000E+00 0. -1.
          4   -1    0    0  503    0 -0.00000000000E+00 -0.00000000000E+00 -0.78262267341E+03  0.78262267341E+03  0.00000000000E+00 0. -1.
         21    1    1    2  503  502 -0.75780456529E+02 -0.47336499051E+02 -0.39612527459E+03  0.40607715388E+03  0.00000000000E+00 0. -1.
         21    1    1    2  504  501  0.69821415532E+02 -0.43535121930E+02 -0.21412621301E+02  0.85022569118E+02  0.00000000000E+00 0. -1.
         21    1    1    2  505  504  0.43680519515E+02  0.35372734716E+02  0.36479684245E+02  0.67007354141E+02  0.00000000000E+00 0. -1.
          4    1    1    2  501    0 -0.37721478518E+02  0.55498886266E+02 -0.30944381456E+03  0.31663624348E+03  0.00000000000E+00 0. -1.
<scales pt_clust_3="14000.00000" pt_clust_4="96.04543" pt_clust_5="56.20692" pt_clust_6="67.70738"></scales>
<clustering>
<clus scale="   56.207">  1  5  2 -1</clus>
<clus scale="   67.707">  2  6  1 -1</clus>
<clus scale="   96.045">  1  4  2 -1</clus>
<clus scale="   56.207">  1  3  2 -1</clus>
</clustering>
</event>
<event>
 6    0  0.1622933E+002  0.1467681E+03  0.7546771E-02  0.1204502E+00
          1   -1    0    0  505    0 -0.00000000000E+00  0.00000000000E+00  0.15717787020E+04  0.15717787020E+04  0.00000000000E+00 0.  1.
         21   -1    0    0  504  502  0.00000000000E+00 -0.00000000000E+00 -0.80747329064E+02  0.80747329064E+02  0.00000000000E+00 0.  1.
         21    1    1    2  503  502  0.79486418933E+02 -0.85472298805E+02 -0.15444275491E+02  0.11773754840E+03  0.00000000000E+00 0.  1.
         21    1    1    2  504  501  0.32665152210E+02 -0.23050915003E+02  0.43003722479E+02  0.58716922590E+02  0.00000000000E+00 0. -1.
         21    1    1    2  505  503 -0.61246194489E+02 -0.48278462745E+01  0.68449782632E+03  0.68724935699E+03  0.00000000000E+00 0.  1.
          1    1    1    2  501    0 -0.50905376654E+02  0.11335106008E+03  0.77897409961E+03  0.78882220307E+03  0.00000000000E+00 0.  1.
<scales pt_clust_3="14000.00000" pt_clust_4="39.97946" pt_clust_5="60.85765" pt_clust_6="146.76808"></scales>
<clustering>
<clus scale="   39.979">  2  4  1 -1</clus>
<clus scale="   60.858">  1  5  2 -1</clus>
<clus scale="  146.768">  1  6  2 -1</clus>
<clus scale="   39.979">  2  3  1 -1</clus>
</clustering>
</event>
<event>
 6    0  0.1622933E+002  0.1442564E+03  0.7546771E-02  0.1207714E+00
          2   -1    0    0  504    0 -0.00000000000E+00  0.00000000000E+00  0.35577767616E+04  0.35577767616E+04  0.00000000000E+00 0. -1.
         21   -1    0    0  503  502  0.00000000000E+00 -0.00000000000E+00 -0.19058950366E+03  0.19058950366E+03  0.00000000000E+00 0. -1.
         21    1    1    2  503  505 -0.11657954214E+03 -0.87544542914E+02 -0.15709539661E+03  0.21432172143E+03  0.00000000000E+00 0. -1.
         21    1    1    2  504  502 -0.31348552806E+02  0.31025833463E+02  0.18338513723E+04  0.18343816914E+04  0.00000000000E+00 0. -1.
         21    1    1    2  505  501  0.10696699496E+03  0.28131962400E+02  0.77228250916E+03  0.78016255952E+03  0.00000000000E+00 0. -1.
          2    1    1    2  501    0  0.40961099981E+02  0.28386747051E+02  0.91814877302E+03  0.91950029283E+03  0.00000000000E+00 0. -1.
<scales pt_clust_3="144.25640" pt_clust_4="44.10594" pt_clust_5="14000.00000" pt_clust_6="51.05273"></scales>
<clustering>
<clus scale="   44.106">  1  4  2 -1</clus>
<clus scale="   51.053">  1  6  2 -1</clus>
<clus scale="  144.256">  2  3  1 -1</clus>
<clus scale="  144.256">  2  3  1 -1</clus>
</clustering>
</event>
<event>
 6    0  0.1622933E+002  0.7964097E+02  0.7546771E-02  0.1330073E+00
         21   -1    0    0  505  502  0.00000000000E+00  0.00000000000E+00  0.16059470864E+02  0.16059470864E+02  0.00000000000E+00 0. -1.
          2   -1    0    0  504    0 -0.00000000000E+00 -0.00000000000E+00 -0.18546961346E+04  0.18546961346E+04  0.00000000000E+00 0.  1.
         21    1    1    2  503  502 -0.26130596175E+02  0.78642637242E+02 -0.18906815290E+03  0.20643216535E+03  0.00000000000E+00 0. -1.
         21    1    1    2  504  503 -0.37050696858E+02  0.46393364426E+02 -0.50195102596E+03  0.50545022590E+03  0.00000000000E+00 0. -1.
         21    1    1    2  505  501 -0.10812600285E+01 -0.75677041147E+02 -0.42073690064E+03  0.42749002706E+03  0.00000000000E+00 0. -1.
          2    1    1    2  501    0  0.64262553061E+02 -0.49358960520E+02 -0.72688058425E+03  0.73138318717E+03  0.00000000000E+00 0.  1.
<scales pt_clust_3="79.64097" pt_clust_4="59.37254" pt_clust_5="14000.00000" pt_clust_6="50.50734"></scales>
<clustering>
<clus scale="   59.373">  2  4  1 -1</clus>
<clus scale="   50.507">  2  6  1 -1</clus>
<clus scale="   79.641">  1  3  2 -1</clus>
<clus scale="   79.641">  1  3  2 -1</clus>
</clustering>
</event>
<event>
 6    0  0.1622933E+002  0.1056686E+03  0.7546771E-02  0.1268808E+00
          2   -1    0    0  504    0 -0.00000000000E+00  0.00000000000E+00  0.10066056805E+03  0.10066056805E+03  0.00000000000E+00 0. -1.
         21   -1    0    0  503  502  0.00000000000E+00 -0.00000000000E+00 -0.61419413144E+03  0.61419413144E+03  0.00000000000E+00 0. -1.
         21    1    1    2  503  505  0.34878689085E+00  0.55362153984E+02 -0.46175222324E+03  0.46505935688E+03  0.00000000000E+00 0. -1.
         21    1    1    2  504  502 -0.28108501150E+01 -0.30153184321E+02 -0.91453923117E+01  0.31634689877E+02  0.00000000000E+00 0. -1.
         21    1    1    2  505  501 -0.84326586535E+02  0.43954006805E+02 -0.49049475323E+02  0.10699896701E+03  0.00000000000E+00 0.  1.
          2    1    1    2  501    0  0.86788649760E+02 -0.69162976468E+02  0.64135274883E+01  0.11116168574E+03  0.00000000000E+00 0. -1.
<scales pt_clust_3="54.80534" pt_clust_4="30.28391" pt_clust_5="14000.00000" pt_clust_6="105.66864"></scales>
<clustering>
<clus scale="   30.284">  1  4  2 -1</clus>
<clus scale="   54.805">  2  3  1 -1</clus>
<clus scale="  105.669">  1  6  2 -1</clus>
<clus scale="   54.805">  2  3  1 -1</clus>
</clustering>
</event>
<event>
 6    0  0.1622933E+002  0.7953273E+02  0.7546771E-02  0.1330383E+00
          1   -1    0    0  503    0 -0.00000000000E+00  0.00000000000E+00  0.12012827807E+04  0.12012827807E+04  0.00000000000E+00 0. -1.
         21   -1    0    0  501  502  0.00000000000E+00 -0.00000000000E+00 -0.26015098330E+02  0.26015098330E+02  0.00000000000E+00 0.  1.
         21    1    1    2  503  504 -0.16632963350E+02  0.28418474209E+02  0.12206509730E+03  0.12642845062E+03  0.00000000000E+00 0.  1.
         21    1    1    2  504  505 -0.31256713382E+02 -0.42138588804E+02  0.25496528833E+03  0.26030739723E+03  0.00000000000E+00 0. -1.
         21    1    1    2  505  502 -0.51407048327E+02 -0.54552053573E+02  0.70456088044E+02  0.10287211240E+03  0.00000000000E+00 0.  1.
          1    1    1    2  501    0  0.99296725059E+02  0.68272168168E+02  0.72778120868E+03  0.73768991878E+03  0.00000000000E+00 0. -1.
<scales pt_clust_3="32.92818" pt_clust_4="49.90490" pt_clust_5="79.53273" pt_clust_6="14000.00000"></scales>
<clustering>
<clus scale="   32.928">  1  3  2 -1</clus>
<clus scale="   49.905">  1  4  2 -1</clus>
<clus scale="   79.533">  2  5  1 -1</clus>
<clus scale="   79.533">  2  3  1 -1</clus>
</clustering>
</event>
<event>
 6    0  0.1622933E+002  0.1049195E+03  0.7546771E-02  0.1270278E+00
          2   -1    0    0  503    0 -0.00000000000E+00  0.00000000000E+00  0.15044931435E+04  0.15044931435E+04  0.00000000000E+00 0. -1.
         21   -1    0    0  501  502  0.00000000000E+00 -0.00000000000E+00 -0.19636440321E+03  0.19636440321E+03  0.00000000000E+00 0. -1.
         21    1    1    2  503  504 -0.35190834488E+02 -0.21885632019E+02  0.12039517579E+03  0.12732782129E+03  0.00000000000E+00 0. -1.
         21    1    1    2  504  505 -0.53752694174E+02  0.19274116277E+02  0.31180260014E+03  0.31698849371E+03  0.00000000000E+00 0. -1.
         21    1    1    2  505  502 -0.95785905204E+02  0.39973390167E+02 -0.16704998979E+03  0.19666852988E+03  0.00000000000E+00 0. -1.
          2    1    1    2  501    0  0.18472943387E+03 -0.37361874425E+02  0.10429809541E+04  0.10598727018E+04  0.00000000000E+00 0. -1.
<scales pt_clust_3="41.44123" pt_clust_4="63.39787" pt_clust_5="14000.00000" pt_clust_6="104.91949"></scales>
<clustering>
<clus scale="   41.441">  1  3  2 -1</clus>
<clus scale="   63.398">  1  4  2 -1</clus>
<clus scale="  104.919">  1  6  2 -1</clus>
<clus scale="  104.919">  2  3  1 -1</clus>
</clustering>
</event>
<event>
 6    0  0.1622933E+002  0.1412971E+03  0.7546771E-02  0.1211594E+00
         21   -1    0    0  503  502  0.00000000000E+00  0.00000000000E+00  0.30619415987E+03  0.30619415987E+03  0.00000000000E+00 0.  1.
          1   -1    0    0  504    0 -0.00000000000E+00 -0.00000000000E+00 -0.32585033892E+04  0.32585033892E+04  0.00000000000E+00 0. -1.
         21    1    1    2  503  505 -0.12894395785E+03 -0.59357065685E+02  0.28270615429E+03  0.31634249665E+03  0.00000000000E+00 0.  1.
         21    1    1    2  504  502  0.40459184608E+02  0.20612596708E+02 -0.10877134744E+03  0.11786870147E+03  0.00000000000E+00 0.  1.
         21    1    1    2  505  501  0.99701407253E+02 -0.36811398060E+01 -0.13423106761E+04  0.13460133255E+04  0.00000000000E+00 0.  1.
          1    1    1    2  501    0 -0.11216634009E+02  0.42425608784E+02 -0.17839333601E+04  0.17844730254E+04  0.00000000000E+00 0. -1.
<scales pt_clust_3="141.29712" pt_clust_4="46.23714" pt_clust_5="14000.00000" pt_clust_6="43.88331"></scales>
<clustering>
<clus scale="   43.883">  2  6  1 -1</clus>
<clus scale="   46.237">  2  4  1 -1</clus>
<clus scale="  141.297">  1  3  2 -1</clus>
<clus scale="  141.297">  1  3  2 -1</clus>
</clustering>
</event>
<event>
 6    0  0.1622933E+002  0.1163670E+03  0.7546771E-02  0.1249214E+00
          2   -1    0    0  504    0 -0.00000000000E+00  0.00000000000E+00  0.33331435004E+03  0.33331435004E+03  0.00000000000E+00 0. -1.
         21   -1    0    0  505  502  0.00000000000E+00 -0.00000000000E+00 -0.72322554428E+03  0.72322554428E+03  0.00000000000E+00 0. -1.
         21    1    1    2  503  502 -0.91893324247E+02  0.65787219445E+02 -0.70087132127E+03  0.70992460886E+03  0.00000000000E+00 0. -1.
         21    1    1    2  504  503  0.55902957521E+02  0.13227904806E+02  0.15574811414E+03  0.16600479867E+03  0.00000000000E+00 0. -1.
         21    1    1    2  505  501  0.27177613904E+02 -0.34418801918E+02  0.53324632641E+02  0.69041966001E+02  0.00000000000E+00 0. -1.
          2    1    1    2  501    0  0.88127528222E+01 -0.44596322333E+02  0.10188738025E+03  0.11156852079E+03  0.00000000000E+00 0. -1.
<scales pt_clust_3="112.02945" pt_clust_4="57.44665" pt_clust_5="30.91499" pt_clust_6="30.91499"></scales>
<clustering>
<clus scale="   30.915">  5  6 -1 -1</clus>
<clus scale="   57.447">  1  4  2 -1</clus>
<clus scale="  112.029">  2  3  1 -1</clus>
<clus scale="  112.029">  2  3  1 -1</clus>
</clustering>
</event>
<event>
 6    0  0.1622933E+002  0.1226792E+03  0.7546771E-02  0.1238742E+00
         21   -1    0    0  505  502  0.00000000000E+00  0.00000000000E+00  0.68658780378E+02  0.68658780378E+02  0.00000000000E+00 0. -1.
          2   -1    0    0  503    0 -0.00000000000E+00 -0.00000000000E+00 -0.21347796173E+04  0.21347796173E+04  0.00000000000E+00 0. -1.
         21    1    1    2  503  504 -0.35871816239E+02 -0.43220192048E+01 -0.49259640673E+03  0.49391971713E+03  0.00000000000E+00 0.  1.
         21    1    1    2  504  502  0.11495833550E+01 -0.10825891524E+03 -0.70256230580E+03  0.71085519468E+03  0.00000000000E+00 0.  1.
         21    1    1    2  505  501  0.29016494688E+02 -0.26935237834E+02  0.51911620247E+02  0.65286141852E+02  0.00000000000E+00 0. -1.
          2    1    1    2  501    0  0.57057381961E+01  0.13951617227E+03 -0.92287374465E+03  0.93337734402E+03  0.00000000000E+00 0. -1.
<scales pt_clust_3="36.13125" pt_clust_4="122.67919" pt_clust_5="39.49625" pt_clust_6="14000.00000"></scales>
<clustering>
<clus scale="   36.131">  2  3  1 -1</clus>
<clus scale="   39.496">  1  5  2 -1</clus>
<clus scale="  122.679">  2  4  1 -1</clus>
<clus scale="   39.496">  1  3  2 -1</clus>
</clustering>
</event>
<event>
 6    0  0.1622933E+002  0.1989261E+03  0.7546771E-02  0.1150648E+00
          2   -1    0    0  505    0 -0.00000000000E+00  0.00000000000E+00  0.13736037060E+04  0.13736037060E+04  0.00000000000E+00 0.  1.
         21   -1    0    0  503  502  0.00000000000E+00 -0.00000000000E+00 -0.24091306180E+02  0.24091306180E+02  0.00000000000E+00 0.  1.
         21    1    1    2  503  504 -0.67779590719E+02 -0.12218519038E+02  0.15045941737E+03  0.16547326491E+03  0.00000000000E+00 0.  1.
         21    1    1    2  504  501 -0.54246533354E+02  0.61733899508E+01  0.29900000122E+03  0.30394374127E+03  0.00000000000E+00 0.  1.
         21    1    1    2  505  502  0.15481823944E+03  0.56628775114E+02  0.60031046264E+03  0.62253365932E+03  0.00000000000E+00 0.  1.
          2    1    1    2  501    0 -0.32792115368E+02 -0.50583646027E+02  0.29974251854E+03  0.30574434663E+03  0.00000000000E+00 0.  1.
<scales pt_clust_3="60.15002" pt_clust_4="52.00474" pt_clust_5="164.84995" pt_clust_6="60.15002"></scales>
<clustering>
<clus scale="   52.005">  3  4 -1 -1</clus>
<clus scale="   60.150">  3  6 -1 -1</clus>
<clus scale="  164.850">  2  5  1 -1</clus>
<clus scale="  164.850">  2  3  1 -1</clus>
</clustering>
</event>
<event>
 6    0  0.1622933E+002  0.7272006E+02  0.7546771E-02  0.1351080E+00
         21   -1    0    0  504  502  0.00000000000E+00  0.00000000000E+00  0.45572839183E+02  0.45572839183E+02  0.00000000000E+00 0. -1.
          1   -1    0    0  505    0 -0.00000000000E+00 -0.00000000000E+00 -0.97724640858E+03  0.97724640858E+03  0.00000000000E+00 0. -1.
         21    1    1    2  503  501 -0.20325419647E+02 -0.89434091810E+02 -0.52098986809E+03  0.52900096608E+03  0.00000000000E+00 0. -1.
         21    1    1    2  504  503 -0.42510856702E+02  0.25889381498E+02  0.13246633890E+02  0.51506371657E+02  0.00000000000E+00 0. -1.
         21    1    1    2  505  502 -0.45158189738E+01  0.38566100214E+02 -0.60776985545E+02  0.72121970846E+02  0.00000000000E+00 0. -1.
          1    1    1    2  501    0  0.67352095323E+02  0.24978610098E+02 -0.36315334965E+03  0.37018993918E+03  0.00000000000E+00 0. -1.
<scales pt_clust_3="14000.00000" pt_clust_4="71.08496" pt_clust_5="38.82959" pt_clust_6="72.72006"></scales>
<clustering>
<clus scale="   38.830">  1  5  2 -1</clus>
<clus scale="   72.720">  2  6  1 -1</clus>
<clus scale="   71.085">  1  4  2 -1</clus>
<clus scale="   38.830">  1  3  2 -1</clus>
</clustering>
</event>
<event>
 6    0  0.1622933E+002  0.1049464E+03  0.7546771E-02  0.1270225E+00
          2   -1    0    0  503    0 -0.00000000000E+00  0.00000000000E+00  0.22992226240E+04  0.22992226240E+04  0.00000000000E+00 0. -1.
         21   -1    0    0  505  502  0.00000000000E+00 -0.00000000000E+00 -0.10865280912E+02  0.10865280912E+02  0.00000000000E+00 0. -1.
         21    1    1    2  503  504  0.43177126666E+02  0.35948813611E+02  0.66457100627E+03  0.66694167949E+03  0.00000000000E+00 0. -1.
         21    1    1    2  504  502  0.47729902250E+01  0.83315411674E+02  0.27984242470E+03  0.29202058476E+03  0.00000000000E+00 0. -1.
         21    1    1    2  505  501 -0.21888056802E+02 -0.95400361237E+02  0.78725479529E+03  0.79331609631E+03  0.00000000000E+00 0. -1.
          2    1    1    2  501    0 -0.26062060090E+02 -0.23863864048E+02  0.55668911681E+03  0.55780954434E+03  0.00000000000E+00 0. -1.
<scales pt_clust_3="56.18346" pt_clust_4="90.45256" pt_clust_5="31.97601" pt_clust_6="31.97601"></scales>
<clustering>
<clus scale="   31.976">  5  6 -1 -1</clus>
<clus scale="   56.183">  1  3  2 -1</clus>
<clus scale="   90.453">  2  4  1 -1</clus>
<clus scale="   90.453">  2  3  1 -1</clus>
</clustering>
</event>
<event>
 6    0  0.1622933E+002  0.9073371E+02  0.7546771E-02  0.1301085E+00
          2   -1    0    0  504    0 -0.00000000000E+00  0.00000000000E+00  0.10154730550E+04  0.10154730550E+04  0.00000000000E+00 0. -1.
         21   -1    0    0  505  502  0.00000000000E+00 -0.00000000000E+00 -0.23367739362E+03  0.23367739362E+03  0.00000000000E+00 0. -1.
         21    1    1    2  503  501  0.10574654005E+03  0.54963313884E+02  0.41988981971E+03  0.43647537995E+03  0.00000000000E+00 0. -1.
         21    1    1    2  504  502 -0.31845331129E+02 -0.88311932287E+01  0.70395763521E+02  0.77766822040E+02  0.00000000000E+00 0. -1.
         21    1    1    2  505  503 -0.46368016480E+02 -0.77711177412E+02 -0.21155748591E+03  0.23009908712E+03  0.00000000000E+00 0. -1.
          2    1    1    2  501    0 -0.27533192438E+02  0.31579056756E+02  0.50306756404E+03  0.50480915949E+03  0.00000000000E+00 0. -1.
<scales pt_clust_3="14000.00000" pt_clust_4="33.04716" pt_clust_5="90.73371" pt_clust_6="52.04248"></scales>
<clustering>
<clus scale="   33.047">  1  4  2 -1</clus>
<clus scale="   52.042">  1  6  2 -1</clus>
<clus scale="   90.734">  2  5  1 -1</clus>
<clus scale="   90.734">  2  3  1 -1</clus>
</clustering>
</event>
<event>
 6    0  0.1622933E+002  0.8710961E+02  0.7546771E-02  0.1310006E+00
          3   -1    0    0  503    0 -0.00000000000E+00  0.00000000000E+00  0.46483101214E+03  0.46483101214E+03  0.00000000000E+00 0.  1.
         21   -1    0    0  504  502  0.00000000000E+00 -0.00000000000E+00 -0.99078167937E+02  0.99078167937E+02  0.00000000000E+00 0. -1.
         21    1    1    2  503  505  0.53771027734E+02 -0.40064262353E+02  0.26474452629E+02  0.72092754029E+02  0.00000000000E+00 0. -1.
         21    1    1    2  504  501 -0.31518217927E+02  0.31573821582E+02  0.31419113425E+02  0.54566152137E+02  0.00000000000E+00 0. -1.
         21    1    1    2  505  502  0.45308252094E+02 -0.54793688461E+02 -0.37022145327E+02  0.80161245297E+02  0.00000000000E+00 0. -1.
          3    1    1    2  501    0 -0.67561061901E+02  0.63284129232E+02  0.34488142347E+03  0.35708902861E+03  0.00000000000E+00 0.  1.
<scales pt_clust_3="14000.00000" pt_clust_4="44.61283" pt_clust_5="41.45267" pt_clust_6="87.10961"></scales>
<clustering>
<clus scale="   44.613">  2  4  1 -1</clus>
<clus scale="   41.453">  2  5  1 -1</clus>
<clus scale="   87.110">  1  6  2 -1</clus>
<clus scale="   44.613">  2  3  1 -1</clus>
</clustering>
</event>
<event>
 6    0  0.1622933E+002  0.2880288E+03  0.7546771E-02  0.1091383E+00
         21   -1    0    0  504  502  0.00000000000E+00  0.00000000000E+00  0.99054979230E+02  0.99054979230E+02  0.00000000000E+00 0. -1.
          2   -1    0    0  503    0 -0.00000000000E+00 -0.00000000000E+00 -0.96862127780E+03  0.96862127780E+03  0.00000000000E+00 0. -1.
         21    1    1    2  503  505 -0.10434383193E+02  0.29187913173E+02 -0.61415468874E+02  0.68794407077E+02  0.00000000000E+00 0. -1.
         21    1    1    2  504  501 -0.59752274438E+02 -0.42301063404E+01 -0.53934137328E+02  0.80604709971E+02  0.00000000000E+00 0.  1.
         21    1    1    2  505  502  0.25410518289E+03  0.11293109365E+03 -0.52249227902E+03  0.59187925924E+03  0.00000000000E+00 0. -1.
          2    1    1    2  501    0 -0.18391852526E+03 -0.13788890049E+03 -0.23172441334E+03  0.32639788074E+03  0.00000000000E+00 0. -1.
<scales pt_clust_3="30.99695" pt_clust_4="34.54430" pt_clust_5="280.14914" pt_clust_6="34.54430"></scales>
<clustering>
<clus scale="   30.997">  2  3  1 -1</clus>
<clus scale="   34.544">  4  6 -1 -1</clus>
<clus scale="  280.149">  2  5  1 -1</clus>
<clus scale="  288.029">  1  3  2 -1</clus>
</clustering>
</event>
<event>
 6    0  0.1622933E+002  0.1049730E+03  0.7546771E-02  0.1270173E+00
         21   -1    0    0  503  502  0.00000000000E+00  0.00000000000E+00  0.68887830843E+02  0.68887830843E+02  0.00000000000E+00 0.  1.
          2   -1    0    0  505    0 -0.00000000000E+00 -0.00000000000E+00 -0.24045789336E+04  0.24045789336E+04  0.00000000000E+00 0.  1.
         21    1    1    2  503  501 -0.10594353844E+03  0.11706143081E+00  0.22379494246E+02  0.10828152568E+03  0.00000000000E+00 0.  1.
         21    1    1    2  504  502  0.27713124038E+02  0.40016293015E+02 -0.31198972865E+03  0.31576401273E+03  0.00000000000E+00 0.  1.
         21    1    1    2  505  504  0.13675682931E+02 -0.30506186466E+02 -0.25897983381E+03  0.26112871546E+03  0.00000000000E+00 0.  1.
          2    1    1    2  501    0  0.64554731474E+02 -0.96271679799E+01 -0.17871010345E+04  0.17882925106E+04  0.00000000000E+00 0.  1.
<scales pt_clust_3="104.97302" pt_clust_4="46.33425" pt_clust_5="33.43130" pt_clust_6="14000.00000"></scales>
<clustering>
<clus scale="   33.431">  2  5  1 -1</clus>
<clus scale="   46.334">  2  4  1 -1</clus>
<clus scale="  104.973">  1  3  2 -1</clus>
<clus scale="  104.973">  1  3  2 -1</clus>
</clustering>
</event>
<event>
 6    0  0.1622933E+002  0.6813898E+02  0.7546771E-02  0.1366538E+00
          1   -1    0    0  503    0 -0.00000000000E+00  0.00000000000E+00  0.44735345798E+03  0.44735345798E+03  0.00000000000E+00 0.  1.
         21   -1    0    0  501  502  0.00000000000E+00 -0.00000000000E+00 -0.10679746029E+04  0.10679746029E+04  0.00000000000E+00 0.  1.
         21    1    1    2  503  505 -0.66829084766E+02  0.35422017134E+01  0.33499278026E+03  0.34161211423E+03  0.00000000000E+00 0.  1.
         21    1    1    2  504  502  0.34621627373E+02 -0.16271297047E+02 -0.10143635220E+04  0.10150846108E+04  0.00000000000E+00 0.  1.
         21    1    1    2  505  504 -0.45294347702E+02  0.43805528332E+02  0.33684391236E+02  0.71450265634E+02  0.00000000000E+00 0.  1.
          1    1    1    2  501    0  0.77501805095E+02 -0.31076432998E+02  0.25065205596E+02  0.87181070265E+02  0.00000000000E+00 0.  1.
<scales pt_clust_3="68.13898" pt_clust_4="38.25457" pt_clust_5="50.36719" pt_clust_6="14000.00000"></scales>
<clustering>
<clus scale="   38.255">  2  4  1 -1</clus>
<clus scale="   50.367">  2  5  1 -1</clus>
<clus scale="   68.139">  1  3  2 -1</clus>
<clus scale="   38.255">  2  3  1 -1</clus>
</clustering>
</event>
<event>
 6    0  0.1622933E+002  0.7934074E+02  0.7546771E-02  0.1330933E+00
         21   -1    0    0  503  502  0.00000000000E+00  0.00000000000E+00  0.86682363146E+02  0.86682363146E+02  0.00000000000E+00 0.  1.
          1   -1    0    0  504    0 -0.00000000000E+00 -0.00000000000E+00 -0.16799329074E+04  0.16799329074E+04  0.00000000000E+00 0.  1.
         21    1    1    2  503  501  0.17385726279E+02 -0.26830299443E+02  0.72451854967E+02  0.79192169654E+02  0.00000000000E+00 0.  1.
         21    1    1    2  504  505  0.38469930565E+02 -0.68214324931E+02 -0.87761658582E+03  0.88110385392E+03  0.00000000000E+00 0.  1.
         21    1    1    2  505  502 -0.93271646954E+02  0.35010144881E+02 -0.44475650505E+03  0.45577808103E+03  0.00000000000E+00 0.  1.
          1    1    1    2  501    0  0.37415990110E+02  0.60034479492E+02 -0.34332930837E+03  0.35054116596E+03  0.00000000000E+00 0.  1.
<scales pt_clust_3="31.97074" pt_clust_4="79.34074" pt_clust_5="14000.00000" pt_clust_6="66.92627"></scales>
<clustering>
<clus scale="   31.971">  1  3  2 -1</clus>
<clus scale="   66.926">  1  6  2 -1</clus>
<clus scale="   79.341">  2  4  1 -1</clus>
<clus scale="   31.971">  1  3  2 -1</clus>
</clustering>
</event>
<event>
 6    0  0.1622933E+002  0.1205208E+03  0.7546771E-02  0.1242240E+00
         21   -1    0    0  501  502  0.00000000000E+00  0.00000000000E+00  0.38580550281E+03  0.38580550281E+03  0.00000000000E+00 0.  1.
          1   -1    0    0  503    0 -0.00000000000E+00 -0.00000000000E+00 -0.73111410366E+03  0.73111410366E+03  0.00000000000E+00 0.  1.
         21    1    1    2  503  504  0.12527608841E+02 -0.28861585748E+02 -0.34652982026E+03  0.34795523914E+03  0.00000000000E+00 0.  1.
         21    1    1    2  504  505 -0.39034294861E+02  0.85900783782E+02 -0.25439893064E+03  0.27133270489E+03  0.00000000000E+00 0.  1.
         21    1    1    2  505  502  0.10210930441E+03 -0.66940910243E+02  0.35324997141E+03  0.37375518433E+03  0.00000000000E+00 0.  1.
          1    1    1    2  501    0 -0.75602618388E+02  0.99017122097E+01 -0.97629821355E+02  0.12387647811E+03  0.00000000000E+00 0.  1.
<scales pt_clust_3="31.46319" pt_clust_4="120.52076" pt_clust_5="14000.00000" pt_clust_6="72.00542"></scales>
<clustering>
<clus scale="   31.463">  2  3  1 -1</clus>
<clus scale="   72.005">  2  6  1 -1</clus>
<clus scale="  120.521">  2  4  1 -1</clus>
<clus scale="  120.521">  1  3  2 -1</clus>
</clustering>
</event>
<event>
 6    0  0.1622933E+002  0.8792377E+02  0.7546771E-02  0.1307959E+00
         -1   -1    0    0    0  501 -0.00000000000E+00  0.00000000000E+00  0.11344754626E+03  0.11344754626E+03  0.00000000000E+00 0.  1.
         21   -1    0    0  504  502  0.00000000000E+00 -0.00000000000E+00 -0.44093441727E+03  0.44093441727E+03  0.00000000000E+00 0. -1.
         21    1    1    2  503  501  0.42971943284E+02  0.49974775766E+02  0.53190679718E+01  0.66123812704E+02  0.00000000000E+00 0.  1.
         21    1    1    2  504  505  0.94310635029E+01 -0.51411514965E+02 -0.29626095985E+03  0.30083657551E+03  0.00000000000E+00 0. -1.
         21    1    1    2  505  503  0.12883296433E+02 -0.76779268919E+02 -0.35423738314E+02  0.85532898342E+02  0.00000000000E+00 0. -1.
         -1    1    1    2    0  502 -0.65286303220E+02  0.78216008118E+02 -0.11212408170E+01  0.10188867697E+03  0.00000000000E+00 0.  1.
<scales pt_clust_3="59.53572" pt_clust_4="52.26939" pt_clust_5="14000.00000" pt_clust_6="87.92377"></scales>
<clustering>
<clus scale="   52.269">  2  4  1 -1</clus>
<clus scale="   59.536">  1  3  2 -1</clus>
<clus scale="   87.924">  2  6  1 -1</clus>
<clus scale="   52.269">  2  3  1 -1</clus>
</clustering>
</event>
<event>
 6    0  0.1622933E+002  0.1374281E+03  0.7546771E-02  0.1216832E+00
         21   -1    0    0  503  502  0.00000000000E+00  0.00000000000E+00  0.42187758745E+02  0.42187758745E+02  0.00000000000E+00 0.  1.
          2   -1    0    0  505    0 -0.00000000000E+00 -0.00000000000E+00 -0.11463075762E+04  0.11463075762E+04  0.00000000000E+00 0.  1.
         21    1    1    2  503  504  0.51681876159E+02 -0.63830238425E+02 -0.51168572260E+02  0.96765378354E+02  0.00000000000E+00 0.  1.
         21    1    1    2  504  501 -0.54557362186E+02  0.11353172418E+03 -0.35950798501E+03  0.38093562376E+03  0.00000000000E+00 0.  1.
         21    1    1    2  505  502 -0.18411081671E+01 -0.10260761501E+03 -0.43379085811E+03  0.44576475961E+03  0.00000000000E+00 0.  1.
          2    1    1    2  501    0  0.47165941942E+01  0.52906129259E+02 -0.25965240209E+03  0.26502957323E+03  0.00000000000E+00 0.  1.
<scales pt_clust_3="82.12987" pt_clust_4="39.63739" pt_clust_5="123.12875" pt_clust_6="39.63739"></scales>
<clustering>
<clus scale="   39.637">  4  6 -1 -1</clus>
<clus scale="   82.130">  1  3  2 -1</clus>
<clus scale="  123.129">  2  5  1 -1</clus>
<clus scale="   82.130">  1  3  2 -1</clus>
</clustering>
</event>
<event>
 6    0  0.1622933E+002  0.9039584E+02  0.7546771E-02  0.1301896E+00
         21   -1    0    0  504  502  0.00000000000E+00  0.00000000000E+00  0.11546607316E+03  0.11546607316E+03  0.00000000000E+00 0. -1.
          2   -1    0    0  505    0 -0.00000000000E+00 -0.00000000000E+00 -0.14828155938E+04  0.14828155938E+04  0.00000000000E+00 0. -1.
         21    1    1    2  503  502 -0.80529628447E+02  0.38448364157E+02  0.74361728764E+02  0.11615922034E+03  0.00000000000E+00 0. -1.
         21    1    1    2  504  501 -0.23623674843E+02  0.50315026612E+02 -0.89174944503E+02  0.10508021052E+03  0.00000000000E+00 0. -1.
         21    1    1    2  505  503  0.97662581809E+02 -0.34959191137E+02 -0.22019651856E+03  0.24340630993E+03  0.00000000000E+00 0. -1.
          2    1    1    2  501    0  0.64907214814E+01 -0.53804199632E+02 -0.11323397863E+04  0.11336359262E+04  0.00000000000E+00 0. -1.
<scales pt_clust_3="90.39584" pt_clust_4="41.56544" pt_clust_5="14000.00000" pt_clust_6="54.19429"></scales>
<clustering>
<clus scale="   54.194">  2  6  1 -1</clus>
<clus scale="   41.565">  2  4  1 -1</clus>
<clus scale="   90.396">  1  3  2 -1</clus>
<clus scale="   90.396">  1  3  2 -1</clus>
</clustering>
</event>
<event>
 6    0  0.1622933E+002  0.1335220E+03  0.7546771E-02  0.1222321E+00
         21   -1    0    0  505  502  0.00000000000E+00  0.00000000000E+00  0.18427605398E+03  0.18427605398E+03  0.00000000000E+00 0. -1.
          2   -1    0    0  504    0 -0.00000000000E+00 -0.00000000000E+00 -0.24229406080E+04  0.24229406080E+04  0.00000000000E+00 0. -1.
         21    1    1    2  503  502 -0.11193613366E+01 -0.40460441631E+02  0.83891675938E+02  0.93145657969E+02  0.00000000000E+00 0. -1.
         21    1    1    2  504  503 -0.46410629289E+02 -0.10648213566E+03 -0.23425106350E+04  0.23453887667E+04  0.00000000000E+00 0. -1.
         21    1    1    2  505  501  0.36417868266E+02  0.26168220142E+02 -0.41132432581E+01  0.45032828521E+02  0.00000000000E+00 0. -1.
          2    1    1    2  501    0  0.11112122359E+02  0.12077435715E+03  0.24067648303E+02  0.12364940882E+03  0.00000000000E+00 0. -1.
<scales pt_clust_3="40.47592" pt_clust_4="116.72110" pt_clust_5="39.42749" pt_clust_6="39.42749"></scales>
<clustering>
<clus scale="   39.427">  5  6 -1 -1</clus>
<clus scale="   40.476">  1  3  2 -1</clus>
<clus scale="  116.721">  2  4  1 -1</clus>
<clus scale="   40.476">  1  3  2 -1</clus>
</clustering>
</event>
<event>
 6    0  0.1622933E+002  0.1204485E+03  0.7546771E-02  0.1242359E+00
          2   -1    0    0  504    0 -0.00000000000E+00  0.00000000000E+00  0.14429049554E+04  0.14429049554E+04  0.00000000000E+00 0. -1.
         21   -1    0    0  505  502  0.00000000000E+00 -0.00000000000E+00 -0.19010719351E+03  0.19010719351E+03  0.00000000000E+00 0. -1.
         21    1    1    2  503  502 -0.12742970533E+03  0.30703384973E+02 -0.14601527564E+03  0.19621796138E+03  0.00000000000E+00 0. -1.
         21    1    1    2  504  503  0.16319666702E+02  0.31098710653E+02  0.70470853785E+03  0.70558315218E+03  0.00000000000E+00 0. -1.
         21    1    1    2  505  501  0.76953938059E+02 -0.25464842547E+02  0.76051913740E+02  0.11114972052E+03  0.00000000000E+00 0. -1.
          2    1    1    2  501    0  0.34156100565E+02 -0.36337253079E+02  0.61805258591E+03  0.62006131480E+03  0.00000000000E+00 0. -1.
<scales pt_clust_3="14000.00000" pt_clust_4="35.12067" pt_clust_5="120.44845" pt_clust_6="48.93389"></scales>
<clustering>
<clus scale="   35.121">  1  4  2 -1</clus>
<clus scale="   48.934">  1  6  2 -1</clus>
<clus scale="  120.448">  1  5  2 -1</clus>
<clus scale="  120.448">  2  3  1 -1</clus>
</clustering>
</event>
<event>
 6    0  0.1622933E+002  0.9407882E+02  0.7546771E-02  0.1293264E+00
         21   -1    0    0  505  502  0.00000000000E+00  0.00000000000E+00  0.11498561643E+04  0.11498561643E+04  0.00000000000E+00 0.  1.
          3   -1    0    0  504    0 -0.00000000000E+00 -0.00000000000E+00 -0.29948582864E+03  0.29948582864E+03  0.00000000000E+00 0. -1.
         21    1    1    2  503  502 -0.68541169887E+02  0.16147789093E+01 -0.38012941888E+02  0.78393132552E+02  0.00000000000E+00 0. -1.
         21    1    1    2  504  503 -0.49947403526E+02  0.54734545328E+01 -0.10809482161E+03  0.11920231660E+03  0.00000000000E+00 0. -1.
         21    1    1    2  505  501  0.89073908904E+02 -0.33289194689E+02  0.11190076223E+04  0.11230406896E+04  0.00000000000E+00 0.  1.
          3    1    1    2  501    0  0.29414664510E+02  0.26200961247E+02 -0.12252952315E+03  0.12870585419E+03  0.00000000000E+00 0. -1.
<scales pt_clust_3="94.07882" pt_clust_4="38.13788" pt_clust_5="14000.00000" pt_clust_6="39.39179"></scales>
<clustering>
<clus scale="   39.392">  2  6  1 -1</clus>
<clus scale="   38.138">  2  4  1 -1</clus>
<clus scale="   94.079">  2  3  1 -1</clus>
<clus scale="   94.079">  1  3  2 -1</clus>
</clustering>
</event>
<event>
 6    0  0.1622933E+002  0.1926012E+03  0.7546771E-02  0.1156136E+00
         21   -1    0    0  503  502  0.00000000000E+00  0.00000000000E+00  0.10223326368E+03  0.10223326368E+03  0.00000000000E+00 0.  1.
          2   -1    0    0  504    0 -0.00000000000E+00 -0.00000000000E+00 -0.16265023300E+04  0.16265023300E+04  0.00000000000E+00 0.  1.
         21    1    1    2  503  501  0.61052020837E+02  0.19786686327E+03 -0.36742086930E+02  0.21030602887E+03  0.00000000000E+00 0.  1.
         21    1    1    2  504  505  0.95849349654E+01  0.30539986506E+02 -0.19705865141E+03  0.19964136307E+03  0.00000000000E+00 0.  1.
         21    1    1    2  505  502 -0.86808616563E+02 -0.89443888940E+02 -0.76143605622E+03  0.77157035511E+03  0.00000000000E+00 0.  1.
          2    1    1    2  501    0  0.16171660761E+02 -0.13896296084E+03 -0.52903227174E+03  0.54721784660E+03  0.00000000000E+00 0.  1.
<scales pt_clust_3="192.60123" pt_clust_4="32.00878" pt_clust_5="109.57082" pt_clust_6="14000.00000"></scales>
<clustering>
<clus scale="   32.009">  2  4  1 -1</clus>
<clus scale="  109.571">  2  5  1 -1</clus>
<clus scale="  192.601">  1  3  2 -1</clus>
<clus scale="  192.601">  1  3  2 -1</clus>
</clustering>
</event>
<event>
 6    0  0.1622933E+002  0.1009203E+03  0.7546771E-02  0.1278372E+00
         -3   -1    0    0    0  501 -0.00000000000E+00  0.00000000000E+00  0.15962544685E+03  0.15962544685E+03  0.00000000000E+00 0. -1.
         21   -1    0    0  503  502  0.00000000000E+00 -0.00000000000E+00 -0.10535252489E+04  0.10535252489E+04  0.00000000000E+00 0. -1.
         21    1    1    2  503  501 -0.23582200743E+02  0.27429680422E+02 -0.26215038498E+02  0.44673658944E+02  0.00000000000E+00 0.  1.
         21    1    1    2  504  502 -0.38529933317E+02  0.37323397384E+02 -0.92261145742E+03  0.92416962357E+03  0.00000000000E+00 0. -1.
         21    1    1    2  505  504  0.92816760124E+02 -0.11865879209E+03 -0.14330344436E+02  0.15132818201E+03  0.00000000000E+00 0. -1.
         -3    1    1    2    0  505 -0.30704626064E+02  0.53905714279E+02  0.69257038286E+02  0.92979231260E+02  0.00000000000E+00 0. -1.
<scales pt_clust_3="36.17330" pt_clust_4="53.82980" pt_clust_5="14000.00000" pt_clust_6="100.92035"></scales>
<clustering>
<clus scale="   36.173">  1  3  2 -1</clus>
<clus scale="   53.830">  2  4  1 -1</clus>
<clus scale="  100.920">  1  6  2 -1</clus>
<clus scale="   53.830">  2  3  1 -1</clus>
</clustering>
</event>
<event>
 6    0  0.1622933E+002  0.8699401E+02  0.7546771E-02  0.1310299E+00
         21   -1    0    0  505  502  0.00000000000E+00  0.00000000000E+00  0.11057023555E+03  0.11057023555E+03  0.00000000000E+00 0. -1.
         -1   -1    0    0    0  501 -0.00000000000E+00 -0.00000000000E+00 -0.11910509204E+04  0.11910509204E+04  0.00000000000E+00 0. -1.
         21    1    1    2  503  504 -0.38147842768E+02  0.21793270205E+02 -0.11996754083E+03  0.12775920862E+03  0.00000000000E+00 0.  1.
         21    1    1    2  504  501  0.61178371269E+01  0.30435511850E+02 -0.14302561642E+03  0.14635598814E+03  0.00000000000E+00 0. -1.
         21    1    1    2  505  503  0.82863635348E+02  0.27374129498E+02  0.83974693256E+02  0.12110934785E+03  0.00000000000E+00 0. -1.
         -1    1    1    2    0  502 -0.50833629707E+02 -0.79602911553E+02 -0.90146222084E+03  0.90639661133E+03  0.00000000000E+00 0. -1.
<scales pt_clust_3="45.22710" pt_clust_4="31.04430" pt_clust_5="86.99401" pt_clust_6="14000.00000"></scales>
<clustering>
<clus scale="   31.044">  2  4  1 -1</clus>
<clus scale="   45.227">  2  3  1 -1</clus>
<clus scale="   86.994">  1  5  2 -1</clus>
<clus scale="   86.994">  1  3  2 -1</clus>
</clustering>
</event>
<event>
 6    0  0.1622933E+002  0.1411642E+03  0.7546771E-02  0.1211771E+00
         21   -1    0    0  501  502  0.00000000000E+00  0.00000000000E+00  0.17061733921E+04  0.17061733921E+04  0.00000000000E+00 0.  1.
          1   -1    0    0  505    0 -0.00000000000E+00 -0.00000000000E+00 -0.17365936869E+04  0.17365936869E+04  0.00000000000E+00 0.  1.
         21    1    1    2  503  504 -0.47188774285E+02  0.74424469921E+02 -0.10005946466E+03  0.13333296145E+03  0.00000000000E+00 0. -1.
         21    1    1    2  504  502  0.21175791774E+02 -0.21656369512E+02  0.16733185992E+04  0.16735927064E+04  0.00000000000E+00 0.  1.
         21    1    1    2  505  503  0.19805016432E+02  0.70414457090E+02 -0.84909958018E+02  0.11207200995E+03  0.00000000000E+00 0. -1.
          1    1    1    2  501    0  0.62079660791E+01 -0.12318255750E+03 -0.15187694713E+04  0.15237694013E+04  0.00000000000E+00 0.  1.
<scales pt_clust_3="62.98530" pt_clust_4="30.28882" pt_clust_5="62.98530" pt_clust_6="125.08239"></scales>
<clustering>
<clus scale="   30.289">  1  4  2 -1</clus>
<clus scale="   62.985">  3  5 -1 -1</clus>
<clus scale="  125.082">  2  6  1 -1</clus>
<clus scale="   30.289">  1  3  2 -1</clus>
</clustering>
</event>
<event>
 6    0  0.1622933E+002  0.1645715E+03  0.7546771E-02  0.1183630E+00
          2   -1    0    0  503    0 -0.00000000000E+00  0.00000000000E+00  0.43215137470E+04  0.43215137470E+04  0.00000000000E+00 0. -1.
         21   -1    0    0  501  502  0.00000000000E+00 -0.00000000000E+00 -0.31012770212E+03  0.31012770212E+03  0.00000000000E+00 0. -1.
         21    1    1    2  503  505  0.26627495776E+01 -0.54256975694E+02  0.56059791957E+03  0.56322370074E+03  0.00000000000E+00 0.  1.
         21    1    1    2  504  502 -0.33326013513E+02 -0.15941268068E+03 -0.25382125208E+03  0.30157628214E+03  0.00000000000E+00 0. -1.
         21    1    1    2  505  504  0.17397014325E+03  0.16493325528E+03  0.46013386737E+03  0.51883693521E+03  0.00000000000E+00 0. -1.
          2    1    1    2  501    0 -0.14330687931E+03  0.48736401093E+02  0.32444755100E+04  0.32480045310E+04  0.00000000000E+00 0. -1.
<scales pt_clust_3="54.32228" pt_clust_4="164.57145" pt_clust_5="14000.00000" pt_clust_6="141.02036"></scales>
<clustering>
<clus scale="   54.322">  1  3  2 -1</clus>
<clus scale="  141.020">  1  6  2 -1</clus>
<clus scale="  164.571">  2  4  1 -1</clus>
<clus scale="  164.571">  2  3  1 -1</clus>
</clustering>
</event>
<event>
 6    0  0.1622933E+002  0.1152394E+03  0.7546771E-02  0.1251164E+00
          2   -1    0    0  504    0 -0.00000000000E+00  0.00000000000E+00  0.85231244851E+02  0.85231244851E+02  0.00000000000E+00 0. -1.
         21   -1    0    0  505  502  0.00000000000E+00 -0.00000000000E+00 -0.24929855178E+03  0.24929855178E+03  0.00000000000E+00 0. -1.
         21    1    1    2  503  501  0.48627640781E+02  0.29843621497E+02 -0.31959787899E+02  0.65396614855E+02  0.00000000000E+00 0. -1.
         21    1    1    2  504  502  0.68499128549E+01  0.36069524360E+02  0.13504019383E+02  0.39118926789E+02  0.00000000000E+00 0. -1.
         21    1    1    2  505  503  0.33115689596E+02  0.19799723189E+02 -0.83494001852E+02  0.91977857558E+02  0.00000000000E+00 0. -1.
          2    1    1    2  501    0 -0.88593243231E+02 -0.85712869045E+02 -0.62117536559E+02  0.13803639743E+03  0.00000000000E+00 0. -1.
<scales pt_clust_3="37.86509" pt_clust_4="36.71419" pt_clust_5="37.86509" pt_clust_6="104.83036"></scales>
<clustering>
<clus scale="   36.714">  1  4  2 -1</clus>
<clus scale="   37.865">  3  5 -1 -1</clus>
<clus scale="  104.830">  1  6  2 -1</clus>
<clus scale="  115.239">  2  3  1 -1</clus>
</clustering>
</event>
<event>
 6    0  0.1622933E+002  0.8713988E+02  0.7546771E-02  0.1309930E+00
          1   -1    0    0  505    0 -0.00000000000E+00  0.00000000000E+00  0.16649359343E+04  0.16649359343E+04  0.00000000000E+00 0.  1.
         21   -1    0    0  504  502  0.00000000000E+00 -0.00000000000E+00 -0.77328036166E+02  0.77328036166E+02  0.00000000000E+00 0.  1.
         21    1    1    2  503  502 -0.70485976278E+02  0.14027595736E+01  0.15943671956E+03  0.17432816218E+03  0.00000000000E+00 0.  1.
         21    1    1    2  504  501 -0.33428734449E+02 -0.26331573660E+01 -0.55142472286E+02  0.64537632854E+02  0.00000000000E+00 0.  1.
         21    1    1    2  505  503  0.48395224172E+01  0.54187208035E+02  0.11571844400E+04  0.11584625598E+04  0.00000000000E+00 0.  1.
          1    1    1    2  501    0  0.99075188310E+02 -0.52956810243E+02  0.32612921086E+03  0.34493561554E+03  0.00000000000E+00 0.  1.
<scales pt_clust_3="87.13988" pt_clust_4="33.53228" pt_clust_5="54.21185" pt_clust_6="14000.00000"></scales>
<clustering>
<clus scale="   33.532">  2  4  1 -1</clus>
<clus scale="   54.212">  1  5  2 -1</clus>
<clus scale="   87.140">  2  3  1 -1</clus>
<clus scale="   33.532">  2  3  1 -1</clus>
</clustering>
</event>
<event>
 6    0  0.1622933E+002  0.1162496E+03  0.7546771E-02  0.1249415E+00
         21   -1    0    0  504  502  0.00000000000E+00  0.00000000000E+00  0.31716190276E+03  0.31716190276E+03  0.00000000000E+00 0. -1.
          2   -1    0    0  505    0 -0.00000000000E+00 -0.00000000000E+00 -0.12171593604E+04  0.12171593604E+04  0.00000000000E+00 0.  1.
         21    1    1    2  503  501 -0.34289454831E+02 -0.60286464794E+02 -0.64811136556E+02  0.94924748994E+02  0.00000000000E+00 0.  1.
         21    1    1    2  504  503  0.22309541663E+02  0.33082480051E+02  0.28114438581E+03  0.28396184922E+03  0.00000000000E+00 0. -1.
         21    1    1    2  505  502 -0.96462024183E+02 -0.25301567356E+02 -0.14106827856E+03  0.17275806967E+03  0.00000000000E+00 0.  1.
          2    1    1    2  501    0  0.10844193735E+03  0.52505552098E+02 -0.97526242837E+03  0.98267659531E+03  0.00000000000E+00 0.  1.
<scales pt_clust_3="52.06323" pt_clust_4="39.90196" pt_clust_5="116.24964" pt_clust_6="14000.00000"></scales>
<clustering>
<clus scale="   39.902">  1  4  2 -1</clus>
<clus scale="   52.063">  1  3  2 -1</clus>
<clus scale="  116.250">  1  5  2 -1</clus>
<clus scale="   39.902">  1  3  2 -1</clus>
</clustering>
</event>
<event>
 6    0  0.1622933E+002  0.1125480E+03  0.7546771E-02  0.1255923E+00
          2   -1    0    0  503    0 -0.00000000000E+00  0.00000000000E+00  0.65700402774E+03  0.65700402774E+03  0.00000000000E+00 0. -1.
         21   -1    0    0  505  502  0.00000000000E+00 -0.00000000000E+00 -0.41261109290E+03  0.41261109290E+03  0.00000000000E+00 0. -1.
         21    1    1    2  503  504 -0.28959532715E+02 -0.18491691344E+02  0.12259738808E+03  0.12732131301E+03  0.00000000000E+00 0.  1.
         21    1    1    2  504  502  0.44919901332E+02 -0.67279693636E+02  0.30739498355E+02  0.86540577017E+02  0.00000000000E+00 0. -1.
         21    1    1    2  505  501  0.59667653625E+02 -0.58287792909E+01 -0.37246219249E+03  0.37725626355E+03  0.00000000000E+00 0. -1.
          2    1    1    2  501    0 -0.75628022241E+02  0.91600164271E+02  0.46351824090E+03  0.47849696706E+03  0.00000000000E+00 0. -1.
<scales pt_clust_3="34.35982" pt_clust_4="112.54797" pt_clust_5="59.83000" pt_clust_6="14000.00000"></scales>
<clustering>
<clus scale="   34.360">  1  3  2 -1</clus>
<clus scale="   59.830">  2  5  1 -1</clus>
<clus scale="  112.548">  2  4  1 -1</clus>
<clus scale="   59.830">  2  3  1 -1</clus>
</clustering>
</event>
<event>
 6    0  0.1622933E+002  0.1119594E+03  0.7546771E-02  0.1256984E+00
         21   -1    0    0  503  502  0.00000000000E+00  0.00000000000E+00  0.43629810979E+03  0.43629810979E+03  0.00000000000E+00 0. -1.
          1   -1    0    0  505    0 -0.00000000000E+00 -0.00000000000E+00 -0.98938225680E+03  0.98938225680E+03  0.00000000000E+00 0.  1.
         21    1    1    2  503  504 -0.50392761977E+02 -0.44193829911E+01  0.40825461202E+03  0.41137670041E+03  0.00000000000E+00 0. -1.
         21    1    1    2  504  501  0.46412556981E+02 -0.42544757335E+02 -0.11879189999E+03  0.13444588995E+03  0.00000000000E+00 0.  1.
         21    1    1    2  505  502 -0.10861935326E+03  0.23430089184E+02 -0.21671320853E+03  0.24354003313E+03  0.00000000000E+00 0. -1.
          1    1    1    2  501    0  0.11259955826E+03  0.23534051141E+02 -0.62583365050E+03  0.63631774310E+03  0.00000000000E+00 0.  1.
<scales pt_clust_3="50.58618" pt_clust_4="54.00312" pt_clust_5="14000.00000" pt_clust_6="111.95941"></scales>
<clustering>
<clus scale="   50.586">  1  3  2 -1</clus>
<clus scale="   54.003">  1  4  2 -1</clus>
<clus scale="  111.959">  2  6  1 -1</clus>
<clus scale="   50.586">  1  3  2 -1</clus>
</clustering>
</event>
<event>
 6    0  0.1622933E+002  0.8371993E+02  0.7546771E-02  0.1318814E+00
          1   -1    0    0  503    0 -0.00000000000E+00  0.00000000000E+00  0.10378104909E+04  0.10378104909E+04  0.00000000000E+00 0. -1.
         21   -1    0    0  504  502  0.00000000000E+00 -0.00000000000E+00 -0.36285555436E+02  0.36285555436E+02  0.00000000000E+00 0. -1.
         21    1    1    2  503  502 -0.50664712214E+02 -0.31397991211E+01  0.43062051958E+03  0.43360212555E+03  0.00000000000E+00 0. -1.
         21    1    1    2  504  505  0.15801749491E+02  0.48897937511E+02  0.11329511549E+02  0.52621871990E+02  0.00000000000E+00 0.  1.
         21    1    1    2  505  501  0.73510828747E+02  0.21274139243E+02  0.12578596650E+03  0.14723634168E+03  0.00000000000E+00 0. -1.
          1    1    1    2  501    0 -0.38647866024E+02 -0.67032277633E+02  0.43378893787E+03  0.44063570714E+03  0.00000000000E+00 0. -1.
<scales pt_clust_3="50.76191" pt_clust_4="50.46926" pt_clust_5="83.71993" pt_clust_6="14000.00000"></scales>
<clustering>
<clus scale="   50.762">  1  3  2 -1</clus>
<clus scale="   50.469">  2  4  1 -1</clus>
<clus scale="   83.720">  2  5  1 -1</clus>
<clus scale="   50.469">  2  3  1 -1</clus>
</clustering>
</event>
<event>
 6    0  0.1622933E+002  0.8702665E+02  0.7546771E-02  0.1310216E+00
         -2   -1    0    0    0  501 -0.00000000000E+00  0.00000000000E+00  0.95584402147E+02  0.95584402147E+02  0.00000000000E+00 0. -1.
         21   -1    0    0  504  502  0.00000000000E+00 -0.00000000000E+00 -0.28585536624E+03  0.28585536624E+03  0.00000000000E+00 0. -1.
         21    1    1    2  503  501 -0.30460871558E+02 -0.12844408440E+02 -0.29288340931E+01  0.33187672311E+02  0.00000000000E+00 0. -1.
         21    1    1    2  504  505 -0.80051691132E+02 -0.42732504547E+02 -0.18489872205E+03  0.20596571951E+03  0.00000000000E+00 0. -1.
         21    1    1    2  505  503  0.60613274544E+02  0.27499919965E+01 -0.25834472762E+02  0.65946580577E+02  0.00000000000E+00 0.  1.
         -2    1    1    2    0  502  0.49899288146E+02  0.52826920991E+02  0.23391064811E+02  0.76339795990E+02  0.00000000000E+00 0. -1.
<scales pt_clust_3="33.05818" pt_clust_4="14000.00000" pt_clust_5="53.02183" pt_clust_6="87.02665"></scales>
<clustering>
<clus scale="   33.058">  1  3  2 -1</clus>
<clus scale="   53.022">  1  5  2 -1</clus>
<clus scale="   87.027">  1  6  2 -1</clus>
<clus scale="   87.027">  2  3  1 -1</clus>
</clustering>
</event>
<event>
 6    0  0.1622933E+002  0.3684929E+03  0.7546771E-02  0.1055271E+00
         21   -1    0    0  505  502  0.00000000000E+00  0.00000000000E+00  0.37625635492E+03  0.37625635492E+03  0.00000000000E+00 0.  1.
          2   -1    0    0  504    0 -0.00000000000E+00 -0.00000000000E+00 -0.28740159880E+04  0.28740159880E+04  0.00000000000E+00 0. -1.
         21    1    1    2  503  502 -0.70132733302E+02  0.30198806631E+02  0.27515063264E+03  0.28554936324E+03  0.00000000000E+00 0.  1.
         21    1    1    2  504  503 -0.13153226524E+03  0.26500273281E+03 -0.18381505045E+03  0.34830325575E+03  0.00000000000E+00 0.  1.
         21    1    1    2  505  501  0.45918649858E+01 -0.78476339031E+02 -0.38494103318E+03  0.39288575952E+03  0.00000000000E+00 0. -1.
          2    1    1    2  501    0  0.19707313355E+03 -0.21672520041E+03 -0.22041541821E+04  0.22235339644E+04  0.00000000000E+00 0. -1.
<scales pt_clust_3="76.35816" pt_clust_4="348.36994" pt_clust_5="62.21902" pt_clust_6="62.21902"></scales>
<clustering>
<clus scale="   62.219">  5  6 -1 -1</clus>
<clus scale="   76.358">  1  3  2 -1</clus>
<clus scale="  348.370">  1  4  2 -1</clus>
<clus scale="   76.358">  1  3  2 -1</clus>
</clustering>
</event>
<event>
 6    0  0.1622933E+002  0.1099834E+03  0.7546771E-02  0.1260601E+00
         21   -1    0    0  504  502  0.00000000000E+00  0.00000000000E+00  0.24226957612E+02  0.24226957612E+02  0.00000000000E+00 0. -1.
          1   -1    0    0  503    0 -0.00000000000E+00 -0.00000000000E+00 -0.17918949348E+04  0.17918949348E+04  0.00000000000E+00 0.  1.
         21    1    1    2  503  502  0.10138503412E+03  0.27601470262E+02 -0.39510963316E+03  0.40884274302E+03  0.00000000000E+00 0. -1.
         21    1    1    2  504  505  0.19924024636E+02  0.31401872571E+02 -0.14266582587E+02  0.39831893469E+02  0.00000000000E+00 0. -1.
         21    1    1    2  505  501 -0.10854077372E+02 -0.39775398777E+02 -0.23651935526E+03  0.24008602366E+03  0.00000000000E+00 0. -1.
          1    1    1    2  501    0 -0.11045498138E+03 -0.19227944055E+02 -0.11217724062E+04  0.11273612323E+04  0.00000000000E+00 0.  1.
<scales pt_clust_3="14000.00000" pt_clust_4="37.18930" pt_clust_5="35.73256" pt_clust_6="109.98344"></scales>
<clustering>
<clus scale="   37.189">  1  4  2 -1</clus>
<clus scale="   35.733">  1  5  2 -1</clus>
<clus scale="  109.983">  2  6  1 -1</clus>
<clus scale="   37.189">  1  3  2 -1</clus>
</clustering>
</event>
<event>
 6    0  0.1622933E+002  0.1700096E+03  0.7546771E-02  0.1177838E+00
          1   -1    0    0  505    0 -0.00000000000E+00  0.00000000000E+00  0.10678291192E+04  0.10678291192E+04  0.00000000000E+00 0. -1.
         21   -1    0    0  501  502  0.00000000000E+00 -0.00000000000E+00 -0.56901308907E+03  0.56901308907E+03  0.00000000000E+00 0. -1.
         21    1    1    2  503  502  0.79323927962E+00  0.17034442298E+03 -0.51795091354E+03  0.54524398254E+03  0.00000000000E+00 0. -1.
         21    1    1    2  504  503  0.85958808450E+02 -0.16293459029E+03  0.22520365681E+03  0.29095237498E+03  0.00000000000E+00 0. -1.
         21    1    1    2  505  504 -0.34892011957E+02 -0.33028175549E+02  0.17826424971E+03  0.18462517597E+03  0.00000000000E+00 0. -1.
          1    1    1    2  501    0 -0.51860035773E+02  0.25618342857E+02  0.61329903715E+03  0.61602067479E+03  0.00000000000E+00 0. -1.
<scales pt_clust_3="170.00964" pt_clust_4="14000.00000" pt_clust_5="48.04490" pt_clust_6="76.10421"></scales>
<clustering>
<clus scale="   48.045">  1  5  2 -1</clus>
<clus scale="   76.104">  1  6  2 -1</clus>
<clus scale="  170.010">  2  3  1 -1</clus>
<clus scale="  170.010">  2  3  1 -1</clus>
</clustering>
</event>
<event>
 6    0  0.1622933E+002  0.1069368E+03  0.7546771E-02  0.1266350E+00
         21   -1    0    0  501  502  0.00000000000E+00  0.00000000000E+00  0.84258161530E+03  0.84258161530E+03  0.00000000000E+00 0.  1.
          1   -1    0    0  503    0 -0.00000000000E+00 -0.00000000000E+00 -0.10656858979E+03  0.10656858979E+03  0.00000000000E+00 0.  1.
         21    1    1    2  503  505  0.43158242525E+02  0.38481392585E+01 -0.43827777594E+02  0.61630480790E+02  0.00000000000E+00 0. -1.
         21    1    1    2  504  502  0.29729061700E+02 -0.16859457213E+02  0.53131345461E+03  0.53241153769E+03  0.00000000000E+00 0.  1.
         21    1    1    2  505  504  0.74553624513E+02  0.36832380153E+02  0.16303582321E+03  0.18301788657E+03  0.00000000000E+00 0.  1.
          1    1    1    2  501    0 -0.14744092874E+03 -0.23821062198E+02  0.85491525278E+02  0.17209030003E+03  0.00000000000E+00 0.  1.
<scales pt_clust_3="44.13838" pt_clust_4="34.17687" pt_clust_5="14000.00000" pt_clust_6="106.93680"></scales>
<clustering>
<clus scale="   34.177">  1  4  2 -1</clus>
<clus scale="   44.138">  2  3  1 -1</clus>
<clus scale="  106.937">  2  6  1 -1</clus>
<clus scale="   34.177">  1  3  2 -1</clus>
</clustering>
</event>
<event>
 6    0  0.1622933E+002  0.1643392E+03  0.7546771E-02  0.1183883E+00
          3   -1    0    0  503    0 -0.00000000000E+00  0.00000000000E+00  0.20684804768E+03  0.20684804768E+03  0.00000000000E+00 0. -1.
         21   -1    0    0  505  502  0.00000000000E+00 -0.00000000000E+00 -0.76960342570E+03  0.76960342570E+03  0.00000000000E+00 0.  1.
         21    1    1    2  503  502  0.54303956992E+02  0.12664871902E+03 -0.96946341042E+02  0.16848563979E+03  0.00000000000E+00 0.  1.
         21    1    1    2  504  501 -0.84423000835E+01 -0.50954192898E+02  0.48870904503E+02  0.71105326886E+02  0.00000000000E+00 0. -1.
         21    1    1    2  505  504  0.43555920392E+02  0.11850525068E+01 -0.59345058666E+03  0.59504799921E+03  0.00000000000E+00 0.  1.
          3    1    1    2  501    0 -0.89417577301E+02 -0.76879578627E+02  0.78770645186E+02  0.14181250750E+03  0.00000000000E+00 0. -1.
<scales pt_clust_3="154.54376" pt_clust_4="36.98779" pt_clust_5="43.57204" pt_clust_6="36.98779"></scales>
<clustering>
<clus scale="   36.988">  4  6 -1 -1</clus>
<clus scale="   43.572">  2  5  1 -1</clus>
<clus scale="  154.544">  2  3  1 -1</clus>
<clus scale="   43.572">  2  3  1 -1</clus>
</clustering>
</event>
<event>
 6    0  0.1622933E+002  0.8449581E+02  0.7546771E-02  0.1316756E+00
         21   -1    0    0  505  502  0.00000000000E+00  0.00000000000E+00  0.40313535877E+02  0.40313535877E+02  0.00000000000E+00 0. -1.
          2   -1    0    0  503    0 -0.00000000000E+00 -0.00000000000E+00 -0.66692019518E+03  0.66692019518E+03  0.00000000000E+00 0. -1.
         21    1    1    2  503  504 -0.15852026689E+02 -0.31275009909E+02 -0.25620174439E+03  0.25858992019E+03  0.00000000000E+00 0. -1.
         21    1    1    2  504  502 -0.25834258380E+02 -0.97579902497E+02 -0.17910486985E+03  0.20559134389E+03  0.00000000000E+00 0. -1.
         21    1    1    2  505  501  0.33932216646E+02  0.70579439361E+02 -0.58274683072E+02  0.97615527833E+02  0.00000000000E+00 0. -1.
          2    1    1    2  501    0  0.77540684223E+01  0.58275473045E+02 -0.13302536198E+03  0.14543693914E+03  0.00000000000E+00 0. -1.
<scales pt_clust_3="35.06299" pt_clust_4="84.49581" pt_clust_5="14000.00000" pt_clust_6="47.70116"></scales>
<clustering>
<clus scale="   35.063">  2  3  1 -1</clus>
<clus scale="   47.701">  2  6  1 -1</clus>
<clus scale="   84.496">  2  4  1 -1</clus>
<clus scale="   84.496">  1  3  2 -1</clus>
</clustering>
</event>
<event>
 6    0  0.1622933E+002  0.8885257E+02  0.7546771E-02  0.1305654E+00
         21   -1    0    0  503  502  0.00000000000E+00  0.00000000000E+00  0.30627783142E+03  0.30627783142E+03  0.00000000000E+00 0. -1.
          4   -1    0    0  505    0 -0.00000000000E+00 -0.00000000000E+00 -0.16025717909E+03  0.16025717909E+03  0.00000000000E+00 0. -1.
         21    1    1    2  503  501  0.30412507570E+02  0.61926536366E+01  0.37293319428E+02  0.48518669085E+02  0.00000000000E+00 0.  1.
         21    1    1    2  504  502 -0.40580014376E+02  0.29118892612E+02  0.16910306022E+03  0.17632496264E+03  0.00000000000E+00 0. -1.
         21    1    1    2  505  504 -0.71867126499E+02 -0.67187710485E+02  0.41750600536E+02  0.10687462260E+03  0.00000000000E+00 0. -1.
          4    1    1    2  501    0  0.82034633304E+02  0.31876164236E+02 -0.10212632785E+03  0.13481675618E+03  0.00000000000E+00 0. -1.
<scales pt_clust_3="31.03658" pt_clust_4="39.07371" pt_clust_5="88.85257" pt_clust_6="14000.00000"></scales>
<clustering>
<clus scale="   31.037">  1  3  2 -1</clus>
<clus scale="   39.074">  1  4  2 -1</clus>
<clus scale="   88.853">  1  5  2 -1</clus>
<clus scale="   31.037">  1  3  2 -1</clus>
</clustering>
</event>
<event>
 6    0  0.1622933E+002  0.1546722E+03  0.7546771E-02  0.1194847E+00
         21   -1    0    0  504  502  0.00000000000E+00  0.00000000000E+00  0.48887988415E+03  0.48887988415E+03  0.00000000000E+00 0.  1.
         -1   -1    0    0    0  501 -0.00000000000E+00 -0.00000000000E+00 -0.22893354365E+03  0.22893354365E+03  0.00000000000E+00 0. -1.
         21    1    1    2  503  502 -0.58079584886E+02  0.72275617927E+01  0.30907902099E+03  0.31457164056E+03  0.00000000000E+00 0.  1.
         21    1    1    2  504  501 -0.16298923601E+02 -0.29384959835E+02 -0.33409505936E+02  0.47384869547E+02  0.00000000000E+00 0. -1.
         21    1    1    2  505  503 -0.11104100793E+03 -0.13056460593E+02  0.86368597819E+02  0.14128025798E+03  0.00000000000E+00 0. -1.
         -1    1    1    2    0  505  0.18541951642E+03  0.35213858636E+02 -0.10209177237E+03  0.21457665971E+03  0.00000000000E+00 0. -1.
<scales pt_clust_3="58.71206" pt_clust_4="33.60254" pt_clust_5="14000.00000" pt_clust_6="154.67219"></scales>
<clustering>
<clus scale="   33.603">  2  4  1 -1</clus>
<clus scale="   58.712">  1  3  2 -1</clus>
<clus scale="  154.672">  2  6  1 -1</clus>
<clus scale="   58.712">  1  3  2 -1</clus>
</clustering>
</event>
<event>
 6    0  0.1622933E+002  0.8888320E+02  0.7546771E-02  0.1305579E+00
          2   -1    0    0  505    0 -0.00000000000E+00  0.00000000000E+00  0.65897304729E+03  0.65897304729E+03  0.00000000000E+00 0. -1.
         21   -1    0    0  501  502  0.00000000000E+00 -0.00000000000E+00 -0.14711146515E+03  0.14711146515E+03  0.00000000000E+00 0.  1.
         21    1    1    2  503  502 -0.73356349041E+02  0.46148362322E+02 -0.10070401360E+03  0.13286129476E+03  0.00000000000E+00 0.  1.
         21    1    1    2  504  503 -0.57588573408E+02  0.36150700068E+02  0.62955459016E+02  0.92664484688E+02  0.00000000000E+00 0. -1.
         21    1    1    2  505  504  0.19336521521E+02  0.25215623511E+02  0.10589402895E+03  0.11055891688E+03  0.00000000000E+00 0.  1.
          2    1    1    2  501    0  0.11160840093E+03 -0.10751468590E+03  0.44371610777E+03  0.46999981611E+03  0.00000000000E+00 0. -1.
<scales pt_clust_3="88.88320" pt_clust_4="67.72292" pt_clust_5="31.77623" pt_clust_6="14000.00000"></scales>
<clustering>
<clus scale="   31.776">  1  5  2 -1</clus>
<clus scale="   67.723">  1  4  2 -1</clus>
<clus scale="   88.883">  2  3  1 -1</clus>
<clus scale="   88.883">  2  3  1 -1</clus>
</clustering>
</event>
<event>
 6    0  0.1622933E+002  0.3379468E+03  0.7546771E-02  0.1067674E+00
         21   -1    0    0  501  502  0.00000000000E+00  0.00000000000E+00  0.17832073744E+04  0.17832073744E+04  0.00000000000E+00 0. -1.
          2   -1    0    0  504    0 -0.00000000000E+00 -0.00000000000E+00 -0.12469824364E+04  0.12469824364E+04  0.00000000000E+00 0.  1.
         21    1    1    2  503  502  0.33908118962E+03 -0.25238520846E+02  0.17091596959E+04  0.17426531216E+04  0.00000000000E+00 0. -1.
         21    1    1    2  504  505 -0.25739900015E+02 -0.40079533309E+02 -0.47386133467E+03  0.47624938419E+03  0.00000000000E+00 0.  1.
         21    1    1    2  505  503 -0.69845461163E+02 -0.27398218263E+02 -0.11373447705E+02  0.75884162522E+02  0.00000000000E+00 0. -1.
          2    1    1    2  501    0 -0.24349582844E+03  0.92716272418E+02 -0.68769997553E+03  0.73540314249E+03  0.00000000000E+00 0.  1.
<scales pt_clust_3="337.94681" pt_clust_4="47.63309" pt_clust_5="77.22467" pt_clust_6="14000.00000"></scales>
<clustering>
<clus scale="   47.633">  2  4  1 -1</clus>
<clus scale="   77.225">  2  5  1 -1</clus>
<clus scale="  337.947">  1  3  2 -1</clus>
<clus scale="  337.947">  1  3  2 -1</clus>
</clustering>
</event>
<event>
 6    0  0.1622933E+002  0.1601523E+03  0.7546771E-02  0.1188525E+00
          2   -1    0    0  505    0 -0.00000000000E+00  0.00000000000E+00  0.10323697704E+04  0.10323697704E+04  0.00000000000E+00 0.  1.
         21   -1    0    0  504  502  0.00000000000E+00 -0.00000000000E+00 -0.16766956906E+03  0.16766956906E+03  0.00000000000E+00 0.  1.
         21    1    1    2  503  502  0.73617406047E+02  0.11892380712E+03  0.22005441548E+03  0.26074190332E+03  0.00000000000E+00 0. -1.
         21    1    1    2  504  501 -0.52536375948E+02  0.50549788556E+02 -0.11921557208E+03  0.13974156342E+03  0.00000000000E+00 0.  1.
         21    1    1    2  505  503 -0.22387765104E+02  0.23766152788E+02  0.21943177739E+03  0.22184757599E+03  0.00000000000E+00 0. -1.
          2    1    1    2  501    0  0.13067350048E+01 -0.19323974847E+03  0.54442958059E+03  0.57770829678E+03  0.00000000000E+00 0.  1.
<scales pt_clust_3="14000.00000" pt_clust_4="73.31877" pt_clust_5="32.65030" pt_clust_6="160.15229"></scales>
<clustering>
<clus scale="   32.650">  1  5  2 -1</clus>
<clus scale="   73.319">  2  4  1 -1</clus>
<clus scale="  160.152">  1  6  2 -1</clus>
<clus scale="   73.319">  2  3  1 -1</clus>
</clustering>
</event>
<event>
 6    0  0.1622933E+002  0.1028710E+03  0.7546771E-02  0.1274372E+00
          2   -1    0    0  503    0 -0.00000000000E+00  0.00000000000E+00  0.91191098672E+03  0.91191098672E+03  0.00000000000E+00 0.  1.
         21   -1    0    0  501  502  0.00000000000E+00 -0.00000000000E+00 -0.20952445428E+03  0.20952445428E+03  0.00000000000E+00 0.  1.
         21    1    1    2  503  504 -0.89366540190E+01  0.41621435942E+02  0.42605176388E+02  0.60227973318E+02  0.00000000000E+00 0.  1.
         21    1    1    2  504  505  0.16047431996E+02 -0.47808540622E+02  0.10247981083E+03  0.11421597199E+03  0.00000000000E+00 0.  1.
         21    1    1    2  505  502 -0.78275952627E+02  0.67015087570E+02 -0.17804265801E+03  0.20571177602E+03  0.00000000000E+00 0.  1.
          2    1    1    2  501    0  0.71165174651E+02 -0.60827982890E+02  0.73534420322E+03  0.74127971967E+03  0.00000000000E+00 0.  1.
<scales pt_clust_3="42.57003" pt_clust_4="45.10757" pt_clust_5="14000.00000" pt_clust_6="102.87103"></scales>
<clustering>
<clus scale="   42.570">  1  3  2 -1</clus>
<clus scale="   45.108">  1  4  2 -1</clus>
<clus scale="  102.871">  1  6  2 -1</clus>
<clus scale="  102.871">  2  3  1 -1</clus>
</clustering>
</event>
<event>
 6    0  0.1622933E+002  0.2442397E+03  0.7546771E-02  0.1117000E+00
         21   -1    0    0  503  502  0.00000000000E+00  0.00000000000E+00  0.57014262893E+03  0.57014262893E+03  0.00000000000E+00 0.  1.
          3   -1    0    0  505    0 -0.00000000000E+00 -0.00000000000E+00 -0.14778991499E+04  0.14778991499E+04  0.00000000000E+00 0. -1.
         21    1    1    2  503  501 -0.92111506478E+02  0.12340435959E+03  0.50095362503E+03  0.52408749272E+03  0.00000000000E+00 0.  1.
         21    1    1    2  504  502 -0.88673212993E+02  0.59791461225E+02 -0.36892251030E+02  0.11313264659E+03  0.00000000000E+00 0. -1.
         21    1    1    2  505  504  0.88530442366E+02 -0.71779956841E+02 -0.20069953910E+03  0.23080361008E+03  0.00000000000E+00 0.  1.
          3    1    1    2  501    0  0.92254277105E+02 -0.11141586397E+03 -0.11711183559E+04  0.11800180295E+04  0.00000000000E+00 0. -1.
<scales pt_clust_3="244.23969" pt_clust_4="106.94839" pt_clust_5="110.95993" pt_clust_6="14000.00000"></scales>
<clustering>
<clus scale="  106.948">  1  4  2 -1</clus>
<clus scale="  110.960">  2  5  1 -1</clus>
<clus scale="  244.240">  1  3  2 -1</clus>
<clus scale="  106.948">  1  3  2 -1</clus>
</clustering>
</event>
<event>
 6    0  0.1622933E+002  0.1584002E+03  0.7546771E-02  0.1190515E+00
         21   -1    0    0  504  502  0.00000000000E+00  0.00000000000E+00  0.15320233165E+03  0.15320233165E+03  0.00000000000E+00 0.  1.
         -1   -1    0    0    0  501 -0.00000000000E+00 -0.00000000000E+00 -0.26607372082E+03  0.26607372082E+03  0.00000000000E+00 0. -1.
         21    1    1    2  503  502 -0.43706990255E+02 -0.19353475937E+02  0.53911536027E+02  0.72050758114E+02  0.00000000000E+00 0.  1.
         21    1    1    2  504  501 -0.12151985018E+03 -0.29801723363E+00 -0.44705495993E+02  0.12948260182E+03  0.00000000000E+00 0. -1.
         21    1    1    2  505  503  0.74958311956E+02  0.33687520119E+02 -0.28537112577E+02  0.86994047712E+02  0.00000000000E+00 0. -1.
         -1    1    1    2    0  505  0.90268528481E+02 -0.14036026948E+02 -0.93540316629E+02  0.13074864482E+03  0.00000000000E+00 0. -1.
<scales pt_clust_3="47.80019" pt_clust_4="142.36474" pt_clust_5="62.16651" pt_clust_6="62.16651"></scales>
<clustering>
<clus scale="   47.800">  1  3  2 -1</clus>
<clus scale="   62.167">  5  6 -1 -1</clus>
<clus scale="  142.365">  2  4  1 -1</clus>
<clus scale="   47.800">  1  3  2 -1</clus>
</clustering>
</event>
<event>
 6    0  0.1622933E+002  0.1213675E+03  0.7546771E-02  0.1240858E+00
          2   -1    0    0  504    0 -0.00000000000E+00  0.00000000000E+00  0.23216741035E+04  0.23216741035E+04  0.00000000000E+00 0.  1.
         21   -1    0    0  501  502  0.00000000000E+00 -0.00000000000E+00 -0.86982413809E+02  0.86982413809E+02  0.00000000000E+00 0. -1.
         21    1    1    2  503  502 -0.29522578048E+02  0.15733798120E+03  0.33850371526E+01  0.16011958475E+03  0.00000000000E+00 0. -1.
         21    1    1    2  504  505 -0.12237766955E+02 -0.64772877430E+02  0.38478598713E+03  0.39039152716E+03  0.00000000000E+00 0.  1.
         21    1    1    2  505  503  0.37128410012E+02 -0.56226033973E+02  0.17868984733E+04  0.17881683477E+04  0.00000000000E+00 0.  1.
          2    1    1    2  501    0  0.46319349917E+01 -0.36339069798E+02  0.59622192067E+02  0.69977057686E+02  0.00000000000E+00 0.  1.
<scales pt_clust_3="121.36748" pt_clust_4="67.11385" pt_clust_5="14000.00000" pt_clust_6="36.63308"></scales>
<clustering>
<clus scale="   36.633">  2  6  1 -1</clus>
<clus scale="   67.114">  1  4  2 -1</clus>
<clus scale="  121.367">  2  3  1 -1</clus>
<clus scale="   36.633">  2  3  1 -1</clus>
</clustering>
</event>
<event>
 6    0  0.1622933E+002  0.1358487E+03  0.7546771E-02  0.1219027E+00
          2   -1    0    0  503    0 -0.00000000000E+00  0.00000000000E+00  0.28725507103E+04  0.28725507103E+04  0.00000000000E+00 0.  1.
         21   -1    0    0  501  502  0.00000000000E+00 -0.00000000000E+00 -0.13340602960E+02  0.13340602960E+02  0.00000000000E+00 0. -1.
         21    1    1    2  503  504  0.48388218228E+02  0.38913193310E+02  0.13440193968E+04  0.13454530075E+04  0.00000000000E+00 0. -1.
         21    1    1    2  504  505  0.13204366329E+02  0.56789773708E+02  0.63312582559E+03  0.63580480080E+03  0.00000000000E+00 0.  1.
         21    1    1    2  505  502 -0.16634563373E+02  0.45634332273E+02  0.30342712908E+03  0.30729012943E+03  0.00000000000E+00 0.  1.
          2    1    1    2  501    0 -0.44958021184E+02 -0.14133729929E+03  0.57863775583E+03  0.59734337555E+03  0.00000000000E+00 0.  1.
<scales pt_clust_3="62.09393" pt_clust_4="38.66060" pt_clust_5="38.66060" pt_clust_6="129.07644"></scales>
<clustering>
<clus scale="   38.661">  4  5 -1 -1</clus>
<clus scale="   62.094">  1  3  2 -1</clus>
<clus scale="  129.076">  2  6  1 -1</clus>
<clus scale="  129.076">  2  3  1 -1</clus>
</clustering>
</event>
<event>
 6    0  0.1622933E+002  0.9519513E+02  0.7546771E-02  0.1290737E+00
         21   -1    0    0  505  502  0.00000000000E+00  0.00000000000E+00  0.81200256248E+02  0.81200256248E+02  0.00000000000E+00 0.  1.
          2   -1    0    0  503    0 -0.00000000000E+00 -0.00000000000E+00 -0.21329621696E+04  0.21329621696E+04  0.00000000000E+00 0. -1.
         21    1    1    2  503  504 -0.59647961058E+02 -0.16560851407E+02 -0.19592816600E+03  0.20547502839E+03  0.00000000000E+00 0.  1.
         21    1    1    2  504  502 -0.85021331701E+02 -0.20953086572E+01  0.43994411315E+02  0.95752417147E+02  0.00000000000E+00 0.  1.
         21    1    1    2  505  501 -0.24975938228E+01  0.35052679419E+02 -0.83669963621E+02  0.90750157695E+02  0.00000000000E+00 0.  1.
          2    1    1    2  501    0  0.14716688658E+03 -0.16396519355E+02 -0.18161581950E+04  0.18221848226E+04  0.00000000000E+00 0. -1.
<scales pt_clust_3="61.51226" pt_clust_4="14000.00000" pt_clust_5="35.14155" pt_clust_6="95.19513"></scales>
<clustering>
<clus scale="   35.142">  1  5  2 -1</clus>
<clus scale="   61.512">  2  3  1 -1</clus>
<clus scale="   95.195">  2  6  1 -1</clus>
<clus scale="   35.142">  1  3  2 -1</clus>
</clustering>
</event>
<event>
 6    0  0.1622933E+002  0.1097865E+03  0.7546771E-02  0.1260966E+00
          2   -1    0    0  505    0 -0.00000000000E+00  0.00000000000E+00  0.15552550667E+04  0.15552550667E+04  0.00000000000E+00 0.  1.
         21   -1    0    0  503  502  0.00000000000E+00 -0.00000000000E+00 -0.17878070659E+03  0.17878070659E+03  0.00000000000E+00 0.  1.
         21    1    1    2  503  504  0.72559552363E+02  0.77336666075E+02  0.15991983508E+03  0.19188590936E+03  0.00000000000E+00 0.  1.
         21    1    1    2  504  501 -0.65795559911E+02 -0.65635835406E+01  0.79212471535E+03  0.79487967706E+03  0.00000000000E+00 0.  1.
         21    1    1    2  505  502  0.24640797089E+02 -0.39370848582E+02 -0.15721503535E+03  0.16393230292E+03  0.00000000000E+00 0.  1.
          2    1    1    2  501    0 -0.31404789541E+02 -0.31402233953E+02  0.58164484503E+03  0.58333788395E+03  0.00000000000E+00 0.  1.
<scales pt_clust_3="103.44826" pt_clust_4="30.12908" pt_clust_5="46.44602" pt_clust_6="30.12908"></scales>
<clustering>
<clus scale="   30.129">  4  6 -1 -1</clus>
<clus scale="   46.446">  2  5  1 -1</clus>
<clus scale="  103.448">  2  3  1 -1</clus>
<clus scale="   46.446">  2  3  1 -1</clus>
</clustering>
</event>
<event>
 6    0  0.1622933E+002  0.8503136E+02  0.7546771E-02  0.1315351E+00
         21   -1    0    0  504  502  0.00000000000E+00  0.00000000000E+00  0.17187610604E+03  0.17187610604E+03  0.00000000000E+00 0. -1.
          4   -1    0    0  505    0 -0.00000000000E+00 -0.00000000000E+00 -0.18515612598E+03  0.18515612598E+03  0.00000000000E+00 0.  1.
         21    1    1    2  503  502 -0.14909502799E+02  0.63715979153E+02 -0.29975633259E+02  0.71976092298E+02  0.00000000000E+00 0.  1.
         21    1    1    2  504  501  0.77501660535E+02 -0.17799492577E+02  0.70215463942E+02  0.10608270688E+03  0.00000000000E+00 0. -1.
         21    1    1    2  505  503  0.48499499534E+02 -0.18712634571E+02 -0.36078276383E+02  0.63277216867E+02  0.00000000000E+00 0.  1.
          4    1    1    2  501    0 -0.11109165727E+03 -0.27203852005E+02 -0.17441574238E+02  0.11569621597E+03  0.00000000000E+00 0.  1.
<scales pt_clust_3="56.77334" pt_clust_4="14000.00000" pt_clust_5="51.98427" pt_clust_6="85.03136"></scales>
<clustering>
<clus scale="   51.984">  2  5  1 -1</clus>
<clus scale="   56.773">  2  3  1 -1</clus>
<clus scale="   85.031">  2  6  1 -1</clus>
<clus scale="   85.031">  1  3  2 -1</clus>
</clustering>
</event>
<event>
 6    0  0.1622933E+002  0.1331432E+03  0.7546771E-02  0.1222865E+00
          2   -1    0    0  504    0 -0.00000000000E+00  0.00000000000E+00  0.35284947422E+04  0.35284947422E+04  0.00000000000E+00 0.  1.
         21   -1    0    0  505  502  0.00000000000E+00 -0.00000000000E+00 -0.24893001749E+03  0.24893001749E+03  0.00000000000E+00 0. -1.
         21    1    1    2  503  501  0.11698302483E+03  0.20331136348E+02  0.60497986876E+03  0.61652171479E+03  0.00000000000E+00 0.  1.
         21    1    1    2  504  502  0.26820962133E+02 -0.28978178165E+02  0.13559043447E+03  0.14122274866E+03  0.00000000000E+00 0. -1.
         21    1    1    2  505  503 -0.11717353736E+01  0.64654870813E+02 -0.23383923921E+03  0.24261577665E+03  0.00000000000E+00 0. -1.
          2    1    1    2  501    0 -0.14263225159E+03 -0.56007828997E+02  0.27728336607E+04  0.27770645196E+04  0.00000000000E+00 0.  1.
<scales pt_clust_3="14000.00000" pt_clust_4="39.48543" pt_clust_5="64.62736" pt_clust_6="133.14325"></scales>
<clustering>
<clus scale="   39.485">  1  4  2 -1</clus>
<clus scale="   64.627">  2  5  1 -1</clus>
<clus scale="  133.143">  1  6  2 -1</clus>
<clus scale="   64.627">  2  3  1 -1</clus>
</clustering>
</event>
<event>
 6    0  0.1622933E+002  0.8194633E+02  0.7546771E-02  0.1323617E+00
         21   -1    0    0  503  502  0.00000000000E+00  0.00000000000E+00  0.23350684325E+03  0.23350684325E+03  0.00000000000E+00 0. -1.
          1   -1    0    0  505    0 -0.00000000000E+00 -0.00000000000E+00 -0.39348224615E+03  0.39348224615E+03  0.00000000000E+00 0.  1.
         21    1    1    2  503  501 -0.88543722970E+02 -0.39193069646E+02 -0.78225898576E+02  0.12448043539E+03  0.00000000000E+00 0.  1.
         21    1    1    2  504  502  0.37622112394E+02 -0.15678394381E+02  0.18869975429E+03  0.19305137312E+03  0.00000000000E+00 0. -1.
         21    1    1    2  505  504  0.21259590856E+02 -0.27279718963E+02 -0.11935004144E+02  0.36586850014E+02  0.00000000000E+00 0.  1.
          1    1    1    2  501    0  0.29662019720E+02  0.82151182990E+02 -0.25851425448E+03  0.27287043088E+03  0.00000000000E+00 0.  1.
<scales pt_clust_3="14000.00000" pt_clust_4="40.93586" pt_clust_5="34.58545" pt_clust_6="81.94633"></scales>
<clustering>
<clus scale="   34.585">  2  5  1 -1</clus>
<clus scale="   40.936">  1  4  2 -1</clus>
<clus scale="   81.946">  2  6  1 -1</clus>
<clus scale="   40.936">  1  3  2 -1</clus>
</clustering>
</event>
<event>
 6    0  0.1622933E+002  0.1303956E+03  0.7546771E-02  0.1226870E+00
         21   -1    0    0  503  502  0.00000000000E+00  0.00000000000E+00  0.85320596224E+03  0.85320596224E+03  0.00000000000E+00 0.  1.
          2   -1    0    0  505    0 -0.00000000000E+00 -0.00000000000E+00 -0.42186725848E+03  0.42186725848E+03  0.00000000000E+00 0.  1.
         21    1    1    2  503  501  0.17479228829E+02 -0.58842158031E+02 -0.20530592074E+03  0.21428589336E+03  0.00000000000E+00 0.  1.
         21    1    1    2  504  502 -0.96649523869E+02  0.73304554464E+02  0.82081001768E+03  0.82972511912E+03  0.00000000000E+00 0.  1.
         21    1    1    2  505  504  0.32651098691E+02  0.45829457894E+01  0.67373111633E+01  0.33652473900E+02  0.00000000000E+00 0.  1.
          2    1    1    2  501    0  0.46519196349E+02 -0.19045342222E+02 -0.19090270434E+03  0.19740973434E+03  0.00000000000E+00 0.  1.
<scales pt_clust_3="47.82124" pt_clust_4="121.05067" pt_clust_5="32.97116" pt_clust_6="47.82124"></scales>
<clustering>
<clus scale="   32.971">  2  5  1 -1</clus>
<clus scale="   47.821">  3  6 -1 -1</clus>
<clus scale="  121.051">  1  4  2 -1</clus>
<clus scale="  121.051">  1  3  2 -1</clus>
</clustering>
</event>
<event>
 6    0  0.1622933E+002  0.1133783E+03  0.7546771E-02  0.1254439E+00
         21   -1    0    0  501  502  0.00000000000E+00  0.00000000000E+00  0.24409604144E+02  0.24409604144E+02  0.00000000000E+00 0. -1.
          2   -1    0    0  503    0 -0.00000000000E+00 -0.00000000000E+00 -0.14354043732E+04  0.14354043732E+04  0.00000000000E+00 0.  1.
         21    1    1    2  503  505  0.53387871147E+02  0.27546380248E+02 -0.40366723541E+03  0.40811310294E+03  0.00000000000E+00 0.  1.
         21    1    1    2  504  502 -0.11126361220E+03  0.59596591945E+02 -0.22218837435E+03  0.25553672704E+03  0.00000000000E+00 0. -1.
         21    1    1    2  505  504  0.74082796147E+02 -0.45010307110E+02 -0.49455321336E+03  0.50209268992E+03  0.00000000000E+00 0.  1.
          2    1    1    2  501    0 -0.16207055096E+02 -0.42132665084E+02 -0.29058594599E+03  0.29407145749E+03  0.00000000000E+00 0.  1.
<scales pt_clust_3="49.26763" pt_clust_4="113.37826" pt_clust_5="14000.00000" pt_clust_6="45.14233"></scales>
<clustering>
<clus scale="   45.142">  2  6  1 -1</clus>
<clus scale="   49.268">  2  3  1 -1</clus>
<clus scale="  113.378">  1  4  2 -1</clus>
<clus scale="  113.378">  1  3  2 -1</clus>
</clustering>
</event>
<event>
 6    0  0.1622933E+002  0.8473174E+02  0.7546771E-02  0.1316136E+00
          1   -1    0    0  503    0 -0.00000000000E+00  0.00000000000E+00  0.31340837050E+03  0.31340837050E+03  0.00000000000E+00 0. -1.
         21   -1    0    0  505  502  0.00000000000E+00 -0.00000000000E+00 -0.95538584199E+03  0.95538584199E+03  0.00000000000E+00 0. -1.
         21    1    1    2  503  504  0.24268800168E+02  0.22688220942E+02  0.23259900109E+02  0.40555554295E+02  0.00000000000E+00 0. -1.
         21    1    1    2  504  502 -0.32771784506E+02  0.40654651355E+02  0.36765880774E+02  0.63863295606E+02  0.00000000000E+00 0.  1.
         21    1    1    2  505  501  0.75800056979E+02  0.37474962881E+02 -0.91521641633E+03  0.91911430747E+03  0.00000000000E+00 0. -1.
          1    1    1    2  501    0 -0.67297072641E+02 -0.10081783518E+03  0.21321316396E+03  0.24526105512E+03  0.00000000000E+00 0. -1.
<scales pt_clust_3="33.22243" pt_clust_4="52.98555" pt_clust_5="84.73174" pt_clust_6="14000.00000"></scales>
<clustering>
<clus scale="   33.222">  1  3  2 -1</clus>
<clus scale="   52.986">  1  4  2 -1</clus>
<clus scale="   84.732">  2  5  1 -1</clus>
<clus scale="   84.732">  2  3  1 -1</clus>
</clustering>
</event>
<event>
 6    0  0.1622933E+002  0.9672970E+02  0.7546771E-02  0.1287327E+00
         21   -1    0    0  501  502  0.00000000000E+00  0.00000000000E+00  0.55841967008E+02  0.55841967008E+02  0.00000000000E+00 0.  1.
          3   -1    0    0  504    0 -0.00000000000E+00 -0.00000000000E+00 -0.11956225203E+04  0.11956225203E+04  0.00000000000E+00 0.  1.
         21    1    1    2  503  502 -0.98389075514E+01 -0.33600893284E+02  0.31463418978E+02  0.47071975368E+02  0.00000000000E+00 0.  1.
         21    1    1    2  504  505  0.49581382495E+02  0.21981476792E+02 -0.33205292964E+03  0.33645303817E+03  0.00000000000E+00 0.  1.
         21    1    1    2  505  503  0.11744869568E+02 -0.78361217455E+02 -0.13803330797E+03  0.15915909171E+03  0.00000000000E+00 0.  1.
          3    1    1    2  501    0 -0.51487344511E+02  0.89980633947E+02 -0.70115773469E+03  0.70878038210E+03  0.00000000000E+00 0.  1.
<scales pt_clust_3="35.01177" pt_clust_4="51.35668" pt_clust_5="14000.00000" pt_clust_6="96.72970"></scales>
<clustering>
<clus scale="   35.012">  1  3  2 -1</clus>
<clus scale="   51.357">  2  4  1 -1</clus>
<clus scale="   96.730">  2  6  1 -1</clus>
<clus scale="   35.012">  1  3  2 -1</clus>
</clustering>
</event>
<event>
 6    0  0.1622933E+002  0.3131136E+03  0.7546771E-02  0.1078863E+00
         -4   -1    0    0    0  501 -0.00000000000E+00  0.00000000000E+00  0.89545556899E+03  0.89545556899E+03  0.00000000000E+00 0.  1.
         21   -1    0    0  504  502  0.00000000000E+00 -0.00000000000E+00 -0.50868067081E+03  0.50868067081E+03  0.00000000000E+00 0.  1.
         21    1    1    2  503  502  0.97093717921E+02 -0.50073474113E+02 -0.36247520595E+03  0.37858000185E+03  0.00000000000E+00 0.  1.
         21    1    1    2  504  501  0.98165720275E+01 -0.45231152317E+02  0.20250727793E+02  0.50520433514E+02  0.00000000000E+00 0. -1.
         21    1    1    2  505  503  0.85767402395E+02  0.32575208516E+03  0.29839485601E+03  0.45001106474E+03  0.00000000000E+00 0.  1.
         -4    1    1    2    0  505 -0.19267769234E+03 -0.23044745873E+03  0.43060452033E+03  0.52502473970E+03  0.00000000000E+00 0.  1.
<scales pt_clust_3="109.52163" pt_clust_4="46.28415" pt_clust_5="14000.00000" pt_clust_6="313.11359"></scales>
<clustering>
<clus scale="   46.284">  1  4  2 -1</clus>
<clus scale="  109.522">  2  3  1 -1</clus>
<clus scale="  313.114">  1  6  2 -1</clus>
<clus scale="  109.522">  2  3  1 -1</clus>
</clustering>
</event>
<event>
 6    0  0.1622933E+002  0.1157724E+03  0.7546771E-02  0.1250239E+00
          2   -1    0    0  503    0 -0.00000000000E+00  0.00000000000E+00  0.65089962572E+03  0.65089962572E+03  0.00000000000E+00 0.  1.
         21   -1    0    0  501  502  0.00000000000E+00 -0.00000000000E+00 -0.99577747840E+03  0.99577747840E+03  0.00000000000E+00 0. -1.
         21    1    1    2  503  505 -0.28259175303E+02  0.17095998180E+02  0.10400799784E+03  0.10912615524E+03  0.00000000000E+00 0.  1.
         21    1    1    2  504  502 -0.50312389065E+02 -0.10458878218E+03 -0.98084435335E+03  0.98768709384E+03  0.00000000000E+00 0. -1.
         21    1    1    2  505  504  0.25437646531E+02  0.29076130172E+02  0.60116926085E+02  0.71460058835E+02  0.00000000000E+00 0.  1.
          2    1    1    2  501    0  0.53133917837E+02  0.58416653830E+02  0.47184157675E+03  0.47840379620E+03  0.00000000000E+00 0.  1.
<scales pt_clust_3="33.02808" pt_clust_4="14000.00000" pt_clust_5="38.14217" pt_clust_6="115.77235"></scales>
<clustering>
<clus scale="   33.028">  1  3  2 -1</clus>
<clus scale="   38.142">  1  5  2 -1</clus>
<clus scale="  115.772">  1  6  2 -1</clus>
<clus scale="  115.772">  2  3  1 -1</clus>
</clustering>
</event>
<event>
 6    0  0.1622933E+002  0.1481289E+03  0.7546771E-02  0.1202791E+00
         21   -1    0    0  501  502  0.00000000000E+00  0.00000000000E+00  0.53053946146E+03  0.53053946146E+03  0.00000000000E+00 0.  1.
          1   -1    0    0  504    0 -0.00000000000E+00 -0.00000000000E+00 -0.88944048219E+03  0.88944048219E+03  0.00000000000E+00 0. -1.
         21    1    1    2  503  505  0.69715649883E+02 -0.46265832063E+02 -0.15826345218E+02  0.85154402459E+02  0.00000000000E+00 0.  1.
         21    1    1    2  504  503  0.53694125906E+02 -0.44285118661E+01 -0.20510117923E+03  0.21205934216E+03  0.00000000000E+00 0. -1.
         21    1    1    2  505  502  0.13956339634E+03 -0.41852966299E+02  0.44948699550E+03  0.47251261519E+03  0.00000000000E+00 0.  1.
          1    1    1    2  501    0 -0.26297317213E+03  0.92547310228E+02 -0.58746049178E+03  0.65025358384E+03  0.00000000000E+00 0. -1.
<scales pt_clust_3="87.19137" pt_clust_4="53.87644" pt_clust_5="148.12891" pt_clust_6="14000.00000"></scales>
<clustering>
<clus scale="   53.876">  2  4  1 -1</clus>
<clus scale="   87.191">  2  3  1 -1</clus>
<clus scale="  148.129">  1  5  2 -1</clus>
<clus scale="  148.129">  1  3  2 -1</clus>
</clustering>
</event>
<event>
 6    0  0.1622933E+002  0.1687536E+03  0.7546771E-02  0.1179154E+00
          3   -1    0    0  503    0 -0.00000000000E+00  0.00000000000E+00  0.11909298623E+04  0.11909298623E+04  0.00000000000E+00 0. -1.
         21   -1    0    0  505  502  0.00000000000E+00 -0.00000000000E+00 -0.26713703786E+03  0.26713703786E+03  0.00000000000E+00 0.  1.
         21    1    1    2  503  504 -0.21579021822E+03  0.16504962940E+02  0.84443382349E+03  0.87172605464E+03  0.00000000000E+00 0. -1.
         21    1    1    2  504  502  0.13704571922E+03  0.98541675781E+02 -0.19382537514E+03  0.25702191944E+03  0.00000000000E+00 0.  1.
         21    1    1    2  505  501  0.22082996450E+02 -0.97099922474E+02  0.81648539079E+02  0.12877320222E+03  0.00000000000E+00 0. -1.
          3    1    1    2  501    0  0.56661502545E+02 -0.17946716247E+02  0.19153583703E+03  0.20054572387E+03  0.00000000000E+00 0. -1.
<scales pt_clust_3="168.75359" pt_clust_4="14000.00000" pt_clust_5="102.90177" pt_clust_6="59.43577"></scales>
<clustering>
<clus scale="   59.436">  1  6  2 -1</clus>
<clus scale="  102.902">  1  5  2 -1</clus>
<clus scale="  168.754">  1  3  2 -1</clus>
<clus scale="  168.754">  2  3  1 -1</clus>
</clustering>
</event>
<event>
 6    0  0.2537189E+002  0.8302499E+02  0.7546771E-02  0.1320680E+00
         -4   -1    0    0    0  501 -0.00000000000E+00  0.00000000000E+00  0.14381159867E+04  0.14381159867E+04  0.00000000000E+00 0. -1.
         21   -1    0    0  504  502  0.00000000000E+00 -0.00000000000E+00 -0.13910874163E+04  0.13910874163E+04  0.00000000000E+00 0. -1.
         21    1    1    2  503  505  0.44734053071E+02 -0.29593705249E+02  0.20426763109E+02  0.57394908708E+02  0.00000000000E+00 0.  1.
         21    1    1    2  504  503  0.57094679736E+02  0.60251202802E+02 -0.13677416602E+04  0.13702580994E+04  0.00000000000E+00 0. -1.
         21    1    1    2  505  501 -0.26305354663E+02  0.27625741827E+02  0.65002969720E+03  0.65114803273E+03  0.00000000000E+00 0. -1.
         -4    1    1    2    0  502 -0.75523378144E+02 -0.58283239380E+02  0.74431377020E+03  0.75040236217E+03  0.00000000000E+00 0. -1.
<scales pt_clust_3="51.80158" pt_clust_4="83.02499" pt_clust_5="38.14647" pt_clust_6="14000.00000"></scales>
<clustering>
<clus scale="   38.146">  1  5  2 -1</clus>
<clus scale="   51.802">  1  3  2 -1</clus>
<clus scale="   83.025">  2  4  1 -1</clus>
<clus scale="   83.025">  2  3  1 -1</clus>
</clustering>
</event>
<event>
 6    0  0.1622933E+002  0.9528371E+02  0.7546771E-02  0.1290538E+00
         21   -1    0    0  501  502  0.00000000000E+00  0.00000000000E+00  0.30846032419E+03  0.30846032419E+03  0.00000000000E+00 0.  1.
          2   -1    0    0  504    0 -0.00000000000E+00 -0.00000000000E+00 -0.10005237068E+04  0.10005237068E+04  0.00000000000E+00 0.  1.
         21    1    1    2  503  502  0.88203413400E+01  0.45208249470E+02  0.26714199275E+03  0.27108380352E+03  0.00000000000E+00 0.  1.
         21    1    1    2  504  505  0.37516990266E+02 -0.55906947225E+01 -0.67747417640E+02  0.77643370760E+02  0.00000000000E+00 0.  1.
         21    1    1    2  505  503  0.77499333114E+02  0.35320231445E+01 -0.21546414034E+02  0.80516270271E+02  0.00000000000E+00 0.  1.
          2    1    1    2  501    0 -0.12383666472E+03 -0.43149577892E+02 -0.86991154369E+03  0.87974058645E+03  0.00000000000E+00 0.  1.
<scales pt_clust_3="46.06433" pt_clust_4="37.93126" pt_clust_5="95.28371" pt_clust_6="14000.00000"></scales>
<clustering>
<clus scale="   37.931">  2  4  1 -1</clus>
<clus scale="   46.064">  1  3  2 -1</clus>
<clus scale="   95.284">  1  5  2 -1</clus>
<clus scale="   46.064">  1  3  2 -1</clus>
</clustering>
</event>
<event>
 6    0  0.1622933E+002  0.9987814E+02  0.7546771E-02  0.1280552E+00
         21   -1    0    0  505  502  0.00000000000E+00  0.00000000000E+00  0.16546249999E+03  0.16546249999E+03  0.00000000000E+00 0.  1.
          1   -1    0    0  503    0 -0.00000000000E+00 -0.00000000000E+00 -0.28590077235E+04  0.28590077235E+04  0.00000000000E+00 0.  1.
         21    1    1    2  503  504  0.34779911710E+02  0.19191647022E+02 -0.22405931435E+03  0.22755337378E+03  0.00000000000E+00 0.  1.
         21    1    1    2  504  502 -0.42463458254E+02  0.12400413273E+02 -0.11568601591E+04  0.11577056375E+04  0.00000000000E+00 0.  1.
         21    1    1    2  505  501  0.23129789208E+01 -0.10018391265E+03  0.14703127054E+03  0.17793358520E+03  0.00000000000E+00 0.  1.
          1    1    1    2  501    0  0.53705676235E+01  0.68591852354E+02 -0.14596570207E+04  0.14612776270E+04  0.00000000000E+00 0.  1.
<scales pt_clust_3="39.72356" pt_clust_4="34.24520" pt_clust_5="99.87814" pt_clust_6="14000.00000"></scales>
<clustering>
<clus scale="   39.724">  2  3  1 -1</clus>
<clus scale="   34.245">  2  4  1 -1</clus>
<clus scale="   99.878">  1  5  2 -1</clus>
<clus scale="   99.878">  1  3  2 -1</clus>
</clustering>
</event>
<event>
 6    0  0.1622933E+002  0.1123746E+03  0.7546771E-02  0.1256235E+00
         21   -1    0    0  504  502  0.00000000000E+00  0.00000000000E+00  0.60256467200E+02  0.60256467200E+02  0.00000000000E+00 0.  1.
          2   -1    0    0  505    0 -0.00000000000E+00 -0.00000000000E+00 -0.15171138024E+04  0.15171138024E+04  0.00000000000E+00 0.  1.
         21    1    1    2  503  502  0.75504639234E+01  0.80861639286E+02 -0.56409193295E+03  0.56990817070E+03  0.00000000000E+00 0.  1.
         21    1    1    2  504  501  0.24546731904E+02 -0.11353573927E+03 -0.73784424249E+01  0.11639307347E+03  0.00000000000E+00 0.  1.
         21    1    1    2  505  503  0.31041645869E+02  0.61071683874E+01 -0.24716048474E+03  0.24917701840E+03  0.00000000000E+00 0.  1.
          2    1    1    2  501    0 -0.63138841697E+02  0.26566931596E+02 -0.63822647509E+03  0.64189200703E+03  0.00000000000E+00 0.  1.
<scales pt_clust_3="112.37461" pt_clust_4="14000.00000" pt_clust_5="31.63671" pt_clust_6="55.97720"></scales>
<clustering>
<clus scale="   31.637">  2  5  1 -1</clus>
<clus scale="   55.977">  2  6  1 -1</clus>
<clus scale="  112.375">  2  3  1 -1</clus>
<clus scale="  112.375">  1  3  2 -1</clus>
</clustering>
</event>
<event>
 6    0  0.1622933E+002  0.2474562E+03  0.7546771E-02  0.1114923E+00
         21   -1    0    0  505  502  0.00000000000E+00  0.00000000000E+00  0.10279385093E+04  0.10279385093E+04  0.00000000000E+00 0.  1.
          1   -1    0    0  504    0 -0.00000000000E+00 -0.00000000000E+00 -0.96869239466E+03  0.96869239466E+03  0.00000000000E+00 0. -1.
         21    1    1    2  503  502 -0.43439885287E+02 -0.15131097898E+02 -0.14340127770E+03  0.15059847344E+03  0.00000000000E+00 0. -1.
         21    1    1    2  504  503 -0.22342464138E+02 -0.24885534827E+02 -0.93087069202E+01  0.34714947385E+02  0.00000000000E+00 0. -1.
         21    1    1    2  505  501 -0.91157716037E+02 -0.22877242628E+03  0.96529420506E+03  0.99621255490E+03  0.00000000000E+00 0.  1.
          1    1    1    2  501    0  0.15694006546E+03  0.26878905901E+03 -0.75333810580E+03  0.81510492824E+03  0.00000000000E+00 0. -1.
<scales pt_clust_3="50.60924" pt_clust_4="33.44362" pt_clust_5="247.45619" pt_clust_6="14000.00000"></scales>
<clustering>
<clus scale="   33.444">  2  4  1 -1</clus>
<clus scale="   50.609">  2  3  1 -1</clus>
<clus scale="  247.456">  1  5  2 -1</clus>
<clus scale="  247.456">  1  3  2 -1</clus>
</clustering>
</event>
<event>
 6    0  0.1622933E+002  0.1575142E+03  0.7546771E-02  0.1191532E+00
         21   -1    0    0  505  502  0.00000000000E+00  0.00000000000E+00  0.12730137062E+02  0.12730137062E+02  0.00000000000E+00 0.  1.
          2   -1    0    0  503    0 -0.00000000000E+00 -0.00000000000E+00 -0.41411724379E+04  0.41411724379E+04  0.00000000000E+00 0.  1.
         21    1    1    2  503  504  0.33068607977E+02 -0.27803825168E+02 -0.13777847433E+04  0.13784619633E+04  0.00000000000E+00 0. -1.
         21    1    1    2  504  502  0.11796596412E+03 -0.81973446889E+02 -0.62452523851E+03  0.64083335449E+03  0.00000000000E+00 0.  1.
         21    1    1    2  505  501 -0.69085915159E+02  0.55460210006E+02 -0.81730772076E+03  0.82209525542E+03  0.00000000000E+00 0.  1.
          2    1    1    2  501    0 -0.81948656936E+02  0.54317062050E+02 -0.13088245983E+04  0.13125120017E+04  0.00000000000E+00 0.  1.
<scales pt_clust_3="43.20400" pt_clust_4="153.50480" pt_clust_5="33.52154" pt_clust_6="33.52154"></scales>
<clustering>
<clus scale="   33.522">  5  6 -1 -1</clus>
<clus scale="   43.204">  2  3  1 -1</clus>
<clus scale="  153.505">  1  4  2 -1</clus>
<clus scale="  153.505">  1  3  2 -1</clus>
</clustering>
</event>
<event>
 6    0  0.1622933E+002  0.1007104E+03  0.7546771E-02  0.1278809E+00
          2   -1    0    0  505    0 -0.00000000000E+00  0.00000000000E+00  0.18155579702E+04  0.18155579702E+04  0.00000000000E+00 0. -1.
         21   -1    0    0  503  502  0.00000000000E+00 -0.00000000000E+00 -0.80761474089E+02  0.80761474089E+02  0.00000000000E+00 0.  1.
         21    1    1    2  503  501  0.13622999444E+02  0.75480210238E+02 -0.42587360600E+02  0.87729878230E+02  0.00000000000E+00 0.  1.
         21    1    1    2  504  502 -0.51602007082E+02  0.15246053650E+02  0.69288143965E+02  0.87727169001E+02  0.00000000000E+00 0.  1.
         21    1    1    2  505  504  0.70903488777E+02 -0.13090014323E+03  0.10196785536E+04  0.10304884788E+04  0.00000000000E+00 0. -1.
          2    1    1    2  501    0 -0.32924481139E+02  0.40173879339E+02  0.68841715915E+03  0.69037391829E+03  0.00000000000E+00 0. -1.
<scales pt_clust_3="14000.00000" pt_clust_4="56.83834" pt_clust_5="100.71038" pt_clust_6="51.94191"></scales>
<clustering>
<clus scale="   51.942">  1  6  2 -1</clus>
<clus scale="   56.838">  2  4  1 -1</clus>
<clus scale="  100.710">  1  5  2 -1</clus>
<clus scale="   56.838">  2  3  1 -1</clus>
</clustering>
</event>
<event>
 6    0  0.1622933E+002  0.8002335E+02  0.7546771E-02  0.1328985E+00
          2   -1    0    0  503    0 -0.00000000000E+00  0.00000000000E+00  0.73365761061E+03  0.73365761061E+03  0.00000000000E+00 0. -1.
         21   -1    0    0  504  502  0.00000000000E+00 -0.00000000000E+00 -0.15944835725E+03  0.15944835725E+03  0.00000000000E+00 0.  1.
         21    1    1    2  503  505 -0.34298833303E+02 -0.82736837672E+02  0.12414620193E+03  0.15308191836E+03  0.00000000000E+00 0. -1.
         21    1    1    2  504  501  0.45923840008E+02  0.25479472921E+02  0.35969519286E+02  0.63655392066E+02  0.00000000000E+00 0.  1.
         21    1    1    2  505  502  0.26036958455E+02 -0.17439850761E+02 -0.12599810474E+03  0.12983679756E+03  0.00000000000E+00 0.  1.
          2    1    1    2  501    0 -0.37661965160E+02  0.74697215513E+02  0.54009163690E+03  0.54653185988E+03  0.00000000000E+00 0. -1.
<scales pt_clust_3="80.02335" pt_clust_4="60.06019" pt_clust_5="31.33802" pt_clust_6="14000.00000"></scales>
<clustering>
<clus scale="   31.338">  2  5  1 -1</clus>
<clus scale="   60.060">  2  4  1 -1</clus>
<clus scale="   80.023">  2  3  1 -1</clus>
<clus scale="   31.338">  2  3  1 -1</clus>
</clustering>
</event>
<event>
 6    0  0.1622933E+002  0.1482917E+03  0.7546771E-02  0.1202588E+00
          1   -1    0    0  503    0 -0.00000000000E+00  0.00000000000E+00  0.20459335336E+04  0.20459335336E+04  0.00000000000E+00 0. -1.
         21   -1    0    0  505  502  0.00000000000E+00 -0.00000000000E+00 -0.44787163565E+02  0.44787163565E+02  0.00000000000E+00 0. -1.
         21    1    1    2  503  504  0.66617497625E+02  0.92055783249E+02  0.53075135534E+03  0.54277910739E+03  0.00000000000E+00 0. -1.
         21    1    1    2  504  502  0.41581747406E+02  0.39605231693E+02 -0.92167019780E+01  0.58159811641E+02  0.00000000000E+00 0. -1.
         21    1    1    2  505  501 -0.55535076194E+02 -0.57017473387E+02  0.55692076877E+03  0.56257966515E+03  0.00000000000E+00 0.  1.
          1    1    1    2  501    0 -0.52664168837E+02 -0.74643541555E+02  0.92269094790E+03  0.92720211298E+03  0.00000000000E+00 0. -1.
<scales pt_clust_3="144.33719" pt_clust_4="57.42487" pt_clust_5="31.75318" pt_clust_6="31.75318"></scales>
<clustering>
<clus scale="   31.753">  5  6 -1 -1</clus>
<clus scale="   57.425">  2  4  1 -1</clus>
<clus scale="  144.337">  2  3  1 -1</clus>
<clus scale="   57.425">  2  3  1 -1</clus>
</clustering>
</event>
<event>
 6    0  0.1622933E+002  0.1493021E+03  0.7546771E-02  0.1201333E+00
          1   -1    0    0  503    0 -0.00000000000E+00  0.00000000000E+00  0.19259038268E+04  0.19259038268E+04  0.00000000000E+00 0. -1.
         21   -1    0    0  504  502  0.00000000000E+00 -0.00000000000E+00 -0.48968507104E+02  0.48968507104E+02  0.00000000000E+00 0.  1.
         21    1    1    2  503  502  0.25228877403E+02 -0.41185691449E+02  0.17863196834E+03  0.18504631190E+03  0.00000000000E+00 0. -1.
         21    1    1    2  504  505  0.29885451104E+01 -0.59178889344E+02  0.14111963096E+02  0.60911574009E+02  0.00000000000E+00 0.  1.
         21    1    1    2  505  501  0.38561695465E+02  0.19757054158E+03  0.50201167233E+03  0.54086675107E+03  0.00000000000E+00 0.  1.
          1    1    1    2  501    0 -0.66779117978E+02 -0.97205960788E+02  0.11821797160E+04  0.11880476970E+04  0.00000000000E+00 0. -1.
<scales pt_clust_3="48.29863" pt_clust_4="60.16843" pt_clust_5="14000.00000" pt_clust_6="149.30207"></scales>
<clustering>
<clus scale="   48.299">  1  3  2 -1</clus>
<clus scale="   60.168">  2  4  1 -1</clus>
<clus scale="  149.302">  1  6  2 -1</clus>
<clus scale="   60.168">  2  3  1 -1</clus>
</clustering>
</event>
<event>
 6    0  0.1622933E+002  0.8627224E+02  0.7546771E-02  0.1312139E+00
          1   -1    0    0  504    0 -0.00000000000E+00  0.00000000000E+00  0.78349805260E+03  0.78349805260E+03  0.00000000000E+00 0.  1.
         21   -1    0    0  505  502  0.00000000000E+00 -0.00000000000E+00 -0.39366891639E+02  0.39366891639E+02  0.00000000000E+00 0.  1.
         21    1    1    2  503  502 -0.78871786049E+02  0.10561077319E+02  0.20419804368E+03  0.21915550650E+03  0.00000000000E+00 0.  1.
         21    1    1    2  504  503 -0.65412176453E+00  0.33282557366E+02  0.17319014645E+03  0.17636037913E+03  0.00000000000E+00 0.  1.
         21    1    1    2  505  501 -0.12815471883E+02 -0.53853777120E+02  0.69876657807E+01  0.55796891515E+02  0.00000000000E+00 0.  1.
          1    1    1    2  501    0  0.92341379696E+02  0.10010142435E+02  0.35975530505E+03  0.37155216709E+03  0.00000000000E+00 0.  1.
<scales pt_clust_3="14000.00000" pt_clust_4="33.28898" pt_clust_5="53.69737" pt_clust_6="86.27224"></scales>
<clustering>
<clus scale="   33.289">  1  4  2 -1</clus>
<clus scale="   53.697">  2  5  1 -1</clus>
<clus scale="   86.272">  1  6  2 -1</clus>
<clus scale="   53.697">  2  3  1 -1</clus>
</clustering>
</event>
<event>
 6    0  0.1622933E+002  0.1379830E+03  0.7546771E-02  0.1216069E+00
         21   -1    0    0  504  502  0.00000000000E+00  0.00000000000E+00  0.20469494349E+04  0.20469494349E+04  0.00000000000E+00 0. -1.
          2   -1    0    0  503    0 -0.00000000000E+00 -0.00000000000E+00 -0.18299502830E+03  0.18299502830E+03  0.00000000000E+00 0. -1.
         21    1    1    2  503  502  0.98895513361E+02  0.11705570296E+03 -0.29220067287E+02  0.15600055286E+03  0.00000000000E+00 0. -1.
         21    1    1    2  504  505 -0.49492878793E+02 -0.12860427036E+03  0.19530660328E+04  0.19579212272E+04  0.00000000000E+00 0. -1.
         21    1    1    2  505  501 -0.48373613766E+02 -0.23247574080E+02 -0.90837066101E+01  0.54433169440E+02  0.00000000000E+00 0. -1.
          2    1    1    2  501    0 -0.10290208014E+01  0.34796141477E+02 -0.50807852298E+02  0.61589513723E+02  0.00000000000E+00 0. -1.
<scales pt_clust_3="137.98304" pt_clust_4="14000.00000" pt_clust_5="50.75623" pt_clust_6="34.81135"></scales>
<clustering>
<clus scale="   34.811">  2  6  1 -1</clus>
<clus scale="   50.756">  2  5  1 -1</clus>
<clus scale="  137.983">  2  3  1 -1</clus>
<clus scale="  137.983">  1  3  2 -1</clus>
</clustering>
</event>
<event>
 6    0  0.1622933E+002  0.1044098E+03  0.7546771E-02  0.1271287E+00
          2   -1    0    0  505    0 -0.00000000000E+00  0.00000000000E+00  0.34912774873E+04  0.34912774873E+04  0.00000000000E+00 0. -1.
         21   -1    0    0  501  502  0.00000000000E+00 -0.00000000000E+00 -0.17160161565E+02  0.17160161565E+02  0.00000000000E+00 0. -1.
         21    1    1    2  503  502 -0.18432685303E+02  0.56891213873E+02  0.64089521221E+02  0.87657520121E+02  0.00000000000E+00 0. -1.
         21    1    1    2  504  503  0.71215088359E+02  0.67498046965E+02  0.75349008364E+03  0.75985188116E+03  0.00000000000E+00 0.  1.
         21    1    1    2  505  504 -0.26465704585E+02 -0.35889968336E+02  0.39546581874E+03  0.39797203060E+03  0.00000000000E+00 0.  1.
          2    1    1    2  501    0 -0.26316698471E+02 -0.88499292502E+02  0.22610719021E+04  0.22629562170E+04  0.00000000000E+00 0. -1.
<scales pt_clust_3="59.17235" pt_clust_4="104.40980" pt_clust_5="44.59286" pt_clust_6="14000.00000"></scales>
<clustering>
<clus scale="   44.593">  1  5  2 -1</clus>
<clus scale="   59.172">  2  3  1 -1</clus>
<clus scale="  104.410">  2  4  1 -1</clus>
<clus scale="   59.172">  2  3  1 -1</clus>
</clustering>
</event>
<event>
 6    0  0.1622933E+002  0.1141470E+03  0.7546771E-02  0.1253077E+00
         21   -1    0    0  504  502  0.00000000000E+00  0.00000000000E+00  0.40282391733E+03  0.40282391733E+03  0.00000000000E+00 0. -1.
         -1   -1    0    0    0  501 -0.00000000000E+00 -0.00000000000E+00 -0.84793177182E+03  0.84793177182E+03  0.00000000000E+00 0.  1.
         21    1    1    2  503  505  0.76320320445E+02 -0.30146045067E+02  0.42431926176E+02  0.92379887990E+02  0.00000000000E+00 0. -1.
         21    1    1    2  504  501 -0.18078819997E+02  0.27624725999E+02 -0.96115951942E+02  0.10162797566E+03  0.00000000000E+00 0.  1.
         21    1    1    2  505  502  0.24962123896E+01 -0.60682282867E+02  0.32720441956E+03  0.33279318308E+03  0.00000000000E+00 0. -1.
         -1    1    1    2    0  503 -0.60737712838E+02  0.63203601934E+02 -0.71862824827E+03  0.72395464242E+03  0.00000000000E+00 0.  1.
<scales pt_clust_3="14000.00000" pt_clust_4="33.01468" pt_clust_5="60.62790" pt_clust_6="114.14696"></scales>
<clustering>
<clus scale="   33.015">  2  4  1 -1</clus>
<clus scale="   60.628">  1  5  2 -1</clus>
<clus scale="  114.147">  2  6  1 -1</clus>
<clus scale="   60.628">  1  3  2 -1</clus>
</clustering>
</event>
<event>
 6    0  0.1622933E+002  0.1218686E+03  0.7546771E-02  0.1240046E+00
          2   -1    0    0  505    0 -0.00000000000E+00  0.00000000000E+00  0.60466970067E+03  0.60466970067E+03  0.00000000000E+00 0. -1.
         21   -1    0    0  504  502  0.00000000000E+00 -0.00000000000E+00 -0.49276465844E+02  0.49276465844E+02  0.00000000000E+00 0. -1.
         21    1    1    2  503  501  0.80994578564E+02  0.17321372886E+01  0.16912721387E+03  0.18752902849E+03  0.00000000000E+00 0. -1.
         21    1    1    2  504  503 -0.73749017464E+02  0.47514949562E+02  0.11883594903E+03  0.14771110585E+03  0.00000000000E+00 0. -1.
         21    1    1    2  505  502 -0.57634449353E+02 -0.33234375307E+02  0.25797518217E+02  0.71356607266E+02  0.00000000000E+00 0. -1.
          2    1    1    2  501    0  0.50388888253E+02 -0.16012711543E+02  0.24163255371E+03  0.24734942491E+03  0.00000000000E+00 0. -1.
<scales pt_clust_3="43.72993" pt_clust_4="109.18712" pt_clust_5="66.53009" pt_clust_6="43.72993"></scales>
<clustering>
<clus scale="   43.730">  3  6 -1 -1</clus>
<clus scale="   66.530">  2  5  1 -1</clus>
<clus scale="  109.187">  2  4  1 -1</clus>
<clus scale="   66.530">  2  3  1 -1</clus>
</clustering>
</event>
<event>
 6    0  0.1622933E+002  0.1067339E+03  0.7546771E-02  0.1266741E+00
         -2   -1    0    0    0  501 -0.00000000000E+00  0.00000000000E+00  0.55532895151E+03  0.55532895151E+03  0.00000000000E+00 0.  1.
         21   -1    0    0  504  502  0.00000000000E+00 -0.00000000000E+00 -0.64900611406E+03  0.64900611406E+03  0.00000000000E+00 0. -1.
         21    1    1    2  503  501  0.48293834269E+02 -0.46679638293E+02  0.33995786493E+01  0.67252064612E+02  0.00000000000E+00 0.  1.
         21    1    1    2  504  503 -0.89837117849E+02  0.62892400237E+02  0.12269264434E+03  0.16455894605E+03  0.00000000000E+00 0.  1.
         21    1    1    2  505  502 -0.43853765603E+02  0.96856661950E+02 -0.57778617136E+03  0.58748721308E+03  0.00000000000E+00 0. -1.
         -2    1    1    2    0  505  0.85397049184E+02 -0.11306942389E+03  0.35801678582E+03  0.38503684182E+03  0.00000000000E+00 0.  1.
<scales pt_clust_3="67.16609" pt_clust_4="91.38887" pt_clust_5="14000.00000" pt_clust_6="106.73391"></scales>
<clustering>
<clus scale="   67.166">  1  3  2 -1</clus>
<clus scale="   91.389">  1  4  2 -1</clus>
<clus scale="  106.734">  1  6  2 -1</clus>
<clus scale="  106.734">  2  3  1 -1</clus>
</clustering>
</event>
<event>
 6    0  0.1622933E+002  0.1704538E+03  0.7546771E-02  0.1177375E+00
          2   -1    0    0  504    0 -0.00000000000E+00  0.00000000000E+00  0.13654330587E+04  0.13654330587E+04  0.00000000000E+00 0.  1.
         21   -1    0    0  505  502  0.00000000000E+00 -0.00000000000E+00 -0.24790723033E+03  0.24790723033E+03  0.00000000000E+00 0.  1.
         21    1    1    2  503  501  0.35130750705E+02  0.36503599975E+02  0.19576795135E+03  0.20221714376E+03  0.00000000000E+00 0. -1.
         21    1    1    2  504  502 -0.44785400246E+02 -0.16885335445E+03 -0.20646088450E+03  0.27045015107E+03  0.00000000000E+00 0.  1.
         21    1    1    2  505  503  0.59756773357E+01  0.43872984807E+02  0.10951171964E+03  0.11812435927E+03  0.00000000000E+00 0.  1.
          2    1    1    2  501    0  0.36789722054E+01  0.88476769671E+02  0.10187070419E+04  0.10225486349E+04  0.00000000000E+00 0.  1.
<scales pt_clust_3="33.35361" pt_clust_4="166.67820" pt_clust_5="33.35361" pt_clust_6="88.55322"></scales>
<clustering>
<clus scale="   33.354">  3  5 -1 -1</clus>
<clus scale="   88.553">  1  6  2 -1</clus>
<clus scale="  166.678">  2  4  1 -1</clus>
<clus scale="  166.678">  2  3  1 -1</clus>
</clustering>
</event>
<event>
 6    0  0.1622933E+002  0.1210297E+03  0.7546771E-02  0.1241408E+00
         21   -1    0    0  504  502  0.00000000000E+00  0.00000000000E+00  0.26442782238E+03  0.26442782238E+03  0.00000000000E+00 0. -1.
          2   -1    0    0  503    0 -0.00000000000E+00 -0.00000000000E+00 -0.79541155303E+03  0.79541155303E+03  0.00000000000E+00 0. -1.
         21    1    1    2  503  505  0.79870075316E+02 -0.26330969798E+02 -0.29948083028E+02  0.89271700883E+02  0.00000000000E+00 0. -1.
         21    1    1    2  504  501 -0.17120749306E+03  0.89978912947E+02 -0.56241989813E+03  0.59474730119E+03  0.00000000000E+00 0. -1.
         21    1    1    2  505  502  0.44909503838E+02 -0.86832751686E+01  0.20775032036E+03  0.21272625229E+03  0.00000000000E+00 0. -1.
          2    1    1    2  501    0  0.46427913909E+02 -0.54964667981E+02 -0.14636606985E+03  0.16309412105E+03  0.00000000000E+00 0. -1.
<scales pt_clust_3="121.02974" pt_clust_4="14000.00000" pt_clust_5="45.74126" pt_clust_6="77.57247"></scales>
<clustering>
<clus scale="   45.741">  1  5  2 -1</clus>
<clus scale="   77.572">  2  6  1 -1</clus>
<clus scale="  121.030">  1  3  2 -1</clus>
<clus scale="   45.741">  1  3  2 -1</clus>
</clustering>
</event>
<event>
 6    0  0.1622933E+002  0.1394008E+03  0.7546771E-02  0.1214138E+00
         21   -1    0    0  503  502  0.00000000000E+00  0.00000000000E+00  0.23839172228E+03  0.23839172228E+03  0.00000000000E+00 0.  1.
         -3   -1    0    0    0  501 -0.00000000000E+00 -0.00000000000E+00 -0.17042977513E+04  0.17042977513E+04  0.00000000000E+00 0. -1.
         21    1    1    2  503  501 -0.40358542836E+02 -0.12848324777E+03  0.21475858055E+03  0.25349162680E+03  0.00000000000E+00 0.  1.
         21    1    1    2  504  502  0.18571693825E+02  0.41344528135E+02 -0.10367441192E+04  0.10377343815E+04  0.00000000000E+00 0. -1.
         21    1    1    2  505  504  0.11968230191E+02  0.43354357920E+02 -0.45807294995E+03  0.46027564172E+03  0.00000000000E+00 0. -1.
         -3    1    1    2    0  505  0.98186188200E+01  0.43784361716E+02 -0.18584754045E+03  0.19118782361E+03  0.00000000000E+00 0. -1.
<scales pt_clust_3="134.10149" pt_clust_4="37.92410" pt_clust_5="37.92410" pt_clust_6="44.87177"></scales>
<clustering>
<clus scale="   37.924">  4  5 -1 -1</clus>
<clus scale="   44.872">  2  6  1 -1</clus>
<clus scale="  134.101">  1  3  2 -1</clus>
<clus scale="  134.101">  1  3  2 -1</clus>
</clustering>
</event>
<event>
 6    0  0.1622933E+002  0.1555239E+03  0.7546771E-02  0.1193845E+00
         21   -1    0    0  501  502  0.00000000000E+00  0.00000000000E+00  0.84951530455E+02  0.84951530455E+02  0.00000000000E+00 0.  1.
          2   -1    0    0  503    0 -0.00000000000E+00 -0.00000000000E+00 -0.87772991858E+03  0.87772991858E+03  0.00000000000E+00 0.  1.
         21    1    1    2  503  505  0.59546647425E+02  0.10518946089E+02 -0.17250277583E+03  0.18279403468E+03  0.00000000000E+00 0.  1.
         21    1    1    2  504  502 -0.37958705150E+01 -0.87656935896E+02 -0.10963903847E+02  0.88421457980E+02  0.00000000000E+00 0.  1.
         21    1    1    2  505  504 -0.14188414419E+03  0.15244247708E+03 -0.44412658285E+03  0.49052853208E+03  0.00000000000E+00 0.  1.
          2    1    1    2  501    0  0.86133367284E+02 -0.75304487269E+02 -0.16518512560E+03  0.20093742429E+03  0.00000000000E+00 0.  1.
<scales pt_clust_3="60.46860" pt_clust_4="86.91136" pt_clust_5="155.52392" pt_clust_6="14000.00000"></scales>
<clustering>
<clus scale="   60.469">  2  3  1 -1</clus>
<clus scale="   86.911">  1  4  2 -1</clus>
<clus scale="  155.524">  2  5  1 -1</clus>
<clus scale="   86.911">  1  3  2 -1</clus>
</clustering>
</event>
<event>
 6    0  0.1622933E+002  0.8431806E+02  0.7546771E-02  0.1317226E+00
         21   -1    0    0  505  502  0.00000000000E+00  0.00000000000E+00  0.27537761594E+03  0.27537761594E+03  0.00000000000E+00 0. -1.
          2   -1    0    0  504    0 -0.00000000000E+00 -0.00000000000E+00 -0.18385718917E+04  0.18385718917E+04  0.00000000000E+00 0. -1.
         21    1    1    2  503  501  0.56337345268E+02 -0.52197337908E+02 -0.15232206222E+02  0.78297373282E+02  0.00000000000E+00 0. -1.
         21    1    1    2  504  502  0.31533264931E+02 -0.80248103256E+01 -0.17978535303E+03  0.18270609607E+03  0.00000000000E+00 0. -1.
         21    1    1    2  505  503 -0.35128994614E+02 -0.30491017578E+02  0.23842555411E+03  0.24292075512E+03  0.00000000000E+00 0. -1.
          2    1    1    2  501    0 -0.52741615585E+02  0.90713165812E+02 -0.16066022706E+04  0.16100252831E+04  0.00000000000E+00 0. -1.
<scales pt_clust_3="14000.00000" pt_clust_4="32.53835" pt_clust_5="46.49096" pt_clust_6="84.31806"></scales>
<clustering>
<clus scale="   32.538">  2  4  1 -1</clus>
<clus scale="   46.491">  1  5  2 -1</clus>
<clus scale="   84.318">  2  6  1 -1</clus>
<clus scale="   46.491">  1  3  2 -1</clus>
</clustering>
</event>
<event>
 6    0  0.1622933E+002  0.3866027E+03  0.7546771E-02  0.1048520E+00
          2   -1    0    0  503    0 -0.00000000000E+00  0.00000000000E+00  0.11515334986E+04  0.11515334986E+04  0.00000000000E+00 0.  1.
         21   -1    0    0  505  502  0.00000000000E+00 -0.00000000000E+00 -0.14636828181E+03  0.14636828181E+03  0.00000000000E+00 0. -1.
         21    1    1    2  503  504  0.29814184872E+02  0.60401018600E+01  0.57814176128E+02  0.65328764044E+02  0.00000000000E+00 0. -1.
         21    1    1    2  504  502  0.25564075260E+03 -0.27584287331E+03  0.33975683087E+03  0.50682954657E+03  0.00000000000E+00 0. -1.
         21    1    1    2  505  501 -0.89416130570E+02  0.64321565571E+02  0.21006222586E+03  0.23718905315E+03  0.00000000000E+00 0. -1.
          2    1    1    2  501    0 -0.19603880690E+03  0.20548120588E+03  0.39753198390E+03  0.48855441663E+03  0.00000000000E+00 0.  1.
<scales pt_clust_3="30.41987" pt_clust_4="382.37002" pt_clust_5="35.25427" pt_clust_6="35.25427"></scales>
<clustering>
<clus scale="   30.420">  1  3  2 -1</clus>
<clus scale="   35.254">  5  6 -1 -1</clus>
<clus scale="  382.370">  2  4  1 -1</clus>
<clus scale="  382.370">  2  3  1 -1</clus>
</clustering>
</event>
<event>
 6    0  0.1622933E+002  0.1126806E+03  0.7546771E-02  0.1255685E+00
          2   -1    0    0  503    0 -0.00000000000E+00  0.00000000000E+00  0.84222459794E+03  0.84222459794E+03  0.00000000000E+00 0. -1.
         21   -1    0    0  505  502  0.00000000000E+00 -0.00000000000E+00 -0.66793434294E+02  0.66793434294E+02  0.00000000000E+00 0.  1.
         21    1    1    2  503  504 -0.30347657224E+02  0.18433440670E+02  0.23298451673E+03  0.23567468483E+03  0.00000000000E+00 0.  1.
         21    1    1    2  504  502  0.26298783993E+02  0.34940421463E+02  0.21537624165E+03  0.21977120958E+03  0.00000000000E+00 0.  1.
         21    1    1    2  505  501 -0.10854322472E+03 -0.36255998667E+02  0.79213980488E+01  0.11471215114E+03  0.00000000000E+00 0.  1.
          2    1    1    2  501    0  0.11259209795E+03 -0.17117863467E+02  0.31914900721E+03  0.33885998669E+03  0.00000000000E+00 0. -1.
<scales pt_clust_3="35.50735" pt_clust_4="44.31371" pt_clust_5="14000.00000" pt_clust_6="112.68063"></scales>
<clustering>
<clus scale="   35.507">  1  3  2 -1</clus>
<clus scale="   44.314">  1  4  2 -1</clus>
<clus scale="  112.681">  1  6  2 -1</clus>
<clus scale="  112.681">  2  3  1 -1</clus>
</clustering>
</event>
<event>
 6    0  0.1622933E+002  0.1139548E+03  0.7546771E-02  0.1253417E+00
         21   -1    0    0  505  502  0.00000000000E+00  0.00000000000E+00  0.45515915708E+02  0.45515915708E+02  0.00000000000E+00 0. -1.
         -2   -1    0    0    0  501 -0.00000000000E+00 -0.00000000000E+00 -0.15270334055E+04  0.15270334055E+04  0.00000000000E+00 0. -1.
         21    1    1    2  503  502 -0.26142224808E+01  0.11976364197E+03 -0.90139939399E+02  0.14991788676E+03  0.00000000000E+00 0. -1.
         21    1    1    2  504  501 -0.29546588910E+02 -0.27779185269E+02 -0.10983452931E+04  0.10990937480E+04  0.00000000000E+00 0. -1.
         21    1    1    2  505  504  0.35192790971E+02  0.59797168667E+01 -0.49554394888E+02  0.61073133233E+02  0.00000000000E+00 0.  1.
         -2    1    1    2    0  503 -0.30319795794E+01 -0.97964173568E+02 -0.24347786242E+03  0.26246455321E+03  0.00000000000E+00 0. -1.
<scales pt_clust_3="113.95478" pt_clust_4="40.27523" pt_clust_5="35.69719" pt_clust_6="14000.00000"></scales>
<clustering>
<clus scale="   35.697">  1  5  2 -1</clus>
<clus scale="   40.275">  2  4  1 -1</clus>
<clus scale="  113.955">  1  3  2 -1</clus>
<clus scale="   35.697">  1  3  2 -1</clus>
</clustering>
</event>
<event>
 6    0  0.1622933E+002  0.2829813E+03  0.7546771E-02  0.1094072E+00
         21   -1    0    0  501  502  0.00000000000E+00  0.00000000000E+00  0.12267510279E+03  0.12267510279E+03  0.00000000000E+00 0. -1.
          1   -1    0    0  504    0 -0.00000000000E+00 -0.00000000000E+00 -0.16013676246E+04  0.16013676246E+04  0.00000000000E+00 0.  1.
         21    1    1    2  503  502 -0.93645851928E+02 -0.66450211508E+02  0.18778548506E+02  0.11635209528E+03  0.00000000000E+00 0. -1.
         21    1    1    2  504  505 -0.99566497288E+01  0.50179369295E+02 -0.57160661119E+02  0.76710137246E+02  0.00000000000E+00 0. -1.
         21    1    1    2  505  503 -0.17958686240E+03  0.77475314146E+02 -0.33107597148E+03  0.38453239700E+03  0.00000000000E+00 0.  1.
          1    1    1    2  501    0  0.28318936405E+03 -0.61204471932E+02 -0.11092344377E+04  0.11464480979E+04  0.00000000000E+00 0.  1.
<scales pt_clust_3="114.82672" pt_clust_4="50.61488" pt_clust_5="50.61488" pt_clust_6="265.11113"></scales>
<clustering>
<clus scale="   50.615">  4  5 -1 -1</clus>
<clus scale="  114.827">  1  3  2 -1</clus>
<clus scale="  265.111">  2  6  1 -1</clus>
<clus scale="  114.827">  1  3  2 -1</clus>
</clustering>
</event>
<event>
 6    0  0.1622933E+002  0.1313725E+03  0.7546771E-02  0.1225433E+00
         -2   -1    0    0    0  501 -0.00000000000E+00  0.00000000000E+00  0.12238386218E+03  0.12238386218E+03  0.00000000000E+00 0. -1.
         21   -1    0    0  503  502  0.00000000000E+00 -0.00000000000E+00 -0.39367962490E+03  0.39367962490E+03  0.00000000000E+00 0. -1.
         21    1    1    2  503  505 -0.31561143688E+02  0.50680052525E+02 -0.20741483884E+03  0.21583671812E+03  0.00000000000E+00 0. -1.
         21    1    1    2  504  502  0.36838800310E+02 -0.40073354899E+02 -0.34032900312E+02  0.64196645432E+02  0.00000000000E+00 0. -1.
         21    1    1    2  505  501  0.95464021791E+01  0.10231116430E+03  0.30441126256E+02  0.10716981992E+03  0.00000000000E+00 0. -1.
         -2    1    1    2    0  504 -0.14824058801E+02 -0.11291786192E+03 -0.60289149820E+02  0.12886030361E+03  0.00000000000E+00 0. -1.
<scales pt_clust_3="59.70405" pt_clust_4="46.29113" pt_clust_5="113.02810" pt_clust_6="46.29113"></scales>
<clustering>
<clus scale="   46.291">  4  6 -1 -1</clus>
<clus scale="   59.704">  2  3  1 -1</clus>
<clus scale="  113.028">  1  5  2 -1</clus>
<clus scale="   59.704">  2  3  1 -1</clus>
</clustering>
</event>
<event>
 6    0  0.1622933E+002  0.1190845E+03  0.7546771E-02  0.1244615E+00
          2   -1    0    0  503    0 -0.00000000000E+00  0.00000000000E+00  0.41309602535E+04  0.41309602535E+04  0.00000000000E+00 0.  1.
         21   -1    0    0  504  502  0.00000000000E+00 -0.00000000000E+00 -0.31808352636E+02  0.31808352636E+02  0.00000000000E+00 0.  1.
         21    1    1    2  503  505  0.17726031167E+02  0.59909118969E+02  0.75599286953E+03  0.75857005840E+03  0.00000000000E+00 0.  1.
         21    1    1    2  504  501 -0.73092142651E+02 -0.10630555008E+03  0.16167033380E+03  0.20683478461E+03  0.00000000000E+00 0.  1.
         21    1    1    2  505  502  0.93610874690E+02 -0.73263603125E+02  0.25878493360E+04  0.25905780701E+04  0.00000000000E+00 0.  1.
          2    1    1    2  501    0 -0.38244763205E+02  0.11966003424E+03  0.59363936152E+03  0.60678569302E+03  0.00000000000E+00 0.  1.
<scales pt_clust_3="62.47651" pt_clust_4="14000.00000" pt_clust_5="110.63252" pt_clust_6="119.08451"></scales>
<clustering>
<clus scale="   62.477">  1  3  2 -1</clus>
<clus scale="  110.633">  1  5  2 -1</clus>
<clus scale="  119.085">  1  6  2 -1</clus>
<clus scale="  119.085">  2  3  1 -1</clus>
</clustering>
</event>
<event>
 6    0  0.1622933E+002  0.3389028E+03  0.7546771E-02  0.1067264E+00
         21   -1    0    0  503  502  0.00000000000E+00  0.00000000000E+00  0.16777446178E+04  0.16777446178E+04  0.00000000000E+00 0. -1.
          2   -1    0    0  505    0 -0.00000000000E+00 -0.00000000000E+00 -0.69078531311E+03  0.69078531311E+03  0.00000000000E+00 0. -1.
         21    1    1    2  503  504  0.26703236846E+03 -0.13964512275E+03  0.15467118715E+04  0.15757933429E+04  0.00000000000E+00 0. -1.
         21    1    1    2  504  501 -0.25796312317E+03  0.10855616173E+03 -0.45600666396E+03  0.53504344752E+03  0.00000000000E+00 0. -1.
         21    1    1    2  505  502  0.39720845961E+02  0.47171478232E+02  0.60022815629E+02  0.86055983862E+02  0.00000000000E+00 0.  1.
          2    1    1    2  501    0 -0.48790091256E+02 -0.16082517209E+02 -0.16376871850E+03  0.17163715660E+03  0.00000000000E+00 0. -1.
<scales pt_clust_3="319.73124" pt_clust_4="48.14314" pt_clust_5="61.66761" pt_clust_6="48.14314"></scales>
<clustering>
<clus scale="   48.143">  4  6 -1 -1</clus>
<clus scale="   61.668">  1  5  2 -1</clus>
<clus scale="  319.731">  1  3  2 -1</clus>
<clus scale="   61.668">  1  3  2 -1</clus>
</clustering>
</event>
<event>
 6    0  0.1622933E+002  0.3504129E+03  0.7546771E-02  0.1062446E+00
         21   -1    0    0  504  502  0.00000000000E+00  0.00000000000E+00  0.12531307858E+03  0.12531307858E+03  0.00000000000E+00 0.  1.
          1   -1    0    0  505    0 -0.00000000000E+00 -0.00000000000E+00 -0.30546012130E+04  0.30546012130E+04  0.00000000000E+00 0. -1.
         21    1    1    2  503  501 -0.29012428904E+02 -0.61099438239E+02 -0.40966205059E+03  0.41520821052E+03  0.00000000000E+00 0.  1.
         21    1    1    2  504  503  0.23734030032E+03  0.25284761446E+03 -0.15583859935E+03  0.38019469136E+03  0.00000000000E+00 0.  1.
         21    1    1    2  505  502  0.33805285819E+01 -0.39865463406E+02 -0.62845026822E+03  0.62972249664E+03  0.00000000000E+00 0.  1.
          1    1    1    2  501    0 -0.21170839999E+03 -0.15188271281E+03 -0.17353372163E+04  0.17547888931E+04  0.00000000000E+00 0. -1.
<scales pt_clust_3="34.39664" pt_clust_4="343.84817" pt_clust_5="40.00854" pt_clust_6="34.39664"></scales>
<clustering>
<clus scale="   34.397">  3  6 -1 -1</clus>
<clus scale="   40.009">  2  5  1 -1</clus>
<clus scale="  343.848">  1  4  2 -1</clus>
<clus scale="  343.848">  1  3  2 -1</clus>
</clustering>
</event>
<event>
 6    0  0.1622933E+002  0.1173583E+03  0.7546771E-02  0.1247520E+00
         21   -1    0    0  504  502  0.00000000000E+00  0.00000000000E+00  0.12475650980E+03  0.12475650980E+03  0.00000000000E+00 0.  1.
          1   -1    0    0  505    0 -0.00000000000E+00 -0.00000000000E+00 -0.97587178708E+03  0.97587178708E+03  0.00000000000E+00 0.  1.
         21    1    1    2  503  502 -0.55190701316E+02  0.14946088346E+02 -0.11218112176E+03  0.12591268065E+03  0.00000000000E+00 0.  1.
         21    1    1    2  504  501  0.11648950031E+03  0.33869274386E+02  0.83383159363E+02  0.14720625902E+03  0.00000000000E+00 0.  1.
         21    1    1    2  505  503 -0.77819156409E+01 -0.36821259470E+02 -0.31857164297E+03  0.32078693095E+03  0.00000000000E+00 0.  1.
          1    1    1    2  501    0 -0.53516883353E+02 -0.11994103263E+02 -0.50374567190E+03  0.50672242626E+03  0.00000000000E+00 0.  1.
<scales pt_clust_3="57.20288" pt_clust_4="117.35830" pt_clust_5="37.63460" pt_clust_6="14000.00000"></scales>
<clustering>
<clus scale="   37.635">  2  5  1 -1</clus>
<clus scale="   57.203">  2  3  1 -1</clus>
<clus scale="  117.358">  1  4  2 -1</clus>
<clus scale="  117.358">  1  3  2 -1</clus>
</clustering>
</event>
<event>
 6    0  0.1622933E+002  0.9198699E+02  0.7546771E-02  0.1298110E+00
          2   -1    0    0  505    0 -0.00000000000E+00  0.00000000000E+00  0.21495977897E+03  0.21495977897E+03  0.00000000000E+00 0. -1.
         21   -1    0    0  501  502  0.00000000000E+00 -0.00000000000E+00 -0.13761618038E+04  0.13761618038E+04  0.00000000000E+00 0. -1.
         21    1    1    2  503  504  0.19082751471E+02 -0.34054809335E+02  0.54470125768E+02  0.67013998864E+02  0.00000000000E+00 0. -1.
         21    1    1    2  504  502  0.21001167121E+02 -0.89308720141E+02 -0.13285240050E+04  0.13316880747E+04  0.00000000000E+00 0. -1.
         21    1    1    2  505  503 -0.29735171513E+02  0.96977337495E+01 -0.88464998384E+00  0.31289120639E+02  0.00000000000E+00 0.  1.
          2    1    1    2  501    0 -0.10348747080E+02  0.11366579573E+03  0.11373650438E+03  0.16113038854E+03  0.00000000000E+00 0. -1.
<scales pt_clust_3="32.68637" pt_clust_4="14000.00000" pt_clust_5="31.27661" pt_clust_6="91.98699"></scales>
<clustering>
<clus scale="   31.277">  1  5  2 -1</clus>
<clus scale="   32.686">  1  3  2 -1</clus>
<clus scale="   91.987">  1  6  2 -1</clus>
<clus scale="   91.987">  2  3  1 -1</clus>
</clustering>
</event>
<event>
 6    0  0.1622933E+002  0.8923014E+02  0.7546771E-02  0.1304727E+00
         21   -1    0    0  505  502  0.00000000000E+00  0.00000000000E+00  0.50895727947E+02  0.50895727947E+02  0.00000000000E+00 0. -1.
          2   -1    0    0  503    0 -0.00000000000E+00 -0.00000000000E+00 -0.11763410099E+04  0.11763410099E+04  0.00000000000E+00 0. -1.
         21    1    1    2  503  504 -0.71976882209E+01  0.79840788030E+02 -0.17693881110E+03  0.19425164355E+03  0.00000000000E+00 0. -1.
         21    1    1    2  504  502  0.18446906982E+02  0.48085115459E+02  0.13444281625E+02  0.53227957074E+02  0.00000000000E+00 0. -1.
         21    1    1    2  505  501 -0.64379686345E+02 -0.84176213804E+02 -0.40762872231E+03  0.42117876756E+03  0.00000000000E+00 0. -1.
          2    1    1    2  501    0  0.53130467583E+02 -0.43749689685E+02 -0.55432203014E+03  0.55857836964E+03  0.00000000000E+00 0. -1.
<scales pt_clust_3="89.23014" pt_clust_4="51.50210" pt_clust_5="14000.00000" pt_clust_6="67.10801"></scales>
<clustering>
<clus scale="   51.502">  1  4  2 -1</clus>
<clus scale="   67.108">  2  6  1 -1</clus>
<clus scale="   89.230">  2  3  1 -1</clus>
<clus scale="   51.502">  1  3  2 -1</clus>
</clustering>
</event>
<event>
 6    0  0.1622933E+002  0.7657251E+02  0.7546771E-02  0.1339070E+00
         21   -1    0    0  503  502  0.00000000000E+00  0.00000000000E+00  0.14692870248E+04  0.14692870248E+04  0.00000000000E+00 0.  1.
          2   -1    0    0  504    0 -0.00000000000E+00 -0.00000000000E+00 -0.21309065242E+03  0.21309065242E+03  0.00000000000E+00 0. -1.
         21    1    1    2  503  501 -0.62326881622E+02  0.44486305477E+02  0.13754553191E+04  0.13775852084E+04  0.00000000000E+00 0.  1.
         21    1    1    2  504  505  0.28928622933E+02 -0.28703111955E+02  0.14286042095E+02  0.43183617952E+02  0.00000000000E+00 0.  1.
         21    1    1    2  505  502 -0.62497484076E+02 -0.19164006984E+02  0.30052742177E+02  0.71946938725E+02  0.00000000000E+00 0.  1.
          2    1    1    2  501    0  0.95895742766E+02  0.33808134624E+01 -0.16359773092E+03  0.18966191221E+03  0.00000000000E+00 0. -1.
<scales pt_clust_3="76.57251" pt_clust_4="40.75210" pt_clust_5="63.45366" pt_clust_6="14000.00000"></scales>
<clustering>
<clus scale="   40.752">  2  4  1 -1</clus>
<clus scale="   63.454">  2  5  1 -1</clus>
<clus scale="   76.573">  1  3  2 -1</clus>
<clus scale="   76.573">  1  3  2 -1</clus>
</clustering>
</event>
<event>
 6    0  0.1622933E+002  0.6329894E+02  0.7546771E-02  0.1384487E+00
          2   -1    0    0  504    0 -0.00000000000E+00  0.00000000000E+00  0.10269669111E+04  0.10269669111E+04  0.00000000000E+00 0. -1.
         21   -1    0    0  505  502  0.00000000000E+00 -0.00000000000E+00 -0.13947808842E+03  0.13947808842E+03  0.00000000000E+00 0. -1.
         21    1    1    2  503  502  0.27160310818E+02  0.51531609214E+02  0.45595199539E+03  0.45965792861E+03  0.00000000000E+00 0. -1.
         21    1    1    2  504  503 -0.36305092422E+02  0.69193859122E+01  0.69443290353E+02  0.78665800779E+02  0.00000000000E+00 0. -1.
         21    1    1    2  505  501 -0.53279668776E+02  0.33036845433E+02 -0.11896775116E+03  0.13447483808E+03  0.00000000000E+00 0. -1.
          2    1    1    2  501    0  0.62424450380E+02 -0.91487840559E+02  0.48106128811E+03  0.49364643207E+03  0.00000000000E+00 0. -1.
<scales pt_clust_3="55.71008" pt_clust_4="36.95859" pt_clust_5="14000.00000" pt_clust_6="63.29894"></scales>
<clustering>
<clus scale="   36.959">  1  4  2 -1</clus>
<clus scale="   55.710">  1  3  2 -1</clus>
<clus scale="   63.299">  1  6  2 -1</clus>
<clus scale="   63.299">  2  3  1 -1</clus>
</clustering>
</event>
<event>
 6    0  0.1622933E+002  0.1763908E+03  0.7546771E-02  0.1171343E+00
          2   -1    0    0  505    0 -0.00000000000E+00  0.00000000000E+00  0.64990545193E+03  0.64990545193E+03  0.00000000000E+00 0.  1.
         21   -1    0    0  503  502  0.00000000000E+00 -0.00000000000E+00 -0.14456737130E+03  0.14456737130E+03  0.00000000000E+00 0. -1.
         21    1    1    2  503  504 -0.53936635466E+02  0.12447378105E+02  0.41280578793E+02  0.69052038728E+02  0.00000000000E+00 0.  1.
         21    1    1    2  504  501 -0.30388058820E+02 -0.18072220216E+03  0.10364943817E+03  0.21054014939E+03  0.00000000000E+00 0. -1.
         21    1    1    2  505  502  0.11040680733E+03 -0.60391815368E+01 -0.34018308857E+01  0.11062417129E+03  0.00000000000E+00 0. -1.
          2    1    1    2  501    0 -0.26082113049E+02  0.17431400559E+03  0.36380989455E+03  0.40425646382E+03  0.00000000000E+00 0.  1.
<scales pt_clust_3="55.35429" pt_clust_4="14000.00000" pt_clust_5="86.87779" pt_clust_6="176.39075"></scales>
<clustering>
<clus scale="   55.354">  2  3  1 -1</clus>
<clus scale="   86.878">  2  5  1 -1</clus>
<clus scale="  176.391">  1  6  2 -1</clus>
<clus scale="   55.354">  2  3  1 -1</clus>
</clustering>
</event>
<event>
 6    0  0.1622933E+002  0.6504131E+02  0.7546771E-02  0.1377816E+00
         -2   -1    0    0    0  501 -0.00000000000E+00  0.00000000000E+00  0.79520743151E+02  0.79520743151E+02  0.00000000000E+00 0.  1.
         21   -1    0    0  504  502  0.00000000000E+00 -0.00000000000E+00 -0.17524115662E+04  0.17524115662E+04  0.00000000000E+00 0.  1.
         21    1    1    2  503  501 -0.38780561907E+02 -0.70198295856E+01  0.47121877483E+01  0.39691494084E+02  0.00000000000E+00 0.  1.
         21    1    1    2  504  503  0.16048539881E+02  0.64560577363E+02 -0.33732860496E+02  0.74589071981E+02  0.00000000000E+00 0. -1.
         21    1    1    2  505  502 -0.99519498859E+01  0.63197348865E+02 -0.15721783081E+04  0.15734794497E+04  0.00000000000E+00 0.  1.
         -2    1    1    2    0  505  0.32683971912E+02 -0.12073809664E+03 -0.71691842239E+02  0.14417229361E+03  0.00000000000E+00 0.  1.
<scales pt_clust_3="39.41079" pt_clust_4="62.09871" pt_clust_5="65.04131" pt_clust_6="14000.00000"></scales>
<clustering>
<clus scale="   39.411">  1  3  2 -1</clus>
<clus scale="   62.099">  1  4  2 -1</clus>
<clus scale="   65.041">  2  5  1 -1</clus>
<clus scale="   65.041">  2  3  1 -1</clus>
</clustering>
</event>
<event>
 6    0  0.1622933E+002  0.9596412E+02  0.7546771E-02  0.1289019E+00
          1   -1    0    0  503    0 -0.00000000000E+00  0.00000000000E+00  0.16258776611E+04  0.16258776611E+04  0.00000000000E+00 0.  1.
         21   -1    0    0  505  502  0.00000000000E+00 -0.00000000000E+00 -0.78650303317E+02  0.78650303317E+02  0.00000000000E+00 0. -1.
         21    1    1    2  503  504 -0.12645492159E+02  0.41520624205E+02  0.31421936622E+03  0.31720290165E+03  0.00000000000E+00 0. -1.
         21    1    1    2  504  502 -0.27828421026E+02  0.78691962832E+02 -0.49964253216E+02  0.97279353568E+02  0.00000000000E+00 0. -1.
         21    1    1    2  505  501  0.48349570773E+02 -0.79758357427E+02  0.84100919546E+03  0.84616519866E+03  0.00000000000E+00 0.  1.
          1    1    1    2  501    0 -0.78756575891E+01 -0.40454229609E+02  0.44196304929E+03  0.44388051052E+03  0.00000000000E+00 0.  1.
<scales pt_clust_3="43.40358" pt_clust_4="84.25061" pt_clust_5="30.54157" pt_clust_6="30.54157"></scales>
<clustering>
<clus scale="   30.542">  5  6 -1 -1</clus>
<clus scale="   43.404">  1  3  2 -1</clus>
<clus scale="   84.251">  2  4  1 -1</clus>
<clus scale="   84.251">  2  3  1 -1</clus>
</clustering>
</event>
<event>
 6    0  0.3071144E+002  0.1219162E+03  0.7546771E-02  0.1239969E+00
         21   -1    0    0  504  502  0.00000000000E+00  0.00000000000E+00  0.71699106051E+03  0.71699106051E+03  0.00000000000E+00 0.  1.
          1   -1    0    0  503    0 -0.00000000000E+00 -0.00000000000E+00 -0.12828802836E+04  0.12828802836E+04  0.00000000000E+00 0.  1.
         21    1    1    2  503  505  0.25816753172E+02  0.29294348744E+02 -0.55731461368E+02  0.68048948551E+02  0.00000000000E+00 0. -1.
         21    1    1    2  504  501 -0.34124279769E+02  0.74505875053E+02 -0.22565301081E+03  0.24007264146E+03  0.00000000000E+00 0. -1.
         21    1    1    2  505  502  0.49985876826E+02 -0.11220679611E+03  0.69779796196E+03  0.70852730977E+03  0.00000000000E+00 0.  1.
          1    1    1    2  501    0 -0.41678350229E+02  0.84065723088E+01 -0.98230271284E+03  0.98322244431E+03  0.00000000000E+00 0.  1.
<scales pt_clust_3="39.04694" pt_clust_4="121.91623" pt_clust_5="14000.00000" pt_clust_6="38.20753"></scales>
<clustering>
<clus scale="   39.047">  2  3  1 -1</clus>
<clus scale="   38.208">  2  6  1 -1</clus>
<clus scale="  121.916">  2  4  1 -1</clus>
<clus scale="  121.916">  1  3  2 -1</clus>
</clustering>
</event>
<event>
 6    0  0.1622933E+002  0.2269165E+03  0.7546771E-02  0.1128829E+00
         21   -1    0    0  505  502  0.00000000000E+00  0.00000000000E+00  0.78223520210E+02  0.78223520210E+02  0.00000000000E+00 0. -1.
          2   -1    0    0  502    0 -0.00000000000E+00 -0.00000000000E+00 -0.12539252302E+04  0.12539252302E+04  0.00000000000E+00 0. -1.
         21    1    1    2  503  504  0.73526248539E+02  0.33315952168E+02 -0.28585249476E+03  0.29703149775E+03  0.00000000000E+00 0. -1.
         21    1    1    2  504  501  0.56516838307E+02  0.71542917258E+02 -0.58720541700E+03  0.59424131780E+03  0.00000000000E+00 0. -1.
         21    1    1    2  505  503 -0.11838318786E+03 -0.15105818425E+03 -0.71394722980E+02  0.20476904226E+03  0.00000000000E+00 0. -1.
          2    1    1    2  501    0 -0.11659898985E+02  0.46199314825E+02 -0.23124907525E+03  0.23610689261E+03  0.00000000000E+00 0. -1.
<scales pt_clust_3="77.38450" pt_clust_4="44.18095" pt_clust_5="191.91966" pt_clust_6="77.38450"></scales>
<clustering>
<clus scale="   44.181">  4  6 -1 -1</clus>
<clus scale="   77.384">  3  4 -1 -1</clus>
<clus scale="  191.920">  1  5  2 -1</clus>
<clus scale="  191.920">  1  3  2 -1</clus>
</clustering>
</event>
<event>
 6    0  0.1622933E+002  0.9521315E+02  0.7546771E-02  0.1290697E+00
          1   -1    0    0  505    0 -0.00000000000E+00  0.00000000000E+00  0.35127567189E+03  0.35127567189E+03  0.00000000000E+00 0. -1.
         21   -1    0    0  503  502  0.00000000000E+00 -0.00000000000E+00 -0.31142548840E+03  0.31142548840E+03  0.00000000000E+00 0.  1.
         21    1    1    2  503  504  0.31516136003E+02 -0.96548311540E+02 -0.26955810989E+03  0.28805627558E+03  0.00000000000E+00 0.  1.
         21    1    1    2  504  501 -0.30181329141E+01  0.57995815392E+02  0.41930131468E+02  0.71629321191E+02  0.00000000000E+00 0.  1.
         21    1    1    2  505  502  0.39518516047E+02 -0.43169879771E+01  0.23610234557E+02  0.46236270087E+02  0.00000000000E+00 0. -1.
          1    1    1    2  501    0 -0.68016519135E+02  0.42869484124E+02  0.24386792736E+03  0.25677929344E+03  0.00000000000E+00 0. -1.
<scales pt_clust_3="14000.00000" pt_clust_4="95.21315" pt_clust_5="39.75361" pt_clust_6="53.91540"></scales>
<clustering>
<clus scale="   39.754">  1  5  2 -1</clus>
<clus scale="   53.915">  1  6  2 -1</clus>
<clus scale="   95.213">  1  4  2 -1</clus>
<clus scale="   95.213">  2  3  1 -1</clus>
</clustering>
</event>
<event>
 6    0  0.1622933E+002  0.1741889E+03  0.7546771E-02  0.1173549E+00
          2   -1    0    0  502    0 -0.00000000000E+00  0.00000000000E+00  0.44600503625E+04  0.44600503625E+04  0.00000000000E+00 0.  1.
         21   -1    0    0  504  502  0.00000000000E+00 -0.00000000000E+00 -0.49937949570E+02  0.49937949570E+02  0.00000000000E+00 0.  1.
         21    1    1    2  503  501  0.70354174772E+02 -0.29544686308E+02  0.81503109271E+03  0.81859530935E+03  0.00000000000E+00 0.  1.
         21    1    1    2  504  505 -0.11160478071E+03  0.42127469477E+02  0.41757987219E+02  0.12638860810E+03  0.00000000000E+00 0.  1.
         21    1    1    2  505  503  0.26810099149E+02 -0.14301942845E+03  0.13609413070E+04  0.13686981331E+04  0.00000000000E+00 0.  1.
          2    1    1    2  501    0  0.14440506786E+02  0.13043664528E+03  0.21923820259E+04  0.21963062615E+04  0.00000000000E+00 0.  1.
<scales pt_clust_3="73.05524" pt_clust_4="119.29103" pt_clust_5="73.05524" pt_clust_6="142.00111"></scales>
<clustering>
<clus scale="   73.055">  3  5 -1 -1</clus>
<clus scale="  119.291">  2  4  1 -1</clus>
<clus scale="  142.001">  1  6  2 -1</clus>
<clus scale="  119.291">  2  3  1 -1</clus>
</clustering>
</event>
<event>
 6    0  0.1622933E+002  0.1732482E+03  0.7546771E-02  0.1174502E+00
         21   -1    0    0  505  502  0.00000000000E+00  0.00000000000E+00  0.52558443252E+02  0.52558443252E+02  0.00000000000E+00 0. -1.
          2   -1    0    0  504    0 -0.00000000000E+00 -0.00000000000E+00 -0.35202967332E+04  0.35202967332E+04  0.00000000000E+00 0.  1.
         21    1    1    2  503  502 -0.50954186609E+02 -0.15513437131E+03 -0.86756842488E+02  0.18490471063E+03  0.00000000000E+00 0. -1.
         21    1    1    2  504  503  0.53955555999E+02  0.58113507251E+01 -0.10370374584E+04  0.10384563852E+04  0.00000000000E+00 0.  1.
         21    1    1    2  505  501  0.28598555796E+02  0.58335558844E+02 -0.98699811732E+03  0.98913406494E+03  0.00000000000E+00 0.  1.
          2    1    1    2  501    0 -0.31599925186E+02  0.90987461744E+02 -0.13569458717E+04  0.13603600157E+04  0.00000000000E+00 0.  1.
<scales pt_clust_3="162.08737" pt_clust_4="54.26761" pt_clust_5="50.24415" pt_clust_6="50.24415"></scales>
<clustering>
<clus scale="   50.244">  5  6 -1 -1</clus>
<clus scale="   54.268">  2  4  1 -1</clus>
<clus scale="  162.087">  1  3  2 -1</clus>
<clus scale="  162.087">  1  3  2 -1</clus>
</clustering>
</event>
<event>
 6    0  0.1622933E+002  0.1211598E+03  0.7546771E-02  0.1241196E+00
          2   -1    0    0  504    0 -0.00000000000E+00  0.00000000000E+00  0.95842739906E+03  0.95842739906E+03  0.00000000000E+00 0. -1.
         21   -1    0    0  505  502  0.00000000000E+00 -0.00000000000E+00 -0.24536982063E+03  0.24536982063E+03  0.00000000000E+00 0.  1.
         21    1    1    2  503  502 -0.97429329918E+02  0.10505195640E+03  0.48956173614E+02  0.15141035237E+03  0.00000000000E+00 0.  1.
         21    1    1    2  504  503 -0.37529240751E+02  0.19512661319E+02  0.96778718354E+02  0.10561869242E+03  0.00000000000E+00 0. -1.
         21    1    1    2  505  501  0.30295154553E+02 -0.15003816591E+02 -0.18055670284E+03  0.18369440340E+03  0.00000000000E+00 0.  1.
          2    1    1    2  501    0  0.10466341612E+03 -0.10956080112E+03  0.74787938930E+03  0.76307377150E+03  0.00000000000E+00 0. -1.
<scales pt_clust_3="121.15977" pt_clust_4="39.93659" pt_clust_5="33.80697" pt_clust_6="14000.00000"></scales>
<clustering>
<clus scale="   33.807">  2  5  1 -1</clus>
<clus scale="   39.937">  1  4  2 -1</clus>
<clus scale="  121.160">  2  3  1 -1</clus>
<clus scale="   33.807">  2  3  1 -1</clus>
</clustering>
</event>
<event>
 6    0  0.1622933E+002  0.1293059E+03  0.7546771E-02  0.1228489E+00
          2   -1    0    0  505    0 -0.00000000000E+00  0.00000000000E+00  0.17693853939E+04  0.17693853939E+04  0.00000000000E+00 0.  1.
         21   -1    0    0  504  502  0.00000000000E+00 -0.00000000000E+00 -0.23271402701E+03  0.23271402701E+03  0.00000000000E+00 0.  1.
         21    1    1    2  503  502  0.33726662424E+01  0.47300882216E+02 -0.21256142436E+03  0.21778683950E+03  0.00000000000E+00 0.  1.
         21    1    1    2  504  501 -0.21441962768E+02 -0.22509107064E+02  0.30130175928E+02  0.43292553282E+02  0.00000000000E+00 0.  1.
         21    1    1    2  505  503  0.11946577469E+02 -0.14575705014E+03  0.72801773711E+03  0.74256155564E+03  0.00000000000E+00 0.  1.
          2    1    1    2  501    0  0.61227190571E+01  0.12096527499E+03  0.99108487824E+03  0.99845847251E+03  0.00000000000E+00 0.  1.
<scales pt_clust_3="30.98284" pt_clust_4="31.08726" pt_clust_5="14000.00000" pt_clust_6="129.30589"></scales>
<clustering>
<clus scale="   31.087">  2  4  1 -1</clus>
<clus scale="   30.983">  2  3  1 -1</clus>
<clus scale="  129.306">  1  6  2 -1</clus>
<clus scale="   31.087">  2  3  1 -1</clus>
</clustering>
</event>
<event>
 6    0  0.1622933E+002  0.1392407E+03  0.7546771E-02  0.1214354E+00
         21   -1    0    0  503  502  0.00000000000E+00  0.00000000000E+00  0.75968458080E+03  0.75968458080E+03  0.00000000000E+00 0. -1.
          2   -1    0    0  505    0 -0.00000000000E+00 -0.00000000000E+00 -0.72223114554E+03  0.72223114554E+03  0.00000000000E+00 0. -1.
         21    1    1    2  503  501  0.10336478776E+03 -0.32341880363E+02  0.65433245246E+03  0.66323542947E+03  0.00000000000E+00 0. -1.
         21    1    1    2  504  502 -0.12006673090E+02 -0.50801557088E+02  0.38617668640E+02  0.64932909472E+02  0.00000000000E+00 0.  1.
         21    1    1    2  505  504 -0.12948645613E+03 -0.60605579110E+02 -0.89805509921E+02  0.16883367008E+03  0.00000000000E+00 0. -1.
          2    1    1    2  501    0  0.38128341465E+02  0.14374901656E+03 -0.56569117592E+03  0.58491371731E+03  0.00000000000E+00 0. -1.
<scales pt_clust_3="121.81246" pt_clust_4="52.20113" pt_clust_5="14000.00000" pt_clust_6="139.24069"></scales>
<clustering>
<clus scale="   52.201">  1  4  2 -1</clus>
<clus scale="  121.812">  1  3  2 -1</clus>
<clus scale="  139.241">  2  6  1 -1</clus>
<clus scale="   52.201">  1  3  2 -1</clus>
</clustering>
</event>
<event>
 6    0  0.1622933E+002  0.1470486E+03  0.7546771E-02  0.1204147E+00
          1   -1    0    0  503    0 -0.00000000000E+00  0.00000000000E+00  0.12132899117E+03  0.12132899117E+03  0.00000000000E+00 0.  1.
         21   -1    0    0  504  502  0.00000000000E+00 -0.00000000000E+00 -0.29171669691E+03  0.29171669691E+03  0.00000000000E+00 0.  1.
         21    1    1    2  503  505  0.17328609076E+01 -0.36317552068E+02  0.29843097819E+01  0.36481138962E+02  0.00000000000E+00 0. -1.
         21    1    1    2  504  501 -0.69131080059E+02  0.66833352260E+02 -0.16830702641E+03  0.19383771136E+03  0.00000000000E+00 0.  1.
         21    1    1    2  505  502  0.11461626518E+03 -0.39248989595E+02  0.28102385175E+02  0.12436685845E+03  0.00000000000E+00 0.  1.
          1    1    1    2  501    0 -0.47218046032E+02  0.87331894025E+01 -0.33167374276E+02  0.58359979306E+02  0.00000000000E+00 0.  1.
<scales pt_clust_3="36.35887" pt_clust_4="43.73436" pt_clust_5="133.63745" pt_clust_6="43.73436"></scales>
<clustering>
<clus scale="   36.359">  1  3  2 -1</clus>
<clus scale="   43.734">  4  6 -1 -1</clus>
<clus scale="  133.637">  1  5  2 -1</clus>
<clus scale="  147.049">  2  3  1 -1</clus>
</clustering>
</event>
<event>
 6    0  0.1622933E+002  0.1532800E+03  0.7546771E-02  0.1196499E+00
         21   -1    0    0  505  502  0.00000000000E+00  0.00000000000E+00  0.12300037715E+03  0.12300037715E+03  0.00000000000E+00 0.  1.
          2   -1    0    0  503    0 -0.00000000000E+00 -0.00000000000E+00 -0.94520580036E+03  0.94520580036E+03  0.00000000000E+00 0. -1.
         21    1    1    2  503  502 -0.25519507816E+02  0.38721065018E+02 -0.56421709438E+03  0.56611968323E+03  0.00000000000E+00 0. -1.
         21    1    1    2  504  501 -0.27827451835E+02  0.38235953631E+02 -0.68628485035E+02  0.83344011086E+02  0.00000000000E+00 0.  1.
         21    1    1    2  505  504  0.82706787393E+02 -0.12320356674E+03  0.62484952271E+02  0.16100900844E+03  0.00000000000E+00 0.  1.
          2    1    1    2  501    0 -0.29359827742E+02  0.46246548095E+02 -0.25184479607E+03  0.25773347474E+03  0.00000000000E+00 0. -1.
<scales pt_clust_3="46.37420" pt_clust_4="46.07362" pt_clust_5="142.37881" pt_clust_6="46.07362"></scales>
<clustering>
<clus scale="   46.374">  2  3  1 -1</clus>
<clus scale="   46.074">  4  6 -1 -1</clus>
<clus scale="  142.379">  1  5  2 -1</clus>
<clus scale="  142.379">  1  3  2 -1</clus>
</clustering>
</event>
<event>
 6    0  0.1622933E+002  0.1528057E+03  0.7546771E-02  0.1197067E+00
         21   -1    0    0  505  502  0.00000000000E+00  0.00000000000E+00  0.11970795936E+04  0.11970795936E+04  0.00000000000E+00 0. -1.
          2   -1    0    0  502    0 -0.00000000000E+00 -0.00000000000E+00 -0.34740073474E+03  0.34740073474E+03  0.00000000000E+00 0. -1.
         21    1    1    2  503  501  0.62373849544E+02 -0.65076992572E+02 -0.13499117135E+03  0.16232106583E+03  0.00000000000E+00 0. -1.
         21    1    1    2  504  503 -0.90366493356E+02  0.10762693564E+03  0.75237476759E+02  0.15940620536E+03  0.00000000000E+00 0. -1.
         21    1    1    2  505  504 -0.31449241584E+02 -0.45771436641E+02  0.10596842442E+04  0.10611384343E+04  0.00000000000E+00 0. -1.
          2    1    1    2  501    0  0.59441885396E+02  0.32214935705E+01 -0.15025169076E+03  0.16161462291E+03  0.00000000000E+00 0. -1.
<scales pt_clust_3="55.85650" pt_clust_4="135.80839" pt_clust_5="55.53449" pt_clust_6="55.85650"></scales>
<clustering>
<clus scale="   55.534">  1  5  2 -1</clus>
<clus scale="   55.856">  3  6 -1 -1</clus>
<clus scale="  135.808">  1  4  2 -1</clus>
<clus scale="   55.534">  1  3  2 -1</clus>
</clustering>
</event>
<event>
 6    0  0.1622933E+002  0.1133499E+03  0.7546771E-02  0.1254489E+00
          1   -1    0    0  502    0 -0.00000000000E+00  0.00000000000E+00  0.28581124129E+04  0.28581124129E+04  0.00000000000E+00 0. -1.
         21   -1    0    0  503  502  0.00000000000E+00 -0.00000000000E+00 -0.12192957278E+02  0.12192957278E+02  0.00000000000E+00 0. -1.
         21    1    1    2  503  504 -0.32759612607E+02  0.14975009727E+02  0.16463917826E+03  0.16853338587E+03  0.00000000000E+00 0. -1.
         21    1    1    2  504  505 -0.44049075597E+02 -0.10734456993E+03  0.41084380779E+03  0.42691429134E+03  0.00000000000E+00 0. -1.
         21    1    1    2  505  501  0.46756006096E+02  0.92143723095E+02  0.13575360438E+04  0.13614627061E+04  0.00000000000E+00 0. -1.
          1    1    1    2  501    0  0.30052682108E+02  0.22583710691E+00  0.91290042579E+03  0.91339498691E+03  0.00000000000E+00 0. -1.
<scales pt_clust_3="33.70461" pt_clust_4="14000.00000" pt_clust_5="113.34987" pt_clust_6="30.05353"></scales>
<clustering>
<clus scale="   30.054">  1  6  2 -1</clus>
<clus scale="   33.705">  2  3  1 -1</clus>
<clus scale="  113.350">  1  5  2 -1</clus>
<clus scale="   33.705">  2  3  1 -1</clus>
</clustering>
</event>
<event>
 6    0  0.1622933E+002  0.8752034E+02  0.7546771E-02  0.1308970E+00
         -1   -1    0    0    0  501 -0.00000000000E+00  0.00000000000E+00  0.62395524139E+03  0.62395524139E+03  0.00000000000E+00 0. -1.
         21   -1    0    0  503  502  0.00000000000E+00 -0.00000000000E+00 -0.75343628097E+02  0.75343628097E+02  0.00000000000E+00 0. -1.
         21    1    1    2  503  504 -0.47323111665E+02  0.83601782130E+02  0.27246708383E+03  0.28890664002E+03  0.00000000000E+00 0. -1.
         21    1    1    2  504  501  0.32953038353E+02 -0.20205121692E+02  0.15062339702E+03  0.15550420383E+03  0.00000000000E+00 0. -1.
         21    1    1    2  505  502 -0.56612106231E+01 -0.87948729957E+02 -0.32340784473E+02  0.93877338837E+02  0.00000000000E+00 0. -1.
         -1    1    1    2    0  505  0.20031283935E+02  0.24552069518E+02  0.15786191691E+03  0.16101068681E+03  0.00000000000E+00 0. -1.
<scales pt_clust_3="87.52034" pt_clust_4="41.36733" pt_clust_5="14000.00000" pt_clust_6="31.68685"></scales>
<clustering>
<clus scale="   31.687">  1  6  2 -1</clus>
<clus scale="   41.367">  1  4  2 -1</clus>
<clus scale="   87.520">  1  3  2 -1</clus>
<clus scale="   87.520">  2  3  1 -1</clus>
</clustering>
</event>
<event>
 6    0  0.1622933E+002  0.1156808E+03  0.7546771E-02  0.1250397E+00
         21   -1    0    0  505  502  0.00000000000E+00  0.00000000000E+00  0.38931930053E+02  0.38931930053E+02  0.00000000000E+00 0. -1.
          2   -1    0    0  504    0 -0.00000000000E+00 -0.00000000000E+00 -0.21868670636E+04  0.21868670636E+04  0.00000000000E+00 0.  1.
         21    1    1    2  503  501 -0.45906293500E+02  0.28065005133E+02 -0.19109230916E+03  0.19852280201E+03  0.00000000000E+00 0. -1.
         21    1    1    2  504  502  0.11594774768E+03 -0.12529422705E+02 -0.35489477621E+03  0.37356548129E+03  0.00000000000E+00 0. -1.
         21    1    1    2  505  503  0.45289859499E+02 -0.21793801827E+02 -0.27381329333E+01  0.50335261433E+02  0.00000000000E+00 0. -1.
          2    1    1    2  501    0 -0.11533131368E+03  0.62582193995E+01 -0.15992099153E+04  0.16033754489E+04  0.00000000000E+00 0.  1.
<scales pt_clust_3="41.54675" pt_clust_4="14000.00000" pt_clust_5="50.26073" pt_clust_6="115.68082"></scales>
<clustering>
<clus scale="   50.261">  1  5  2 -1</clus>
<clus scale="   41.547">  1  3  2 -1</clus>
<clus scale="  115.681">  2  6  1 -1</clus>
<clus scale="   50.261">  1  3  2 -1</clus>
</clustering>
</event>
<event>
 6    0  0.1622933E+002  0.2879135E+03  0.7546771E-02  0.1091444E+00
          2   -1    0    0  504    0 -0.00000000000E+00  0.00000000000E+00  0.12393140601E+04  0.12393140601E+04  0.00000000000E+00 0.  1.
         21   -1    0    0  505  502  0.00000000000E+00 -0.00000000000E+00 -0.28428792325E+03  0.28428792325E+03  0.00000000000E+00 0.  1.
         21    1    1    2  503  501 -0.80604473655E+02 -0.74718925068E+02  0.16444033913E+03  0.19778934266E+03  0.00000000000E+00 0.  1.
         21    1    1    2  504  502  0.25760755314E+03  0.36442845445E+02  0.64617268853E+03  0.69658371775E+03  0.00000000000E+00 0.  1.
         21    1    1    2  505  503  0.21872945592E+02  0.63298552060E+02 -0.21089917520E+03  0.22127718938E+03  0.00000000000E+00 0.  1.
          2    1    1    2  501    0 -0.19887602508E+03 -0.25022472437E+02  0.35531228441E+03  0.40795173358E+03  0.00000000000E+00 0.  1.
<scales pt_clust_3="66.23065" pt_clust_4="272.34611" pt_clust_5="66.97113" pt_clust_6="66.23065"></scales>
<clustering>
<clus scale="   66.971">  2  5  1 -1</clus>
<clus scale="   66.231">  3  6 -1 -1</clus>
<clus scale="  272.346">  1  4  2 -1</clus>
<clus scale="   66.971">  2  3  1 -1</clus>
</clustering>
</event>
<event>
 6    0  0.1622933E+002  0.1029215E+03  0.7546771E-02  0.1274270E+00
         -1   -1    0    0    0  501 -0.00000000000E+00  0.00000000000E+00  0.25964438839E+03  0.25964438839E+03  0.00000000000E+00 0. -1.
         21   -1    0    0  505  502  0.00000000000E+00 -0.00000000000E+00 -0.75526295173E+02  0.75526295173E+02  0.00000000000E+00 0. -1.
         21    1    1    2  503  504 -0.43303663703E+02  0.10074584863E+03  0.77796530514E+02  0.13445160269E+03  0.00000000000E+00 0. -1.
         21    1    1    2  504  501  0.33881340120E+02 -0.90446592094E+02  0.59859818050E+02  0.11362978943E+03  0.00000000000E+00 0.  1.
         21    1    1    2  505  503 -0.31558631148E+02 -0.82913480856E+01  0.20404514812E+02  0.38484254933E+02  0.00000000000E+00 0. -1.
         -1    1    1    2    0  502  0.40980954732E+02 -0.20079084468E+01  0.26057229842E+02  0.48605036509E+02  0.00000000000E+00 0. -1.
<scales pt_clust_3="14000.00000" pt_clust_4="102.92146" pt_clust_5="32.62964" pt_clust_6="35.79283"></scales>
<clustering>
<clus scale="   32.630">  2  5  1 -1</clus>
<clus scale="   35.793">  2  6  1 -1</clus>
<clus scale="  102.921">  1  4  2 -1</clus>
<clus scale="   32.630">  2  3  1 -1</clus>
</clustering>
</event>
<event>
 6    0  0.1622933E+002  0.8272077E+02  0.7546771E-02  0.1321503E+00
         21   -1    0    0  503  502  0.00000000000E+00  0.00000000000E+00  0.11979324260E+04  0.11979324260E+04  0.00000000000E+00 0. -1.
          4   -1    0    0  505    0 -0.00000000000E+00 -0.00000000000E+00 -0.23891519155E+02  0.23891519155E+02  0.00000000000E+00 0. -1.
         21    1    1    2  503  504  0.47501664911E+02  0.13742445663E+02  0.53388135818E+03  0.53616654837E+03  0.00000000000E+00 0. -1.
         21    1    1    2  504  501  0.80095550478E+02 -0.53895722258E+02  0.29058862228E+03  0.30620547592E+03  0.00000000000E+00 0. -1.
         21    1    1    2  505  502 -0.71436383933E+02  0.40485481444E+02  0.26889549965E+03  0.28115302041E+03  0.00000000000E+00 0. -1.
          4    1    1    2  501    0 -0.56160831456E+02 -0.33220484856E+00  0.80675426724E+02  0.98298900436E+02  0.00000000000E+00 0. -1.
<scales pt_clust_3="49.44960" pt_clust_4="82.72077" pt_clust_5="14000.00000" pt_clust_6="49.77180"></scales>
<clustering>
<clus scale="   49.450">  1  3  2 -1</clus>
<clus scale="   49.772">  2  6  1 -1</clus>
<clus scale="   82.721">  2  4  1 -1</clus>
<clus scale="   49.450">  1  3  2 -1</clus>
</clustering>
</event>
<event>
 6    0  0.1622933E+002  0.1075412E+03  0.7546771E-02  0.1265192E+00
         21   -1    0    0  504  502  0.00000000000E+00  0.00000000000E+00  0.16743651916E+03  0.16743651916E+03  0.00000000000E+00 0. -1.
          2   -1    0    0  503    0 -0.00000000000E+00 -0.00000000000E+00 -0.84239807298E+03  0.84239807298E+03  0.00000000000E+00 0. -1.
         21    1    1    2  503  502  0.12878137385E+03  0.53831911502E+01 -0.25110410609E+03  0.28225324284E+03  0.00000000000E+00 0. -1.
         21    1    1    2  504  505 -0.37718243352E+02  0.39016866099E+02  0.11945438039E+03  0.13120339445E+03  0.00000000000E+00 0. -1.
         21    1    1    2  505  501 -0.80332622702E+02 -0.38656543033E+01 -0.37338865651E+02  0.88670538746E+02  0.00000000000E+00 0. -1.
          2    1    1    2  501    0 -0.10730507800E+02 -0.40534402946E+02 -0.50597296247E+03  0.50770741611E+03  0.00000000000E+00 0. -1.
<scales pt_clust_3="107.54119" pt_clust_4="53.89172" pt_clust_5="14000.00000" pt_clust_6="41.93068"></scales>
<clustering>
<clus scale="   41.931">  2  6  1 -1</clus>
<clus scale="   53.892">  1  4  2 -1</clus>
<clus scale="  107.541">  2  3  1 -1</clus>
<clus scale="   53.892">  1  3  2 -1</clus>
</clustering>
</event>
<event>
 6    0  0.1622933E+002  0.4284103E+03  0.7546771E-02  0.1034363E+00
         21   -1    0    0  504  502  0.00000000000E+00  0.00000000000E+00  0.21610131656E+03  0.21610131656E+03  0.00000000000E+00 0. -1.
          2   -1    0    0  503    0 -0.00000000000E+00 -0.00000000000E+00 -0.13165714777E+04  0.13165714777E+04  0.00000000000E+00 0. -1.
         21    1    1    2  503  505  0.35720749833E+02  0.20187068443E+02 -0.64605198215E+02  0.76533138818E+02  0.00000000000E+00 0. -1.
         21    1    1    2  504  501 -0.45436395466E+02  0.44728109700E+02  0.84854569723E+01  0.64320080926E+02  0.00000000000E+00 0.  1.
         21    1    1    2  505  502  0.26819379249E+03  0.25870720221E+03 -0.14167292499E+03  0.39865843084E+03  0.00000000000E+00 0. -1.
          2    1    1    2  501    0 -0.25847814686E+03 -0.32362238035E+03 -0.90267749487E+03  0.99316114363E+03  0.00000000000E+00 0. -1.
<scales pt_clust_3="37.99415" pt_clust_4="63.75790" pt_clust_5="37.99415" pt_clust_6="412.82572"></scales>
<clustering>
<clus scale="   37.994">  3  5 -1 -1</clus>
<clus scale="   63.758">  1  4  2 -1</clus>
<clus scale="  412.826">  2  6  1 -1</clus>
<clus scale="   63.758">  1  3  2 -1</clus>
</clustering>
</event>
<event>
 6    0  0.1622933E+002  0.1231667E+03  0.7546771E-02  0.1237962E+00
         -4   -1    0    0    0  501 -0.00000000000E+00  0.00000000000E+00  0.81571356985E+03  0.81571356985E+03  0.00000000000E+00 0.  1.
         21   -1    0    0  503  502  0.00000000000E+00 -0.00000000000E+00 -0.35730275077E+03  0.35730275077E+03  0.00000000000E+00 0. -1.
         21    1    1    2  503  505 -0.30721065997E+02 -0.57693348713E+02  0.13043044883E+02  0.66651537128E+02  0.00000000000E+00 0. -1.
         21    1    1    2  504  502  0.66429389446E+02 -0.65361902143E+02 -0.31529978434E+03  0.32878411768E+03  0.00000000000E+00 0. -1.
         21    1    1    2  505  501 -0.52824945088E+02  0.29979626153E+02  0.20129686825E+03  0.21026098538E+03  0.00000000000E+00 0.  1.
         -4    1    1    2    0  504  0.17116621639E+02  0.93075624702E+02  0.55937069029E+03  0.56731968043E+03  0.00000000000E+00 0.  1.
<scales pt_clust_3="65.37660" pt_clust_4="14000.00000" pt_clust_5="60.73922" pt_clust_6="123.16674"></scales>
<clustering>
<clus scale="   60.739">  1  5  2 -1</clus>
<clus scale="   65.377">  2  3  1 -1</clus>
<clus scale="  123.167">  1  6  2 -1</clus>
<clus scale="   65.377">  2  3  1 -1</clus>
</clustering>
</event>
<event>
 6    0  0.1622933E+002  0.1060978E+03  0.7546771E-02  0.1267972E+00
         -2   -1    0    0    0  501 -0.00000000000E+00  0.00000000000E+00  0.27401647850E+03  0.27401647850E+03  0.00000000000E+00 0.  1.
         21   -1    0    0  504  502  0.00000000000E+00 -0.00000000000E+00 -0.31268705174E+03  0.31268705174E+03  0.00000000000E+00 0. -1.
         21    1    1    2  503  501  0.24261664648E+02 -0.19853971698E+02  0.58242452127E+02  0.66143720741E+02  0.00000000000E+00 0.  1.
         21    1    1    2  504  505 -0.24454873263E+02  0.56693540995E+02 -0.23565248467E+03  0.24360683887E+03  0.00000000000E+00 0. -1.
         21    1    1    2  505  503 -0.83190848929E+02 -0.80165079566E+02  0.14183666319E+03  0.18293385786E+03  0.00000000000E+00 0.  1.
         -2    1    1    2    0  502  0.83384057545E+02  0.43325510269E+02 -0.30972038829E+01  0.94019112762E+02  0.00000000000E+00 0.  1.
<scales pt_clust_3="31.34978" pt_clust_4="61.22089" pt_clust_5="106.09777" pt_clust_6="14000.00000"></scales>
<clustering>
<clus scale="   31.350">  1  3  2 -1</clus>
<clus scale="   61.221">  2  4  1 -1</clus>
<clus scale="  106.098">  1  5  2 -1</clus>
<clus scale="   61.221">  2  3  1 -1</clus>
</clustering>
</event>
<event>
 6    0  0.1622933E+002  0.6041018E+02  0.7546771E-02  0.1396118E+00
         21   -1    0    0  503  502  0.00000000000E+00  0.00000000000E+00  0.27244700597E+03  0.27244700597E+03  0.00000000000E+00 0. -1.
          2   -1    0    0  505    0 -0.00000000000E+00 -0.00000000000E+00 -0.23532043831E+03  0.23532043831E+03  0.00000000000E+00 0. -1.
         21    1    1    2  503  504  0.45476148441E+02 -0.28819493322E+02  0.20814480872E+03  0.21499512708E+03  0.00000000000E+00 0. -1.
         21    1    1    2  504  501 -0.59828321503E+02  0.11380881973E+02 -0.17281662968E+02  0.63305674338E+02  0.00000000000E+00 0.  1.
         21    1    1    2  505  502  0.48337445833E+02  0.63211482730E+02 -0.17069322254E+02  0.81385268819E+02  0.00000000000E+00 0.  1.
          2    1    1    2  501    0 -0.33985272770E+02 -0.45772871380E+02 -0.13666725583E+03  0.14808137404E+03  0.00000000000E+00 0. -1.
<scales pt_clust_3="53.83905" pt_clust_4="42.64075" pt_clust_5="60.41018" pt_clust_6="14000.00000"></scales>
<clustering>
<clus scale="   53.839">  1  3  2 -1</clus>
<clus scale="   42.641">  1  4  2 -1</clus>
<clus scale="   60.410">  1  5  2 -1</clus>
<clus scale="   53.839">  1  3  2 -1</clus>
</clustering>
</event>
<event>
 6    0  0.1622933E+002  0.1080566E+03  0.7546771E-02  0.1264212E+00
         21   -1    0    0  505  502  0.00000000000E+00  0.00000000000E+00  0.73475495353E+03  0.73475495353E+03  0.00000000000E+00 0. -1.
          2   -1    0    0  503    0 -0.00000000000E+00 -0.00000000000E+00 -0.20817169963E+03  0.20817169963E+03  0.00000000000E+00 0.  1.
         21    1    1    2  503  502 -0.97379425991E+02  0.19956426851E+02  0.67203488643E+03  0.67934667156E+03  0.00000000000E+00 0. -1.
         21    1    1    2  504  501  0.58274454331E+02  0.96856117104E+01 -0.65158099159E+01  0.59432136767E+02  0.00000000000E+00 0. -1.
         21    1    1    2  505  504  0.22318545648E+02  0.40771251808E+02  0.11178142718E+01  0.46493676587E+02  0.00000000000E+00 0. -1.
          2    1    1    2  501    0  0.16786426011E+02 -0.70413290369E+02 -0.14005363689E+03  0.15765416824E+03  0.00000000000E+00 0.  1.
<scales pt_clust_3="97.60230" pt_clust_4="41.12983" pt_clust_5="41.12983" pt_clust_6="72.38657"></scales>
<clustering>
<clus scale="   41.130">  4  5 -1 -1</clus>
<clus scale="   72.387">  2  6  1 -1</clus>
<clus scale="   97.602">  1  3  2 -1</clus>
<clus scale="   97.602">  1  3  2 -1</clus>
</clustering>
</event>
<event>
 6    0  0.1622933E+002  0.9292963E+02  0.7546771E-02  0.1295908E+00
          2   -1    0    0  503    0 -0.00000000000E+00  0.00000000000E+00  0.53169707047E+03  0.53169707047E+03  0.00000000000E+00 0. -1.
         21   -1    0    0  504  502  0.00000000000E+00 -0.00000000000E+00 -0.85768089101E+03  0.85768089101E+03  0.00000000000E+00 0. -1.
         21    1    1    2  503  502  0.11265713767E+03 -0.88491723195E+02  0.20427034920E+03  0.24949707674E+03  0.00000000000E+00 0. -1.
         21    1    1    2  504  505 -0.82667933867E+02  0.41249710391E+02 -0.82097007318E+03  0.82615215726E+03  0.00000000000E+00 0. -1.
         21    1    1    2  505  501 -0.48494044844E+02  0.14930585151E+02  0.53985936058E+02  0.74088299011E+02  0.00000000000E+00 0. -1.
          2    1    1    2  501    0  0.18504841042E+02  0.32311427653E+02  0.23672996738E+03  0.23964042846E+03  0.00000000000E+00 0. -1.
<scales pt_clust_3="14000.00000" pt_clust_4="92.92963" pt_clust_5="49.59364" pt_clust_6="37.23516"></scales>
<clustering>
<clus scale="   37.235">  1  6  2 -1</clus>
<clus scale="   49.594">  1  5  2 -1</clus>
<clus scale="   92.930">  2  4  1 -1</clus>
<clus scale="   92.930">  2  3  1 -1</clus>
</clustering>
</event>
<event>
 6    0  0.1622933E+002  0.1715619E+03  0.7546771E-02  0.1176229E+00
         21   -1    0    0  504  502  0.00000000000E+00  0.00000000000E+00  0.12347761661E+03  0.12347761661E+03  0.00000000000E+00 0.  1.
          2   -1    0    0  505    0 -0.00000000000E+00 -0.00000000000E+00 -0.12205842677E+04  0.12205842677E+04  0.00000000000E+00 0.  1.
         21    1    1    2  503  502  0.26417085222E+02 -0.36724377579E+02  0.74169972325E+02  0.86877655901E+02  0.00000000000E+00 0.  1.
         21    1    1    2  504  501  0.11707109261E+03 -0.80594293888E+02 -0.22503700864E+03  0.26616298802E+03  0.00000000000E+00 0.  1.
         21    1    1    2  505  503  0.55085474875E+02  0.52176025852E+02 -0.37872243786E+03  0.38624788952E+03  0.00000000000E+00 0.  1.
          2    1    1    2  501    0 -0.19857365271E+03  0.65142645615E+02 -0.56751717687E+03  0.60477335083E+03  0.00000000000E+00 0.  1.
<scales pt_clust_3="45.23873" pt_clust_4="171.56189" pt_clust_5="75.44333" pt_clust_6="14000.00000"></scales>
<clustering>
<clus scale="   45.239">  1  3  2 -1</clus>
<clus scale="   75.443">  2  5  1 -1</clus>
<clus scale="  171.562">  1  4  2 -1</clus>
<clus scale="   45.239">  1  3  2 -1</clus>
</clustering>
</event>
<event>
 6    0  0.1622933E+002  0.9183882E+02  0.7546771E-02  0.1298459E+00
          2   -1    0    0  503    0 -0.00000000000E+00  0.00000000000E+00  0.59586943957E+03  0.59586943957E+03  0.00000000000E+00 0.  1.
         21   -1    0    0  504  502  0.00000000000E+00 -0.00000000000E+00 -0.41358932953E+03  0.41358932953E+03  0.00000000000E+00 0. -1.
         21    1    1    2  503  502 -0.37134992275E+02 -0.61246442525E+02  0.50483675687E+02  0.87628396563E+02  0.00000000000E+00 0.  1.
         21    1    1    2  504  505  0.22774124385E+02  0.23436155759E+02 -0.32834470421E+03  0.32996690580E+03  0.00000000000E+00 0. -1.
         21    1    1    2  505  501 -0.69107259777E+02  0.75623703889E+02 -0.18869169602E+02  0.10416719016E+03  0.00000000000E+00 0. -1.
          2    1    1    2  501    0  0.83468127668E+02 -0.37813417122E+02  0.47901030818E+03  0.48769627658E+03  0.00000000000E+00 0.  1.
<scales pt_clust_3="64.63965" pt_clust_4="32.67896" pt_clust_5="14000.00000" pt_clust_6="91.83882"></scales>
<clustering>
<clus scale="   32.679">  2  4  1 -1</clus>
<clus scale="   64.640">  2  3  1 -1</clus>
<clus scale="   91.839">  1  6  2 -1</clus>
<clus scale="   32.679">  2  3  1 -1</clus>
</clustering>
</event>
<event>
 6    0  0.1622933E+002  0.6119417E+02  0.7546771E-02  0.1392888E+00
         21   -1    0    0  504  502  0.00000000000E+00  0.00000000000E+00  0.70325448793E+02  0.70325448793E+02  0.00000000000E+00 0. -1.
          2   -1    0    0  505    0 -0.00000000000E+00 -0.00000000000E+00 -0.15421876022E+04  0.15421876022E+04  0.00000000000E+00 0. -1.
         21    1    1    2  503  502  0.67374594147E+02 -0.64261090568E+02  0.24333076520E+02  0.96233685944E+02  0.00000000000E+00 0. -1.
         21    1    1    2  504  501 -0.20677109927E+02  0.41428772058E+02 -0.93788188607E+02  0.10459498244E+03  0.00000000000E+00 0.  1.
         21    1    1    2  505  503  0.24480426175E+02 -0.40214317387E+02 -0.83820229828E+03  0.83952342161E+03  0.00000000000E+00 0. -1.
          2    1    1    2  501    0 -0.71177910396E+02  0.63046635897E+02 -0.56420474309E+03  0.57216096105E+03  0.00000000000E+00 0. -1.
<scales pt_clust_3="14000.00000" pt_clust_4="46.30212" pt_clust_5="46.61010" pt_clust_6="61.19417"></scales>
<clustering>
<clus scale="   46.302">  1  4  2 -1</clus>
<clus scale="   46.610">  2  5  1 -1</clus>
<clus scale="   61.194">  2  6  1 -1</clus>
<clus scale="   46.302">  1  3  2 -1</clus>
</clustering>
</event>
<event>
 6    0  0.1622933E+002  0.5966505E+02  0.7546771E-02  0.1399243E+00
          2   -1    0    0  504    0 -0.00000000000E+00  0.00000000000E+00  0.52306481949E+02  0.52306481949E+02  0.00000000000E+00 0.  1.
         21   -1    0    0  505  502  0.00000000000E+00 -0.00000000000E+00 -0.21623024827E+04  0.21623024827E+04  0.00000000000E+00 0.  1.
         21    1    1    2  503  501  0.59419411890E+02  0.75599088173E+02 -0.17688351552E+03  0.20132974620E+03  0.00000000000E+00 0.  1.
         21    1    1    2  504  502 -0.35105373882E+02  0.20459362792E+02 -0.15017637965E+01  0.40659907719E+02  0.00000000000E+00 0.  1.
         21    1    1    2  505  503 -0.41038467615E+02 -0.41489237047E+02 -0.19110703667E+04  0.19119611553E+04  0.00000000000E+00 0.  1.
          2    1    1    2  501    0  0.16724429607E+02 -0.54569213918E+02 -0.20540354694E+02  0.60658155464E+02  0.00000000000E+00 0.  1.
<scales pt_clust_3="14000.00000" pt_clust_4="40.63216" pt_clust_5="59.66505" pt_clust_6="42.30179"></scales>
<clustering>
<clus scale="   40.632">  1  4  2 -1</clus>
<clus scale="   42.302">  1  6  2 -1</clus>
<clus scale="   59.665">  2  5  1 -1</clus>
<clus scale="   59.665">  2  3  1 -1</clus>
</clustering>
</event>
<event>
 6    0  0.1622933E+002  0.2630682E+03  0.7546771E-02  0.1105314E+00
         21   -1    0    0  503  502  0.00000000000E+00  0.00000000000E+00  0.27051381135E+03  0.27051381135E+03  0.00000000000E+00 0. -1.
          1   -1    0    0  505    0 -0.00000000000E+00 -0.00000000000E+00 -0.42684887116E+03  0.42684887116E+03  0.00000000000E+00 0. -1.
         21    1    1    2  503  501  0.93444119981E+01 -0.49054946613E+02  0.41377205827E+02  0.64851977494E+02  0.00000000000E+00 0.  1.
         21    1    1    2  504  502 -0.20610075022E+02  0.23018248796E+02  0.37630489158E+02  0.48689513083E+02  0.00000000000E+00 0. -1.
         21    1    1    2  505  504 -0.18779563674E+03  0.19245747545E+03 -0.76390683352E+02  0.27954001062E+03  0.00000000000E+00 0. -1.
          1    1    1    2  501    0  0.19906129976E+03 -0.16642077763E+03 -0.15895207144E+03  0.30428118132E+03  0.00000000000E+00 0. -1.
<scales pt_clust_3="43.91163" pt_clust_4="30.89684" pt_clust_5="263.06821" pt_clust_6="14000.00000"></scales>
<clustering>
<clus scale="   30.897">  1  4  2 -1</clus>
<clus scale="   43.912">  1  3  2 -1</clus>
<clus scale="  263.068">  1  5  2 -1</clus>
<clus scale="   30.897">  1  3  2 -1</clus>
</clustering>
</event>
<event>
 6    0  0.1622933E+002  0.1071678E+03  0.7546771E-02  0.1265906E+00
          2   -1    0    0  503    0 -0.00000000000E+00  0.00000000000E+00  0.11302781680E+04  0.11302781680E+04  0.00000000000E+00 0.  1.
         21   -1    0    0  501  502  0.00000000000E+00 -0.00000000000E+00 -0.84938842102E+02  0.84938842102E+02  0.00000000000E+00 0. -1.
         21    1    1    2  503  504 -0.14888711999E+02 -0.45019060418E+02  0.30160488514E+03  0.30530950900E+03  0.00000000000E+00 0. -1.
         21    1    1    2  504  505  0.75264280985E+02 -0.87149434712E+02  0.16516413717E+03  0.20134281256E+03  0.00000000000E+00 0. -1.
         21    1    1    2  505  502  0.83590766857E+01  0.31554216268E+02 -0.54688241175E+02  0.63689453210E+02  0.00000000000E+00 0. -1.
          2    1    1    2  501    0 -0.68734645671E+02  0.10061427886E+03  0.63325854475E+03  0.64487523531E+03  0.00000000000E+00 0.  1.
<scales pt_clust_3="45.07356" pt_clust_4="107.16778" pt_clust_5="32.64265" pt_clust_6="14000.00000"></scales>
<clustering>
<clus scale="   32.643">  2  5  1 -1</clus>
<clus scale="   45.074">  1  3  2 -1</clus>
<clus scale="  107.168">  2  4  1 -1</clus>
<clus scale="   32.643">  2  3  1 -1</clus>
</clustering>
</event>
<event>
 6    0  0.1622933E+002  0.9023248E+02  0.7546771E-02  0.1302290E+00
         21   -1    0    0  501  502  0.00000000000E+00  0.00000000000E+00  0.90393513259E+02  0.90393513259E+02  0.00000000000E+00 0. -1.
          1   -1    0    0  504    0 -0.00000000000E+00 -0.00000000000E+00 -0.20981843872E+04  0.20981843872E+04  0.00000000000E+00 0.  1.
         21    1    1    2  503  505 -0.94824895681E+01 -0.74197164367E+02 -0.19669563748E+03  0.21043837724E+03  0.00000000000E+00 0.  1.
         21    1    1    2  504  503  0.31928157138E+02  0.31028136422E+02 -0.20818106458E+03  0.21288848752E+03  0.00000000000E+00 0. -1.
         21    1    1    2  505  502  0.43310495660E+02 -0.78315687090E+02  0.52717387931E+02  0.10386659169E+03  0.00000000000E+00 0. -1.
          1    1    1    2  501    0 -0.65756163229E+02  0.12148471503E+03 -0.16556315598E+04  0.16613844440E+04  0.00000000000E+00 0.  1.
<scales pt_clust_3="71.10797" pt_clust_4="44.52137" pt_clust_5="90.23248" pt_clust_6="14000.00000"></scales>
<clustering>
<clus scale="   44.521">  2  4  1 -1</clus>
<clus scale="   71.108">  2  3  1 -1</clus>
<clus scale="   90.232">  1  5  2 -1</clus>
<clus scale="   90.232">  1  3  2 -1</clus>
</clustering>
</event>
<event>
 6    0  0.1622933E+002  0.1216011E+03  0.7546771E-02  0.1240479E+00
         21   -1    0    0  505  502  0.00000000000E+00  0.00000000000E+00  0.12641844982E+03  0.12641844982E+03  0.00000000000E+00 0. -1.
          1   -1    0    0  504    0 -0.00000000000E+00 -0.00000000000E+00 -0.39259686250E+03  0.39259686250E+03  0.00000000000E+00 0. -1.
         21    1    1    2  503  502  0.30489859762E+02 -0.92970953243E+02  0.58873508713E+02  0.11418984072E+03  0.00000000000E+00 0. -1.
         21    1    1    2  504  503 -0.38057048859E+02 -0.61765292684E+02 -0.86084086270E+02  0.11257779647E+03  0.00000000000E+00 0. -1.
         21    1    1    2  505  501  0.50230237324E+01  0.63676583612E+02 -0.45551943002E+02  0.78453282782E+02  0.00000000000E+00 0. -1.
          1    1    1    2  501    0  0.25441653650E+01  0.91059662316E+02 -0.19341589212E+03  0.21379439235E+03  0.00000000000E+00 0. -1.
<scales pt_clust_3="102.39294" pt_clust_4="72.54854" pt_clust_5="54.92582" pt_clust_6="54.92582"></scales>
<clustering>
<clus scale="   54.926">  5  6 -1 -1</clus>
<clus scale="   72.549">  2  4  1 -1</clus>
<clus scale="  102.393">  1  3  2 -1</clus>
<clus scale="  102.393">  1  3  2 -1</clus>
</clustering>
</event>
<event>
 6    0  0.1622933E+002  0.2093556E+03  0.7546771E-02  0.1142077E+00
         21   -1    0    0  503  502  0.00000000000E+00  0.00000000000E+00  0.13930197913E+03  0.13930197913E+03  0.00000000000E+00 0. -1.
          2   -1    0    0  505    0 -0.00000000000E+00 -0.00000000000E+00 -0.30549004632E+04  0.30549004632E+04  0.00000000000E+00 0. -1.
         21    1    1    2  503  504  0.63467749027E+02 -0.19156053049E+03  0.54531132115E+02  0.20903883940E+03  0.00000000000E+00 0. -1.
         21    1    1    2  504  501 -0.55130558025E+02  0.52054404341E+02 -0.97763165458E+03  0.98056753539E+03  0.00000000000E+00 0. -1.
         21    1    1    2  505  502  0.56708625675E+02 -0.75276141271E+01 -0.41459745314E+03  0.41852548471E+03  0.00000000000E+00 0. -1.
          2    1    1    2  501    0 -0.65045816677E+02  0.14703374028E+03 -0.15779005085E+04  0.15860705828E+04  0.00000000000E+00 0. -1.
<scales pt_clust_3="202.53795" pt_clust_4="36.39099" pt_clust_5="57.20606" pt_clust_6="36.39099"></scales>
<clustering>
<clus scale="   36.391">  4  6 -1 -1</clus>
<clus scale="   57.206">  2  5  1 -1</clus>
<clus scale="  202.538">  1  3  2 -1</clus>
<clus scale="  202.538">  1  3  2 -1</clus>
</clustering>
</event>
<event>
 6    0  0.1622933E+002  0.1389320E+03  0.7546771E-02  0.1214773E+00
         21   -1    0    0  504  502  0.00000000000E+00  0.00000000000E+00  0.33980815590E+03  0.33980815590E+03  0.00000000000E+00 0.  1.
          2   -1    0    0  505    0 -0.00000000000E+00 -0.00000000000E+00 -0.49008438740E+03  0.49008438740E+03  0.00000000000E+00 0.  1.
         21    1    1    2  503  502  0.25924196679E+02  0.15844556668E+02  0.30075975136E+03  0.30229049272E+03  0.00000000000E+00 0.  1.
         21    1    1    2  504  501 -0.12493977285E+02  0.47420321152E+02 -0.56076441019E+02  0.74493983407E+02  0.00000000000E+00 0. -1.
         21    1    1    2  505  503 -0.61390280470E+02 -0.12254195319E+03 -0.31001566807E+03  0.33896166639E+03  0.00000000000E+00 0.  1.
          2    1    1    2  501    0  0.47960061077E+02  0.59277075370E+02 -0.84943873765E+02  0.11414640079E+03  0.00000000000E+00 0.  1.
<scales pt_clust_3="30.38279" pt_clust_4="42.51912" pt_clust_5="127.45911" pt_clust_6="42.51912"></scales>
<clustering>
<clus scale="   30.383">  1  3  2 -1</clus>
<clus scale="   42.519">  4  6 -1 -1</clus>
<clus scale="  127.459">  2  5  1 -1</clus>
<clus scale="   30.383">  1  3  2 -1</clus>
</clustering>
</event>
<event>
 6    0  0.1622933E+002  0.7589924E+02  0.7546771E-02  0.1341109E+00
         -2   -1    0    0    0  501 -0.00000000000E+00  0.00000000000E+00  0.61309866218E+02  0.61309866218E+02  0.00000000000E+00 0. -1.
         21   -1    0    0  505  502  0.00000000000E+00 -0.00000000000E+00 -0.22944458672E+04  0.22944458672E+04  0.00000000000E+00 0.  1.
         21    1    1    2  503  501  0.25272282901E+02 -0.20674933646E+02 -0.33435896090E+02  0.46734359005E+02  0.00000000000E+00 0.  1.
         21    1    1    2  504  502 -0.12640512901E+03  0.37326416217E+02 -0.26598506601E+03  0.29684941187E+03  0.00000000000E+00 0.  1.
         21    1    1    2  505  503  0.54706163711E+02 -0.29031538625E+02 -0.19575545927E+04  0.19585340380E+04  0.00000000000E+00 0.  1.
         -2    1    1    2    0  504  0.46426682402E+02  0.12380056054E+02  0.23839553797E+02  0.53637924568E+02  0.00000000000E+00 0. -1.
<scales pt_clust_3="32.65182" pt_clust_4="75.89924" pt_clust_5="62.21904" pt_clust_6="14000.00000"></scales>
<clustering>
<clus scale="   32.652">  1  3  2 -1</clus>
<clus scale="   62.219">  2  5  1 -1</clus>
<clus scale="   75.899">  2  4  1 -1</clus>
<clus scale="   62.219">  2  3  1 -1</clus>
</clustering>
</event>
<event>
 6    0  0.1622933E+002  0.1215433E+03  0.7546771E-02  0.1240573E+00
         21   -1    0    0  505  502  0.00000000000E+00  0.00000000000E+00  0.29423196859E+03  0.29423196859E+03  0.00000000000E+00 0.  1.
         -2   -1    0    0    0  501 -0.00000000000E+00 -0.00000000000E+00 -0.92252831268E+03  0.92252831268E+03  0.00000000000E+00 0.  1.
         21    1    1    2  503  502 -0.87917719811E+02  0.85612413522E+02 -0.15453627840E+03  0.19733340352E+03  0.00000000000E+00 0. -1.
         21    1    1    2  504  501  0.12934137746E+02  0.31579126226E+02 -0.72410595801E+02  0.80048907030E+02  0.00000000000E+00 0. -1.
         21    1    1    2  505  504 -0.18806399555E+02 -0.29639579617E+02  0.26169244655E+03  0.26403621329E+03  0.00000000000E+00 0.  1.
         -2    1    1    2    0  503  0.93789981620E+02 -0.87551960131E+02 -0.66304191645E+03  0.67534175744E+03  0.00000000000E+00 0.  1.
<scales pt_clust_3="14000.00000" pt_clust_4="34.12526" pt_clust_5="35.05598" pt_clust_6="121.54333"></scales>
<clustering>
<clus scale="   34.125">  2  4  1 -1</clus>
<clus scale="   35.056">  1  5  2 -1</clus>
<clus scale="  121.543">  2  6  1 -1</clus>
<clus scale="   35.056">  1  3  2 -1</clus>
</clustering>
</event>
<event>
 6    0  0.1622933E+002  0.7111676E+02  0.7546771E-02  0.1356336E+00
         21   -1    0    0  501  502  0.00000000000E+00  0.00000000000E+00  0.93484421972E+03  0.93484421972E+03  0.00000000000E+00 0.  1.
          1   -1    0    0  503    0 -0.00000000000E+00 -0.00000000000E+00 -0.71502046641E+03  0.71502046641E+03  0.00000000000E+00 0.  1.
         21    1    1    2  503  504 -0.47520632446E+02 -0.39028217586E+02 -0.50328238235E+02  0.79462845657E+02  0.00000000000E+00 0.  1.
         21    1    1    2  504  505 -0.13827601364E+02 -0.71326535915E+02 -0.19593248874E+03  0.20896941745E+03  0.00000000000E+00 0. -1.
         21    1    1    2  505  502 -0.29536204298E+02  0.64783105505E+02  0.90657215318E+03  0.90936368250E+03  0.00000000000E+00 0.  1.
          1    1    1    2  501    0  0.90884438109E+02  0.45571647996E+02 -0.44048767289E+03  0.45206874053E+03  0.00000000000E+00 0.  1.
<scales pt_clust_3="61.49319" pt_clust_4="14000.00000" pt_clust_5="71.11676" pt_clust_6="61.21600"></scales>
<clustering>
<clus scale="   61.493">  2  3  1 -1</clus>
<clus scale="   61.216">  2  6  1 -1</clus>
<clus scale="   71.117">  1  5  2 -1</clus>
<clus scale="   71.117">  1  3  2 -1</clus>
</clustering>
</event>
<event>
 6    0  0.2739727E+002  0.2292086E+03  0.7546771E-02  0.1127198E+00
         21   -1    0    0  503  502  0.00000000000E+00  0.00000000000E+00  0.89216999593E+03  0.89216999593E+03  0.00000000000E+00 0. -1.
          2   -1    0    0  505    0 -0.00000000000E+00 -0.00000000000E+00 -0.17228230036E+04  0.17228230036E+04  0.00000000000E+00 0.  1.
         21    1    1    2  503  501 -0.96377035011E+02 -0.16349787710E+03 -0.99287012955E+02  0.21419150225E+03  0.00000000000E+00 0.  1.
         21    1    1    2  504  502 -0.47905063569E+02 -0.30272791846E+02  0.81951499008E+03  0.82147194475E+03  0.00000000000E+00 0. -1.
         21    1    1    2  505  504 -0.10087494143E+02  0.29235352961E+02 -0.34813533582E+02  0.46566570856E+02  0.00000000000E+00 0.  1.
          2    1    1    2  501    0  0.15436959272E+03  0.16453531598E+03 -0.15160674513E+04  0.15327629817E+04  0.00000000000E+00 0.  1.
<scales pt_clust_3="229.20858" pt_clust_4="56.66454" pt_clust_5="30.92674" pt_clust_6="14000.00000"></scales>
<clustering>
<clus scale="   30.927">  2  5  1 -1</clus>
<clus scale="   56.665">  1  4  2 -1</clus>
<clus scale="  229.209">  1  3  2 -1</clus>
<clus scale="   56.665">  1  3  2 -1</clus>
</clustering>
</event>
<event>
 6    0  0.1622933E+002  0.1540958E+03  0.7546771E-02  0.1195529E+00
         -1   -1    0    0    0  501 -0.00000000000E+00  0.00000000000E+00  0.53294208892E+03  0.53294208892E+03  0.00000000000E+00 0.  1.
         21   -1    0    0  504  502  0.00000000000E+00 -0.00000000000E+00 -0.19723727874E+03  0.19723727874E+03  0.00000000000E+00 0. -1.
         21    1    1    2  503  502  0.29285332352E+02 -0.95223673464E+01 -0.12318519327E+03  0.12697597416E+03  0.00000000000E+00 0. -1.
         21    1    1    2  504  505  0.97588582961E+02 -0.97608687040E+02  0.42166263146E+02  0.14432248979E+03  0.00000000000E+00 0. -1.
         21    1    1    2  505  501 -0.35494889691E+02 -0.15794881803E+02  0.78285380544E+02  0.87395459220E+02  0.00000000000E+00 0.  1.
         -1    1    1    2    0  503 -0.91379025622E+02  0.12292593619E+03  0.33843835977E+03  0.37148544450E+03  0.00000000000E+00 0.  1.
<scales pt_clust_3="30.79458" pt_clust_4="154.09579" pt_clust_5="37.42853" pt_clust_6="14000.00000"></scales>
<clustering>
<clus scale="   30.795">  2  3  1 -1</clus>
<clus scale="   37.429">  1  5  2 -1</clus>
<clus scale="  154.096">  2  4  1 -1</clus>
<clus scale="   30.795">  2  3  1 -1</clus>
</clustering>
</event>
<event>
 6    0  0.1622933E+002  0.1015729E+03  0.7546771E-02  0.1277023E+00
         21   -1    0    0  503  502  0.00000000000E+00  0.00000000000E+00  0.12979120680E+03  0.12979120680E+03  0.00000000000E+00 0.  1.
          2   -1    0    0  504    0 -0.00000000000E+00 -0.00000000000E+00 -0.10787040766E+04  0.10787040766E+04  0.00000000000E+00 0.  1.
         21    1    1    2  503  501 -0.29071146054E+02  0.95551605578E+01  0.10812112590E+03  0.11236819164E+03  0.00000000000E+00 0.  1.
         21    1    1    2  504  505  0.78246228789E+01  0.32596293926E+02 -0.46977495761E+03  0.47096948298E+03  0.00000000000E+00 0.  1.
         21    1    1    2  505  502 -0.27384933803E+02  0.76822861911E+02 -0.17000339265E+03  0.18855460807E+03  0.00000000000E+00 0.  1.
          2    1    1    2  501    0  0.48631456978E+02 -0.11897431639E+03 -0.41725564547E+03  0.43660300073E+03  0.00000000000E+00 0.  1.
<scales pt_clust_3="30.60119" pt_clust_4="33.61176" pt_clust_5="101.57291" pt_clust_6="14000.00000"></scales>
<clustering>
<clus scale="   30.601">  1  3  2 -1</clus>
<clus scale="   33.612">  2  4  1 -1</clus>
<clus scale="  101.573">  1  5  2 -1</clus>
<clus scale="   30.601">  1  3  2 -1</clus>
</clustering>
</event>
<event>
 6    0  0.1622933E+002  0.2752017E+03  0.7546771E-02  0.1098339E+00
         21   -1    0    0  504  502  0.00000000000E+00  0.00000000000E+00  0.39219167730E+03  0.39219167730E+03  0.00000000000E+00 0. -1.
          2   -1    0    0  503    0 -0.00000000000E+00 -0.00000000000E+00 -0.72079573987E+03  0.72079573987E+03  0.00000000000E+00 0.  1.
         21    1    1    2  503  505 -0.45389249405E+02 -0.34027358806E+02 -0.14534114276E+03  0.15601952726E+03  0.00000000000E+00 0.  1.
         21    1    1    2  504  501  0.62025817716E+02 -0.84671140413E+02 -0.10829178634E+03  0.15080953243E+03  0.00000000000E+00 0. -1.
         21    1    1    2  505  502 -0.10057296586E+03  0.23718273597E+03  0.30508511228E+03  0.39930877456E+03  0.00000000000E+00 0. -1.
          2    1    1    2  501    0  0.83936397550E+02 -0.11848423675E+03 -0.38005624575E+03  0.40684958293E+03  0.00000000000E+00 0.  1.
<scales pt_clust_3="56.72782" pt_clust_4="83.30596" pt_clust_5="256.54073" pt_clust_6="83.30596"></scales>
<clustering>
<clus scale="   56.728">  2  3  1 -1</clus>
<clus scale="   83.306">  4  6 -1 -1</clus>
<clus scale="  256.541">  1  5  2 -1</clus>
<clus scale="  256.541">  1  3  2 -1</clus>
</clustering>
</event>
<event>
 6    0  0.1622933E+002  0.1675048E+03  0.7546771E-02  0.1180475E+00
         21   -1    0    0  504  502  0.00000000000E+00  0.00000000000E+00  0.10524773837E+03  0.10524773837E+03  0.00000000000E+00 0. -1.
         -1   -1    0    0    0  501 -0.00000000000E+00 -0.00000000000E+00 -0.92175175652E+03  0.92175175652E+03  0.00000000000E+00 0. -1.
         21    1    1    2  503  502 -0.81432522250E+02 -0.43517562235E+02 -0.19026504876E+03  0.21148480485E+03  0.00000000000E+00 0. -1.
         21    1    1    2  504  505  0.11299318829E+03  0.95391011953E+02  0.20036480080E+02  0.14922589016E+03  0.00000000000E+00 0. -1.
         21    1    1    2  505  501  0.28470996460E+02  0.39627204589E+02 -0.27201086742E+03  0.27635271842E+03  0.00000000000E+00 0. -1.
         -1    1    1    2    0  503 -0.60031662499E+02 -0.91500654308E+02 -0.37426458205E+03  0.38993608145E+03  0.00000000000E+00 0. -1.
<scales pt_clust_3="68.36565" pt_clust_4="152.59918" pt_clust_5="48.79460" pt_clust_6="68.36565"></scales>
<clustering>
<clus scale="   48.795">  2  5  1 -1</clus>
<clus scale="   68.366">  3  6 -1 -1</clus>
<clus scale="  152.599">  1  4  2 -1</clus>
<clus scale="  152.599">  1  3  2 -1</clus>
</clustering>
</event>
<event>
 6    0  0.1622933E+002  0.1013582E+03  0.7546771E-02  0.1277466E+00
         21   -1    0    0  504  502  0.00000000000E+00  0.00000000000E+00  0.53804033943E+03  0.53804033943E+03  0.00000000000E+00 0. -1.
          2   -1    0    0  503    0 -0.00000000000E+00 -0.00000000000E+00 -0.75933872852E+03  0.75933872852E+03  0.00000000000E+00 0.  1.
         21    1    1    2  503  505 -0.12621764777E+02  0.42326242969E+02 -0.10478705852E+03  0.11371520314E+03  0.00000000000E+00 0.  1.
         21    1    1    2  504  501 -0.47725217946E+02 -0.52350881323E+01  0.48310440519E+03  0.48548426224E+03  0.00000000000E+00 0. -1.
         21    1    1    2  505  502  0.47160922204E+01 -0.93684427415E+02 -0.47303749971E+00  0.93804249533E+02  0.00000000000E+00 0.  1.
          2    1    1    2  501    0  0.55630890502E+02  0.56593272579E+02 -0.59914269826E+03  0.60437535303E+03  0.00000000000E+00 0.  1.
<scales pt_clust_3="44.16809" pt_clust_4="48.02607" pt_clust_5="101.35818" pt_clust_6="14000.00000"></scales>
<clustering>
<clus scale="   44.168">  2  3  1 -1</clus>
<clus scale="   48.026">  1  4  2 -1</clus>
<clus scale="  101.358">  1  5  2 -1</clus>
<clus scale="   48.026">  1  3  2 -1</clus>
</clustering>
</event>
<event>
 6    0  0.1622933E+002  0.7179246E+02  0.7546771E-02  0.1354102E+00
         21   -1    0    0  503  502  0.00000000000E+00  0.00000000000E+00  0.89038085931E+02  0.89038085931E+02  0.00000000000E+00 0.  1.
          2   -1    0    0  504    0 -0.00000000000E+00 -0.00000000000E+00 -0.18993420172E+04  0.18993420172E+04  0.00000000000E+00 0.  1.
         21    1    1    2  503  501 -0.70381691906E+02  0.11798120194E+02  0.67265731449E+02  0.98068633227E+02  0.00000000000E+00 0.  1.
         21    1    1    2  504  505 -0.47540921813E+01  0.31737836920E+02 -0.11240225550E+03  0.11689379251E+03  0.00000000000E+00 0. -1.
         21    1    1    2  505  502 -0.37061312864E+02 -0.14034935139E+02 -0.19591846966E+03  0.19988638540E+03  0.00000000000E+00 0.  1.
          2    1    1    2  501    0  0.11219709695E+03 -0.29501021975E+02 -0.15692489375E+04  0.15735312920E+04  0.00000000000E+00 0.  1.
<scales pt_clust_3="71.79246" pt_clust_4="32.09193" pt_clust_5="39.03167" pt_clust_6="14000.00000"></scales>
<clustering>
<clus scale="   32.092">  2  4  1 -1</clus>
<clus scale="   39.032">  2  5  1 -1</clus>
<clus scale="   71.792">  1  3  2 -1</clus>
<clus scale="   71.792">  1  3  2 -1</clus>
</clustering>
</event>
<event>
 6    0  0.1622933E+002  0.1149287E+03  0.7546771E-02  0.1251706E+00
         -1   -1    0    0    0  501 -0.00000000000E+00  0.00000000000E+00  0.34359567634E+03  0.34359567634E+03  0.00000000000E+00 0. -1.
         21   -1    0    0  503  502  0.00000000000E+00 -0.00000000000E+00 -0.19194962082E+03  0.19194962082E+03  0.00000000000E+00 0.  1.
         21    1    1    2  503  505 -0.67959433007E+02 -0.11196953075E+03 -0.11936877445E+02  0.13152242924E+03  0.00000000000E+00 0.  1.
         21    1    1    2  504  502 -0.28376167534E+02  0.25802398344E+02 -0.94368656187E+02  0.10186468434E+03  0.00000000000E+00 0. -1.
         21    1    1    2  505  501  0.65946375488E+02  0.20584580880E+02  0.60280886502E+02  0.91686611277E+02  0.00000000000E+00 0. -1.
         -1    1    1    2    0  504  0.30389225053E+02  0.65582551525E+02  0.19767070265E+03  0.21047157230E+03  0.00000000000E+00 0. -1.
<scales pt_clust_3="14000.00000" pt_clust_4="38.35324" pt_clust_5="66.07035" pt_clust_6="114.92870"></scales>
<clustering>
<clus scale="   38.353">  2  4  1 -1</clus>
<clus scale="   66.070">  1  5  2 -1</clus>
<clus scale="  114.929">  1  6  2 -1</clus>
<clus scale="   38.353">  2  3  1 -1</clus>
</clustering>
</event>
<event>
 6    0  0.1622933E+002  0.6352546E+02  0.7546771E-02  0.1383606E+00
         -1   -1    0    0    0  501 -0.00000000000E+00  0.00000000000E+00  0.55439675970E+03  0.55439675970E+03  0.00000000000E+00 0.  1.
         21   -1    0    0  504  502  0.00000000000E+00 -0.00000000000E+00 -0.50343054381E+02  0.50343054381E+02  0.00000000000E+00 0.  1.
         21    1    1    2  503  501 -0.18886658757E+02  0.66150185912E+02  0.14052121176E+03  0.15645690758E+03  0.00000000000E+00 0.  1.
         21    1    1    2  504  503 -0.64530580981E+01  0.60487120283E+02  0.44708770334E+01  0.60994445816E+02  0.00000000000E+00 0.  1.
         21    1    1    2  505  502  0.11169129787E+02 -0.72888044745E+02  0.11231316248E+03  0.13435647731E+03  0.00000000000E+00 0.  1.
         -1    1    1    2    0  505  0.14170587068E+02 -0.53749261450E+02  0.24674845404E+03  0.25293198337E+03  0.00000000000E+00 0.  1.
<scales pt_clust_3="41.70145" pt_clust_4="63.52546" pt_clust_5="14000.00000" pt_clust_6="55.58587"></scales>
<clustering>
<clus scale="   55.586">  1  6  2 -1</clus>
<clus scale="   41.701">  1  3  2 -1</clus>
<clus scale="   63.525">  2  4  1 -1</clus>
<clus scale="   63.525">  2  3  1 -1</clus>
</clustering>
</event>
<event>
 6    0  0.1622933E+002  0.1039053E+03  0.7546771E-02  0.1272291E+00
          2   -1    0    0  504    0 -0.00000000000E+00  0.00000000000E+00  0.45693028194E+03  0.45693028194E+03  0.00000000000E+00 0.  1.
         21   -1    0    0  501  502  0.00000000000E+00 -0.00000000000E+00 -0.67669266207E+03  0.67669266207E+03  0.00000000000E+00 0. -1.
         21    1    1    2  503  505  0.41707513628E+02 -0.77316100384E+02  0.22104016910E+03  0.23785721016E+03  0.00000000000E+00 0.  1.
         21    1    1    2  504  503  0.56589569488E+02 -0.28247335656E+01  0.84165687571E+02  0.10146044283E+03  0.00000000000E+00 0.  1.
         21    1    1    2  505  502  0.17293863417E+02  0.43361233109E+02 -0.63128374113E+03  0.63300745340E+03  0.00000000000E+00 0. -1.
          2    1    1    2  501    0 -0.11559094653E+03  0.36779600841E+02  0.10631550433E+03  0.16129783761E+03  0.00000000000E+00 0.  1.
<scales pt_clust_3="103.90534" pt_clust_4="60.20691" pt_clust_5="46.68270" pt_clust_6="14000.00000"></scales>
<clustering>
<clus scale="   46.683">  2  5  1 -1</clus>
<clus scale="   60.207">  1  4  2 -1</clus>
<clus scale="  103.905">  1  3  2 -1</clus>
<clus scale="   46.683">  2  3  1 -1</clus>
</clustering>
</event>
<event>
 6    0  0.1622933E+002  0.9908290E+02  0.7546771E-02  0.1282236E+00
          2   -1    0    0  503    0 -0.00000000000E+00  0.00000000000E+00  0.19961652167E+04  0.19961652167E+04  0.00000000000E+00 0. -1.
         21   -1    0    0  501  502  0.00000000000E+00 -0.00000000000E+00 -0.32057995690E+02  0.32057995690E+02  0.00000000000E+00 0.  1.
         21    1    1    2  503  504 -0.31234534841E+02  0.17905950506E+02  0.24078839406E+03  0.24346513086E+03  0.00000000000E+00 0.  1.
         21    1    1    2  504  505  0.32868195184E+02  0.73523946408E+02  0.80637614155E+03  0.81038791366E+03  0.00000000000E+00 0.  1.
         21    1    1    2  505  502 -0.16275503455E+02  0.41674236710E+02 -0.28983316524E+01  0.44833406567E+02  0.00000000000E+00 0.  1.
          2    1    1    2  501    0  0.14641843111E+02 -0.13310413362E+03  0.91984101701E+03  0.92953676125E+03  0.00000000000E+00 0. -1.
<scales pt_clust_3="36.00304" pt_clust_4="14000.00000" pt_clust_5="45.07564" pt_clust_6="99.08290"></scales>
<clustering>
<clus scale="   36.003">  1  3  2 -1</clus>
<clus scale="   45.076">  2  5  1 -1</clus>
<clus scale="   99.083">  2  6  1 -1</clus>
<clus scale="   45.076">  2  3  1 -1</clus>
</clustering>
</event>
<event>
 6    0  0.1622933E+002  0.6532926E+02  0.7546771E-02  0.1376737E+00
          2   -1    0    0  503    0 -0.00000000000E+00  0.00000000000E+00  0.79115917832E+03  0.79115917832E+03  0.00000000000E+00 0.  1.
         21   -1    0    0  501  502  0.00000000000E+00 -0.00000000000E+00 -0.92689840288E+02  0.92689840288E+02  0.00000000000E+00 0.  1.
         21    1    1    2  503  504  0.11137736320E+02  0.34814414194E+02  0.15385230741E+03  0.15813483203E+03  0.00000000000E+00 0. -1.
         21    1    1    2  504  505  0.10903890467E+03 -0.34825826618E+02  0.18317370019E+03  0.21599751243E+03  0.00000000000E+00 0. -1.
         21    1    1    2  505  502 -0.56175723851E+02  0.26382250624E+02 -0.57792931749E+02  0.84804233729E+02  0.00000000000E+00 0.  1.
          2    1    1    2  501    0 -0.64000917140E+02 -0.26370838200E+02  0.41923626218E+03  0.42491244043E+03  0.00000000000E+00 0.  1.
<scales pt_clust_3="36.55260" pt_clust_4="65.32926" pt_clust_5="14000.00000" pt_clust_6="56.69222"></scales>
<clustering>
<clus scale="   36.553">  1  3  2 -1</clus>
<clus scale="   56.692">  1  6  2 -1</clus>
<clus scale="   65.329">  1  4  2 -1</clus>
<clus scale="   65.329">  2  3  1 -1</clus>
</clustering>
</event>
<event>
 6    0  0.1622933E+002  0.1121940E+03  0.7546771E-02  0.1256560E+00
          2   -1    0    0  504    0 -0.00000000000E+00  0.00000000000E+00  0.18188630601E+03  0.18188630601E+03  0.00000000000E+00 0. -1.
         21   -1    0    0  503  502  0.00000000000E+00 -0.00000000000E+00 -0.18083876590E+04  0.18083876590E+04  0.00000000000E+00 0. -1.
         21    1    1    2  503  501 -0.66209559210E+02 -0.26609713389E+02 -0.15915822859E+04  0.15931810805E+04  0.00000000000E+00 0. -1.
         21    1    1    2  504  505  0.12548109347E+03  0.11427324687E+03 -0.69096210828E+02  0.18324346133E+03  0.00000000000E+00 0. -1.
         21    1    1    2  505  502 -0.34070328881E+02 -0.17931252307E+02 -0.73581612887E+02  0.83045595154E+02  0.00000000000E+00 0.  1.
          2    1    1    2  501    0 -0.25201205379E+02 -0.69732281172E+02  0.10775875663E+03  0.13080382800E+03  0.00000000000E+00 0. -1.
<scales pt_clust_3="14000.00000" pt_clust_4="112.19396" pt_clust_5="38.50087" pt_clust_6="74.33606"></scales>
<clustering>
<clus scale="   38.501">  2  5  1 -1</clus>
<clus scale="   74.336">  1  6  2 -1</clus>
<clus scale="  112.194">  1  4  2 -1</clus>
<clus scale="   38.501">  2  3  1 -1</clus>
</clustering>
</event>
<event>
 6    0  0.1622933E+002  0.8412603E+02  0.7546771E-02  0.1317734E+00
          2   -1    0    0  505    0 -0.00000000000E+00  0.00000000000E+00  0.16626488912E+04  0.16626488912E+04  0.00000000000E+00 0. -1.
         21   -1    0    0  504  502  0.00000000000E+00 -0.00000000000E+00 -0.97890153019E+02  0.97890153019E+02  0.00000000000E+00 0. -1.
         21    1    1    2  503  502 -0.35856392021E+02  0.22525612641E+02 -0.84931687289E+02  0.94902452968E+02  0.00000000000E+00 0. -1.
         21    1    1    2  504  501 -0.87118441035E+02 -0.13790866497E+02  0.58613951980E+03  0.59273885265E+03  0.00000000000E+00 0.  1.
         21    1    1    2  505  503  0.43302729397E+02  0.27007113012E+02  0.29259644025E+03  0.29701378314E+03  0.00000000000E+00 0. -1.
          2    1    1    2  501    0  0.79672103658E+02 -0.35741859156E+02  0.77095446546E+03  0.77588395550E+03  0.00000000000E+00 0. -1.
<scales pt_clust_3="42.34482" pt_clust_4="14000.00000" pt_clust_5="47.10541" pt_clust_6="84.12603"></scales>
<clustering>
<clus scale="   42.345">  2  3  1 -1</clus>
<clus scale="   47.105">  2  5  1 -1</clus>
<clus scale="   84.126">  1  6  2 -1</clus>
<clus scale="   42.345">  2  3  1 -1</clus>
</clustering>
</event>
<event>
 6    0  0.1622933E+002  0.1776931E+03  0.7546771E-02  0.1170055E+00
         21   -1    0    0  503  502  0.00000000000E+00  0.00000000000E+00  0.72961957775E+03  0.72961957775E+03  0.00000000000E+00 0. -1.
          1   -1    0    0  505    0 -0.00000000000E+00 -0.00000000000E+00 -0.11155928692E+03  0.11155928692E+03  0.00000000000E+00 0. -1.
         21    1    1    2  503  504 -0.32128728835E+02 -0.16029185044E+03  0.56978193925E+03  0.59277077427E+03  0.00000000000E+00 0. -1.
         21    1    1    2  504  501  0.62733562703E+02  0.56743215206E+02  0.31005991962E+02  0.90092529651E+02  0.00000000000E+00 0. -1.
         21    1    1    2  505  502 -0.30917795413E+02  0.15671707143E+02 -0.40377980611E+02  0.53215540927E+02  0.00000000000E+00 0. -1.
          1    1    1    2  501    0  0.31296154521E+00  0.87876928095E+02  0.57650340236E+02  0.10510001982E+03  0.00000000000E+00 0. -1.
<scales pt_clust_3="161.93977" pt_clust_4="67.50856" pt_clust_5="34.66284" pt_clust_6="67.50856"></scales>
<clustering>
<clus scale="   34.663">  2  5  1 -1</clus>
<clus scale="   67.509">  4  6 -1 -1</clus>
<clus scale="  161.940">  1  3  2 -1</clus>
<clus scale="  161.940">  1  3  2 -1</clus>
</clustering>
</event>
<event>
 6    0  0.1622933E+002  0.1307093E+03  0.7546771E-02  0.1226407E+00
         21   -1    0    0  505  502  0.00000000000E+00  0.00000000000E+00  0.14170012721E+03  0.14170012721E+03  0.00000000000E+00 0.  1.
          1   -1    0    0  503    0 -0.00000000000E+00 -0.00000000000E+00 -0.89937924261E+03  0.89937924261E+03  0.00000000000E+00 0. -1.
         21    1    1    2  503  504 -0.32393505587E+02  0.68150147651E+01 -0.12718593662E+03  0.13142315665E+03  0.00000000000E+00 0. -1.
         21    1    1    2  504  502  0.30616526579E+02 -0.29863054011E+02 -0.90050857610E+02  0.99691176395E+02  0.00000000000E+00 0. -1.
         21    1    1    2  505  501 -0.13047224116E+03 -0.51035843455E+01  0.94247097234E+02  0.16103281537E+03  0.00000000000E+00 0.  1.
          1    1    1    2  501    0  0.13224922017E+03  0.28151623592E+02 -0.63468941841E+03  0.64893222141E+03  0.00000000000E+00 0. -1.
<scales pt_clust_3="33.10262" pt_clust_4="39.38644" pt_clust_5="130.70932" pt_clust_6="14000.00000"></scales>
<clustering>
<clus scale="   33.103">  2  3  1 -1</clus>
<clus scale="   39.386">  2  4  1 -1</clus>
<clus scale="  130.709">  1  5  2 -1</clus>
<clus scale="  130.709">  1  3  2 -1</clus>
</clustering>
</event>
<event>
 6    0  0.1622933E+002  0.1311024E+03  0.7546771E-02  0.1225829E+00
          1   -1    0    0  503    0 -0.00000000000E+00  0.00000000000E+00  0.33761185993E+03  0.33761185993E+03  0.00000000000E+00 0. -1.
         21   -1    0    0  504  502  0.00000000000E+00 -0.00000000000E+00 -0.10298369499E+04  0.10298369499E+04  0.00000000000E+00 0. -1.
         21    1    1    2  503  505  0.33796313479E+02  0.11642561766E+02 -0.14413600121E+02  0.38542079831E+02  0.00000000000E+00 0. -1.
         21    1    1    2  504  501  0.39957752746E+01  0.10854395133E+03  0.70156790082E+02  0.12930479800E+03  0.00000000000E+00 0. -1.
         21    1    1    2  505  502 -0.25127333437E+02  0.37323769932E+02 -0.94554054291E+03  0.94661046105E+03  0.00000000000E+00 0. -1.
          1    1    1    2  501    0 -0.12664755317E+02 -0.15751028303E+03  0.19757226297E+03  0.25299147097E+03  0.00000000000E+00 0. -1.
<scales pt_clust_3="35.74549" pt_clust_4="131.10239" pt_clust_5="44.97874" pt_clust_6="14000.00000"></scales>
<clustering>
<clus scale="   35.745">  1  3  2 -1</clus>
<clus scale="   44.979">  2  5  1 -1</clus>
<clus scale="  131.102">  2  4  1 -1</clus>
<clus scale="   44.979">  2  3  1 -1</clus>
</clustering>
</event>
<event>
 6    0  0.1622933E+002  0.9152646E+02  0.7546771E-02  0.1299197E+00
         21   -1    0    0  501  502  0.00000000000E+00  0.00000000000E+00  0.78882381837E+03  0.78882381837E+03  0.00000000000E+00 0. -1.
         -3   -1    0    0    0  501 -0.00000000000E+00 -0.00000000000E+00 -0.30763875728E+03  0.30763875728E+03  0.00000000000E+00 0.  1.
         21    1    1    2  503  505 -0.37191317666E+02  0.67898283883E+02  0.62476793088E+02  0.99482263437E+02  0.00000000000E+00 0.  1.
         21    1    1    2  504  503  0.18467201817E+02 -0.11987501529E+03 -0.54922510602E+02  0.13314480465E+03  0.00000000000E+00 0.  1.
         21    1    1    2  505  502  0.47280890567E+01 -0.32345900332E+02  0.65894648282E+03  0.65975683347E+03  0.00000000000E+00 0. -1.
         -3    1    1    2    0  504  0.13996026792E+02  0.84322631744E+02 -0.18531570421E+03  0.20407867409E+03  0.00000000000E+00 0.  1.
<scales pt_clust_3="58.68679" pt_clust_4="14000.00000" pt_clust_5="32.68963" pt_clust_6="91.52646"></scales>
<clustering>
<clus scale="   32.690">  1  5  2 -1</clus>
<clus scale="   58.687">  1  3  2 -1</clus>
<clus scale="   91.526">  2  6  1 -1</clus>
<clus scale="   32.690">  1  3  2 -1</clus>
</clustering>
</event>
<event>
 6    0  0.1622933E+002  0.1933441E+03  0.7546771E-02  0.1155479E+00
          1   -1    0    0  505    0 -0.00000000000E+00  0.00000000000E+00  0.13793090492E+04  0.13793090492E+04  0.00000000000E+00 0. -1.
         21   -1    0    0  503  502  0.00000000000E+00 -0.00000000000E+00 -0.89832571289E+02  0.89832571289E+02  0.00000000000E+00 0.  1.
         21    1    1    2  503  501  0.15811655674E+02 -0.10968912134E+03 -0.63820436898E+01  0.11100649655E+03  0.00000000000E+00 0.  1.
         21    1    1    2  504  502 -0.12970863806E+01 -0.79643477465E+02  0.83631502650E+02  0.11549456338E+03  0.00000000000E+00 0. -1.
         21    1    1    2  505  504 -0.12573538737E+01 -0.39343243295E+02  0.10912938018E+03  0.11601160869E+03  0.00000000000E+00 0. -1.
          1    1    1    2  501    0 -0.13257215419E+02  0.22867584210E+03  0.11030976387E+04  0.11266289518E+04  0.00000000000E+00 0. -1.
<scales pt_clust_3="110.82288" pt_clust_4="33.52245" pt_clust_5="33.52245" pt_clust_6="187.37122"></scales>
<clustering>
<clus scale="   33.522">  4  5 -1 -1</clus>
<clus scale="  110.823">  2  3  1 -1</clus>
<clus scale="  187.371">  1  6  2 -1</clus>
<clus scale="  110.823">  2  3  1 -1</clus>
</clustering>
</event>
<event>
 6    0  0.1622933E+002  0.1324656E+03  0.7546771E-02  0.1223842E+00
         21   -1    0    0  503  502  0.00000000000E+00  0.00000000000E+00  0.33092122904E+02  0.33092122904E+02  0.00000000000E+00 0. -1.
          2   -1    0    0  504    0 -0.00000000000E+00 -0.00000000000E+00 -0.12930247721E+04  0.12930247721E+04  0.00000000000E+00 0. -1.
         21    1    1    2  503  501 -0.62916379576E+02 -0.92119937243E+02 -0.28548062260E+03  0.30650242990E+03  0.00000000000E+00 0. -1.
         21    1    1    2  504  505  0.37624563261E+02 -0.39960451704E+02 -0.31973595542E+03  0.32441258707E+03  0.00000000000E+00 0. -1.
         21    1    1    2  505  502 -0.10061001076E+01 -0.30697365157E+02 -0.14263810146E+02  0.33864387561E+02  0.00000000000E+00 0. -1.
          2    1    1    2  501    0  0.26297916423E+02  0.16277775410E+03 -0.64045226099E+03  0.66133749042E+03  0.00000000000E+00 0. -1.
<scales pt_clust_3="132.46556" pt_clust_4="57.10211" pt_clust_5="30.71385" pt_clust_6="14000.00000"></scales>
<clustering>
<clus scale="   30.714">  1  5  2 -1</clus>
<clus scale="   57.102">  2  4  1 -1</clus>
<clus scale="  132.466">  1  3  2 -1</clus>
<clus scale="   30.714">  1  3  2 -1</clus>
</clustering>
</event>
<event>
 6    0  0.1622933E+002  0.1210227E+03  0.7546771E-02  0.1241419E+00
         21   -1    0    0  505  502  0.00000000000E+00  0.00000000000E+00  0.69718234492E+02  0.69718234492E+02  0.00000000000E+00 0.  1.
          2   -1    0    0  503    0 -0.00000000000E+00 -0.00000000000E+00 -0.13915240650E+04  0.13915240650E+04  0.00000000000E+00 0.  1.
         21    1    1    2  503  504  0.12183886421E+03  0.35946121098E+02 -0.89518618380E+03  0.90415437627E+03  0.00000000000E+00 0.  1.
         21    1    1    2  504  502  0.38815081398E+02  0.26313522013E+02  0.34104404870E+02  0.57983811674E+02  0.00000000000E+00 0.  1.
         21    1    1    2  505  501 -0.50136693680E+02 -0.52827353907E+02 -0.11594254688E+03  0.13692001881E+03  0.00000000000E+00 0.  1.
          2    1    1    2  501    0 -0.11051725193E+03 -0.94322892042E+01 -0.34478150470E+03  0.36218409275E+03  0.00000000000E+00 0.  1.
<scales pt_clust_3="14000.00000" pt_clust_4="46.89362" pt_clust_5="52.72512" pt_clust_6="121.02271"></scales>
<clustering>
<clus scale="   46.894">  1  4  2 -1</clus>
<clus scale="   52.725">  1  5  2 -1</clus>
<clus scale="  121.023">  1  6  2 -1</clus>
<clus scale="   46.894">  1  3  2 -1</clus>
</clustering>
</event>
<event>
 6    0  0.1622933E+002  0.7278246E+02  0.7546771E-02  0.1350879E+00
          2   -1    0    0  504    0 -0.00000000000E+00  0.00000000000E+00  0.61169391540E+03  0.61169391540E+03  0.00000000000E+00 0. -1.
         21   -1    0    0  501  502  0.00000000000E+00 -0.00000000000E+00 -0.17520004988E+03  0.17520004988E+03  0.00000000000E+00 0. -1.
         21    1    1    2  503  502  0.30921159100E+02  0.65660668382E+02 -0.14996904597E+03  0.16660779154E+03  0.00000000000E+00 0. -1.
         21    1    1    2  504  505  0.37343786275E+02  0.18916273643E+00  0.20555891601E+03  0.20892357959E+03  0.00000000000E+00 0. -1.
         21    1    1    2  505  503 -0.61409322886E+02  0.18769769307E+02  0.10895137533E+03  0.12646664130E+03  0.00000000000E+00 0. -1.
          2    1    1    2  501    0 -0.68556224896E+01 -0.84619600425E+02  0.27195262016E+03  0.28489595285E+03  0.00000000000E+00 0. -1.
<scales pt_clust_3="72.78246" pt_clust_4="37.34427" pt_clust_5="53.93303" pt_clust_6="14000.00000"></scales>
<clustering>
<clus scale="   37.344">  1  4  2 -1</clus>
<clus scale="   53.933">  1  5  2 -1</clus>
<clus scale="   72.782">  2  3  1 -1</clus>
<clus scale="   72.782">  2  3  1 -1</clus>
</clustering>
</event>
<event>
 6    0  0.1622933E+002  0.1499536E+03  0.7546771E-02  0.1200530E+00
         21   -1    0    0  504  502  0.00000000000E+00  0.00000000000E+00  0.11260249353E+04  0.11260249353E+04  0.00000000000E+00 0. -1.
          1   -1    0    0  503    0 -0.00000000000E+00 -0.00000000000E+00 -0.61771086322E+03  0.61771086322E+03  0.00000000000E+00 0. -1.
         21    1    1    2  503  505  0.32130093544E+02  0.15901723539E+02 -0.92192387240E+02  0.98917359385E+02  0.00000000000E+00 0.  1.
         21    1    1    2  504  501  0.45041877763E+02 -0.14310459773E+03  0.10907690421E+04  0.11010380556E+04  0.00000000000E+00 0. -1.
         21    1    1    2  505  502 -0.45733414189E+02 -0.13010801520E+02 -0.19182444302E+02  0.51271749521E+02  0.00000000000E+00 0. -1.
          1    1    1    2  501    0 -0.31438557117E+02  0.14021367571E+03 -0.47108013848E+03  0.49250863404E+03  0.00000000000E+00 0. -1.
<scales pt_clust_3="35.84979" pt_clust_4="149.95356" pt_clust_5="45.17180" pt_clust_6="14000.00000"></scales>
<clustering>
<clus scale="   35.850">  2  3  1 -1</clus>
<clus scale="   45.172">  2  5  1 -1</clus>
<clus scale="  149.954">  1  4  2 -1</clus>
<clus scale="  149.954">  1  3  2 -1</clus>
</clustering>
</event>
<event>
 6    0  0.1622933E+002  0.1791752E+03  0.7546771E-02  0.1168604E+00
         21   -1    0    0  505  502  0.00000000000E+00  0.00000000000E+00  0.37189425862E+03  0.37189425862E+03  0.00000000000E+00 0. -1.
          2   -1    0    0  504    0 -0.00000000000E+00 -0.00000000000E+00 -0.11389805578E+04  0.11389805578E+04  0.00000000000E+00 0. -1.
         21    1    1    2  503  501  0.41921032251E+02 -0.48887007921E+02 -0.16359361847E+03  0.17581292470E+03  0.00000000000E+00 0. -1.
         21    1    1    2  504  502  0.53777946718E+02  0.60361086480E+01  0.33951893160E+03  0.34380460596E+03  0.00000000000E+00 0. -1.
         21    1    1    2  505  503  0.72128251829E+02 -0.44835819349E+02 -0.12172056691E+03  0.14842045619E+03  0.00000000000E+00 0.  1.
          2    1    1    2  501    0 -0.16782723080E+03  0.87686718622E+02 -0.82129104544E+03  0.84283682961E+03  0.00000000000E+00 0. -1.
<scales pt_clust_3="38.27439" pt_clust_4="54.11564" pt_clust_5="38.27439" pt_clust_6="173.70049"></scales>
<clustering>
<clus scale="   38.274">  3  5 -1 -1</clus>
<clus scale="   54.116">  1  4  2 -1</clus>
<clus scale="  173.700">  2  6  1 -1</clus>
<clus scale="   54.116">  1  3  2 -1</clus>
</clustering>
</event>
<event>
 6    0  0.1622933E+002  0.1148498E+03  0.7546771E-02  0.1251844E+00
          2   -1    0    0  505    0 -0.00000000000E+00  0.00000000000E+00  0.14138687753E+04  0.14138687753E+04  0.00000000000E+00 0.  1.
         21   -1    0    0  504  502  0.00000000000E+00 -0.00000000000E+00 -0.77292228403E+02  0.77292228403E+02  0.00000000000E+00 0.  1.
         21    1    1    2  503  502 -0.21468135609E+02 -0.27308032282E+02 -0.46071296159E+02  0.57698993088E+02  0.00000000000E+00 0.  1.
         21    1    1    2  504  501  0.78134856306E+02  0.54261774108E+02  0.20549372138E+03  0.22644439809E+03  0.00000000000E+00 0. -1.
         21    1    1    2  505  503 -0.13625790424E+02 -0.12205880154E+03  0.93888239351E+03  0.94688128191E+03  0.00000000000E+00 0.  1.
          2    1    1    2  501    0 -0.43040930273E+02  0.95105059709E+02  0.23827172815E+03  0.26013633060E+03  0.00000000000E+00 0.  1.
<scales pt_clust_3="34.73628" pt_clust_4="81.54410" pt_clust_5="114.84978" pt_clust_6="14000.00000"></scales>
<clustering>
<clus scale="   34.736">  2  3  1 -1</clus>
<clus scale="   81.544">  2  4  1 -1</clus>
<clus scale="  114.850">  1  5  2 -1</clus>
<clus scale="   34.736">  2  3  1 -1</clus>
</clustering>
</event>
<event>
 6    0  0.1622933E+002  0.7129962E+02  0.7546771E-02  0.1355729E+00
          1   -1    0    0  504    0 -0.00000000000E+00  0.00000000000E+00  0.10420305513E+04  0.10420305513E+04  0.00000000000E+00 0.  1.
         21   -1    0    0  503  502  0.00000000000E+00 -0.00000000000E+00 -0.10054300743E+03  0.10054300743E+03  0.00000000000E+00 0.  1.
         21    1    1    2  503  505  0.26268895064E+02 -0.43045953918E+02 -0.78587495961E+02  0.93375604512E+02  0.00000000000E+00 0.  1.
         21    1    1    2  504  502 -0.12284569071E+02  0.81689421435E+02  0.34387211349E+03  0.35365534444E+03  0.00000000000E+00 0.  1.
         21    1    1    2  505  501  0.49491853383E+02 -0.35545587529E+02  0.10970843104E+03  0.12549451058E+03  0.00000000000E+00 0.  1.
          1    1    1    2  501    0 -0.63476179375E+02 -0.30978799881E+01  0.56649449531E+03  0.57004809922E+03  0.00000000000E+00 0.  1.
<scales pt_clust_3="50.42826" pt_clust_4="71.29962" pt_clust_5="14000.00000" pt_clust_6="60.84654"></scales>
<clustering>
<clus scale="   50.428">  2  3  1 -1</clus>
<clus scale="   60.847">  1  6  2 -1</clus>
<clus scale="   71.300">  1  4  2 -1</clus>
<clus scale="   50.428">  2  3  1 -1</clus>
</clustering>
</event>
<event>
 6    0  0.1622933E+002  0.1236741E+03  0.7546771E-02  0.1237156E+00
         21   -1    0    0  504  502  0.00000000000E+00  0.00000000000E+00  0.26777348885E+03  0.26777348885E+03  0.00000000000E+00 0. -1.
          2   -1    0    0  505    0 -0.00000000000E+00 -0.00000000000E+00 -0.30940947649E+03  0.30940947649E+03  0.00000000000E+00 0.  1.
         21    1    1    2  503  502  0.11501273107E+03  0.40080839223E-01 -0.80567767075E+02  0.14042469515E+03  0.00000000000E+00 0.  1.
         21    1    1    2  504  501 -0.94575468481E+02  0.89046986690E+02  0.20347907963E+03  0.24140758257E+03  0.00000000000E+00 0. -1.
         21    1    1    2  505  503 -0.22116336904E+02 -0.22772527664E+02 -0.23543923294E+02  0.39522609964E+02  0.00000000000E+00 0.  1.
          2    1    1    2  501    0  0.16790743110E+01 -0.66314539865E+02 -0.14100337690E+03  0.15582807766E+03  0.00000000000E+00 0.  1.
<scales pt_clust_3="14000.00000" pt_clust_4="123.67413" pt_clust_5="31.74461" pt_clust_6="79.12905"></scales>
<clustering>
<clus scale="   31.745">  2  5  1 -1</clus>
<clus scale="   79.129">  2  6  1 -1</clus>
<clus scale="  123.674">  1  4  2 -1</clus>
<clus scale="  123.674">  1  3  2 -1</clus>
</clustering>
</event>
<event>
 6    0  0.1622933E+002  0.1238515E+03  0.7546771E-02  0.1236875E+00
         21   -1    0    0  504  502  0.00000000000E+00  0.00000000000E+00  0.12555786103E+03  0.12555786103E+03  0.00000000000E+00 0.  1.
         -2   -1    0    0    0  501 -0.00000000000E+00 -0.00000000000E+00 -0.59802903812E+03  0.59802903812E+03  0.00000000000E+00 0.  1.
         21    1    1    2  503  505  0.56710593656E+02  0.41606647129E+01 -0.71280537902E+02  0.91182880231E+02  0.00000000000E+00 0.  1.
         21    1    1    2  504  503  0.19277480641E+02  0.56313041638E+02 -0.39039810368E+03  0.39490943174E+03  0.00000000000E+00 0.  1.
         21    1    1    2  505  501  0.92400226662E+01  0.38609382575E+02 -0.80217980575E+02  0.89504116381E+02  0.00000000000E+00 0.  1.
         -2    1    1    2    0  502 -0.85228096963E+02 -0.99083088925E+02  0.69425445073E+02  0.14799047080E+03  0.00000000000E+00 0.  1.
<scales pt_clust_3="59.07323" pt_clust_4="123.85153" pt_clust_5="39.69965" pt_clust_6="14000.00000"></scales>
<clustering>
<clus scale="   39.700">  2  5  1 -1</clus>
<clus scale="   59.073">  2  3  1 -1</clus>
<clus scale="  123.852">  2  4  1 -1</clus>
<clus scale="  123.852">  1  3  2 -1</clus>
</clustering>
</event>
<event>
 6    0  0.1622933E+002  0.8760371E+02  0.7546771E-02  0.1308761E+00
          2   -1    0    0  505    0 -0.00000000000E+00  0.00000000000E+00  0.18432013471E+04  0.18432013471E+04  0.00000000000E+00 0. -1.
         21   -1    0    0  503  502  0.00000000000E+00 -0.00000000000E+00 -0.19862242801E+03  0.19862242801E+03  0.00000000000E+00 0. -1.
         21    1    1    2  503  504  0.26879032345E+02 -0.18352030711E+02 -0.18116164402E+03  0.18406200226E+03  0.00000000000E+00 0. -1.
         21    1    1    2  504  501  0.61997365453E+02  0.27062992927E+02  0.20234354868E+03  0.21335180009E+03  0.00000000000E+00 0.  1.
         21    1    1    2  505  502 -0.10332804385E+03 -0.46201316922E+02  0.30377862043E+03  0.32418003726E+03  0.00000000000E+00 0. -1.
          2    1    1    2  501    0  0.14451646047E+02  0.37490354706E+02  0.13196183940E+04  0.13202299355E+04  0.00000000000E+00 0. -1.
<scales pt_clust_3="32.54657" pt_clust_4="14000.00000" pt_clust_5="87.60371" pt_clust_6="40.04148"></scales>
<clustering>
<clus scale="   32.547">  2  3  1 -1</clus>
<clus scale="   40.041">  1  6  2 -1</clus>
<clus scale="   87.604">  1  5  2 -1</clus>
<clus scale="   32.547">  2  3  1 -1</clus>
</clustering>
</event>
<event>
 6    0  0.1622933E+002  0.9979042E+02  0.7546771E-02  0.1280737E+00
         21   -1    0    0  505  502  0.00000000000E+00  0.00000000000E+00  0.28029641768E+03  0.28029641768E+03  0.00000000000E+00 0.  1.
          2   -1    0    0  504    0 -0.00000000000E+00 -0.00000000000E+00 -0.29188278155E+04  0.29188278155E+04  0.00000000000E+00 0.  1.
         21    1    1    2  503  501 -0.71873525117E+02  0.18900851685E+02 -0.99841962875E+02  0.12446470728E+03  0.00000000000E+00 0.  1.
         21    1    1    2  504  502  0.81492572862E+02  0.15341376358E+02 -0.59905689738E+03  0.60476901670E+03  0.00000000000E+00 0. -1.
         21    1    1    2  505  503 -0.16346381270E+02  0.57096755482E+02  0.26083845044E+03  0.26751437512E+03  0.00000000000E+00 0.  1.
          2    1    1    2  501    0  0.67273335260E+01 -0.91338983524E+02 -0.22004709880E+04  0.22023761341E+04  0.00000000000E+00 0.  1.
<scales pt_clust_3="14000.00000" pt_clust_4="82.61645" pt_clust_5="59.39060" pt_clust_6="99.79042"></scales>
<clustering>
<clus scale="   59.391">  1  5  2 -1</clus>
<clus scale="   82.616">  2  4  1 -1</clus>
<clus scale="   99.790">  2  6  1 -1</clus>
<clus scale="   59.391">  1  3  2 -1</clus>
</clustering>
</event>
<event>
 6    0  0.1622933E+002  0.1147060E+03  0.7546771E-02  0.1252095E+00
         21   -1    0    0  504  502  0.00000000000E+00  0.00000000000E+00  0.22517126454E+03  0.22517126454E+03  0.00000000000E+00 0.  1.
          1   -1    0    0  505    0 -0.00000000000E+00 -0.00000000000E+00 -0.13109355230E+04  0.13109355230E+04  0.00000000000E+00 0. -1.
         21    1    1    2  503  502  0.98326538554E+02 -0.18347560502E+02  0.19152941035E+03  0.21607465421E+03  0.00000000000E+00 0.  1.
         21    1    1    2  504  501 -0.41450366931E+02 -0.11272280422E+01 -0.44713826247E+03  0.44905682194E+03  0.00000000000E+00 0. -1.
         21    1    1    2  505  503  0.68451364593E+02  0.57191154072E+02 -0.12374340539E+03  0.15254129866E+03  0.00000000000E+00 0.  1.
          1    1    1    2  501    0 -0.12532753622E+03 -0.37716365528E+02 -0.70641200100E+03  0.71843401278E+03  0.00000000000E+00 0. -1.
<scales pt_clust_3="100.62065" pt_clust_4="30.99848" pt_clust_5="89.19875" pt_clust_6="30.99848"></scales>
<clustering>
<clus scale="   30.998">  4  6 -1 -1</clus>
<clus scale="   89.199">  2  5  1 -1</clus>
<clus scale="  100.621">  1  3  2 -1</clus>
<clus scale="  100.621">  1  3  2 -1</clus>
</clustering>
</event>
<event>
 6    0  0.1622933E+002  0.1010199E+03  0.7546771E-02  0.1278166E+00
         21   -1    0    0  504  502  0.00000000000E+00  0.00000000000E+00  0.53062133302E+03  0.53062133302E+03  0.00000000000E+00 0.  1.
          2   -1    0    0  505    0 -0.00000000000E+00 -0.00000000000E+00 -0.34129567018E+03  0.34129567018E+03  0.00000000000E+00 0.  1.
         21    1    1    2  503  502 -0.65674578787E+02  0.61098794164E+02  0.39394045553E+03  0.40402387980E+03  0.00000000000E+00 0.  1.
         21    1    1    2  504  501  0.38031052475E+02 -0.34589991057E+02  0.76711516445E+02  0.92344383636E+02  0.00000000000E+00 0. -1.
         21    1    1    2  505  503  0.10105119126E+03  0.28362154302E+02 -0.26150476311E+03  0.28178093651E+03  0.00000000000E+00 0.  1.
          2    1    1    2  501    0 -0.73407664949E+02 -0.54870957408E+02 -0.19821546020E+02  0.93767803253E+02  0.00000000000E+00 0.  1.
<scales pt_clust_3="43.72739" pt_clust_4="51.40845" pt_clust_5="14000.00000" pt_clust_6="101.01988"></scales>
<clustering>
<clus scale="   51.408">  1  4  2 -1</clus>
<clus scale="   43.727">  1  3  2 -1</clus>
<clus scale="  101.020">  1  6  2 -1</clus>
<clus scale="   51.408">  1  3  2 -1</clus>
</clustering>
</event>
<event>
 6    0  0.1622933E+002  0.9313385E+02  0.7546771E-02  0.1295435E+00
          2   -1    0    0  503    0 -0.00000000000E+00  0.00000000000E+00  0.21821092174E+04  0.21821092174E+04  0.00000000000E+00 0.  1.
         21   -1    0    0  501  502  0.00000000000E+00 -0.00000000000E+00 -0.36804904222E+02  0.36804904222E+02  0.00000000000E+00 0.  1.
         21    1    1    2  503  505 -0.41236258145E+02 -0.27683959406E+02  0.49612821520E+03  0.49860809912E+03  0.00000000000E+00 0.  1.
         21    1    1    2  504  502  0.47119205950E+02 -0.24735314280E+02 -0.60304668621E+01  0.53557649990E+02  0.00000000000E+00 0.  1.
         21    1    1    2  505  504  0.75026728500E+02 -0.81884576776E+01  0.37276686712E+03  0.38033038013E+03  0.00000000000E+00 0. -1.
          2    1    1    2  501    0 -0.80909676305E+02  0.60607731363E+02  0.12824396977E+04  0.12864179923E+04  0.00000000000E+00 0.  1.
<scales pt_clust_3="49.66720" pt_clust_4="52.88715" pt_clust_5="93.13385" pt_clust_6="14000.00000"></scales>
<clustering>
<clus scale="   49.667">  1  3  2 -1</clus>
<clus scale="   52.887">  2  4  1 -1</clus>
<clus scale="   93.134">  2  5  1 -1</clus>
<clus scale="   52.887">  2  3  1 -1</clus>
</clustering>
</event>
<event>
 6    0  0.1622933E+002  0.7337562E+02  0.7546771E-02  0.1348976E+00
          2   -1    0    0  503    0 -0.00000000000E+00  0.00000000000E+00  0.59474943971E+03  0.59474943971E+03  0.00000000000E+00 0. -1.
         21   -1    0    0  501  502  0.00000000000E+00 -0.00000000000E+00 -0.35431443262E+02  0.35431443262E+02  0.00000000000E+00 0. -1.
         21    1    1    2  503  504  0.29456232752E+02 -0.26539805845E+02  0.11465086416E+03  0.12131303143E+03  0.00000000000E+00 0.  1.
         21    1    1    2  504  505 -0.61403869351E+02 -0.15899754405E+02  0.23675706351E+03  0.24510639421E+03  0.00000000000E+00 0. -1.
         21    1    1    2  505  502 -0.34751821649E+02 -0.42044151184E+02  0.74763931036E+02  0.92547529090E+02  0.00000000000E+00 0. -1.
          2    1    1    2  501    0  0.66699458249E+02  0.84483711434E+02  0.13314613775E+03  0.17121392825E+03  0.00000000000E+00 0. -1.
<scales pt_clust_3="39.64885" pt_clust_4="54.98289" pt_clust_5="14000.00000" pt_clust_6="73.37562"></scales>
<clustering>
<clus scale="   39.649">  1  3  2 -1</clus>
<clus scale="   54.983">  1  4  2 -1</clus>
<clus scale="   73.376">  1  6  2 -1</clus>
<clus scale="   73.376">  2  3  1 -1</clus>
</clustering>
</event>
<event>
 6    0  0.1622933E+002  0.7145982E+02  0.7546771E-02  0.1355198E+00
          1   -1    0    0  503    0 -0.00000000000E+00  0.00000000000E+00  0.11292962701E+04  0.11292962701E+04  0.00000000000E+00 0.  1.
         21   -1    0    0  505  502  0.00000000000E+00 -0.00000000000E+00 -0.11220020057E+03  0.11220020057E+03  0.00000000000E+00 0.  1.
         21    1    1    2  503  502 -0.22636891082E+02  0.31822496368E+02 -0.93801453657E+02  0.10160616527E+03  0.00000000000E+00 0.  1.
         21    1    1    2  504  501 -0.11973553543E+02  0.71176037409E+02  0.21221536474E+03  0.22415341915E+03  0.00000000000E+00 0. -1.
         21    1    1    2  505  504  0.57716867101E+02 -0.33513441162E+02  0.15900739459E+03  0.17244633664E+03  0.00000000000E+00 0. -1.
          1    1    1    2  501    0 -0.23106422475E+02 -0.69485092615E+02  0.73967476389E+03  0.74329054964E+03  0.00000000000E+00 0.  1.
<scales pt_clust_3="39.05253" pt_clust_4="71.45982" pt_clust_5="50.81492" pt_clust_6="14000.00000"></scales>
<clustering>
<clus scale="   39.053">  2  3  1 -1</clus>
<clus scale="   50.815">  2  5  1 -1</clus>
<clus scale="   71.460">  2  4  1 -1</clus>
<clus scale="   39.053">  2  3  1 -1</clus>
</clustering>
</event>
<event>
 6    0  0.1622933E+002  0.1227036E+03  0.7546771E-02  0.1238702E+00
          2   -1    0    0  505    0 -0.00000000000E+00  0.00000000000E+00  0.19077678483E+04  0.19077678483E+04  0.00000000000E+00 0. -1.
         21   -1    0    0  503  502  0.00000000000E+00 -0.00000000000E+00 -0.16035080014E+03  0.16035080014E+03  0.00000000000E+00 0.  1.
         21    1    1    2  503  501  0.62680727581E+02 -0.58475234141E+02  0.28592306731E+03  0.29849661144E+03  0.00000000000E+00 0. -1.
         21    1    1    2  504  502 -0.86044234328E+02  0.92142659220E+02 -0.12364523008E+03  0.17658432216E+03  0.00000000000E+00 0.  1.
         21    1    1    2  505  504  0.66936156793E+01  0.40556092464E+02  0.14030511924E+03  0.14620235159E+03  0.00000000000E+00 0.  1.
          2    1    1    2  501    0  0.16669891068E+02 -0.74223517543E+02  0.14448340917E+04  0.14468353632E+04  0.00000000000E+00 0. -1.
<scales pt_clust_3="14000.00000" pt_clust_4="122.70361" pt_clust_5="41.10476" pt_clust_6="46.59586"></scales>
<clustering>
<clus scale="   41.105">  1  5  2 -1</clus>
<clus scale="   46.596">  1  6  2 -1</clus>
<clus scale="  122.704">  2  4  1 -1</clus>
<clus scale="  122.704">  2  3  1 -1</clus>
</clustering>
</event>
<event>
 6    0  0.1926169E+002  0.1028404E+03  0.7546771E-02  0.1274434E+00
         21   -1    0    0  504  502  0.00000000000E+00  0.00000000000E+00  0.74741463103E+03  0.74741463103E+03  0.00000000000E+00 0. -1.
          2   -1    0    0  503    0 -0.00000000000E+00 -0.00000000000E+00 -0.14819165188E+04  0.14819165188E+04  0.00000000000E+00 0. -1.
         21    1    1    2  503  505  0.30741312158E+02 -0.40345021132E+01 -0.42033307320E+02  0.52231258886E+02  0.00000000000E+00 0.  1.
         21    1    1    2  504  501  0.41116591896E+02 -0.55391171400E+02 -0.34948579857E+03  0.35622897047E+03  0.00000000000E+00 0. -1.
         21    1    1    2  505  502 -0.10316859579E+03  0.73952361725E+01  0.73446543404E+03  0.74171283020E+03  0.00000000000E+00 0. -1.
          2    1    1    2  501    0  0.31310691739E+02  0.52030437340E+02 -0.10774482160E+04  0.10791580903E+04  0.00000000000E+00 0. -1.
<scales pt_clust_3="31.00493" pt_clust_4="14000.00000" pt_clust_5="102.84041" pt_clust_6="73.22387"></scales>
<clustering>
<clus scale="   31.005">  2  3  1 -1</clus>
<clus scale="   73.224">  2  6  1 -1</clus>
<clus scale="  102.840">  1  5  2 -1</clus>
<clus scale="  102.840">  1  3  2 -1</clus>
</clustering>
</event>
<event>
 6    0  0.1622933E+002  0.1225148E+03  0.7546771E-02  0.1239005E+00
         21   -1    0    0  503  502  0.00000000000E+00  0.00000000000E+00  0.47393065220E+03  0.47393065220E+03  0.00000000000E+00 0. -1.
          2   -1    0    0  504    0 -0.00000000000E+00 -0.00000000000E+00 -0.54790299107E+03  0.54790299107E+03  0.00000000000E+00 0. -1.
         21    1    1    2  503  501  0.26030413799E+02  0.30173540747E+02  0.41669127286E+03  0.41859245320E+03  0.00000000000E+00 0. -1.
         21    1    1    2  504  505 -0.44543262441E+02  0.47099409177E+02 -0.10667240380E+03  0.12482571172E+03  0.00000000000E+00 0. -1.
         21    1    1    2  505  502 -0.10644383050E+03 -0.98413412075E+02 -0.13069352496E+03  0.19518269953E+03  0.00000000000E+00 0. -1.
          2    1    1    2  501    0  0.12495667914E+03  0.21140462152E+02 -0.25329768297E+03  0.28323277882E+03  0.00000000000E+00 0. -1.
<scales pt_clust_3="39.85003" pt_clust_4="65.78860" pt_clust_5="14000.00000" pt_clust_6="122.51483"></scales>
<clustering>
<clus scale="   39.850">  1  3  2 -1</clus>
<clus scale="   65.789">  2  4  1 -1</clus>
<clus scale="  122.515">  2  6  1 -1</clus>
<clus scale="   39.850">  1  3  2 -1</clus>
</clustering>
</event>
<event>
 6    0  0.1622933E+002  0.1080530E+03  0.7546771E-02  0.1264218E+00
         -3   -1    0    0    0  501 -0.00000000000E+00  0.00000000000E+00  0.10120820564E+04  0.10120820564E+04  0.00000000000E+00 0.  1.
         21   -1    0    0  503  502  0.00000000000E+00 -0.00000000000E+00 -0.98683407093E+03  0.98683407093E+03  0.00000000000E+00 0. -1.
         21    1    1    2  503  505  0.14408762051E+02  0.38474926794E+02 -0.96921769824E+03  0.97008807796E+03  0.00000000000E+00 0. -1.
         21    1    1    2  504  501 -0.29082852041E+02  0.94016181898E+01  0.49647817472E+02  0.58301873787E+02  0.00000000000E+00 0.  1.
         21    1    1    2  505  504 -0.42461598010E+02  0.74880920993E+02  0.39658568631E+03  0.40582058378E+03  0.00000000000E+00 0.  1.
         -3    1    1    2    0  502  0.57135687999E+02 -0.12275746598E+03  0.54823217997E+03  0.56470559183E+03  0.00000000000E+00 0.  1.
<scales pt_clust_3="41.08382" pt_clust_4="30.56473" pt_clust_5="108.05302" pt_clust_6="14000.00000"></scales>
<clustering>
<clus scale="   30.565">  1  4  2 -1</clus>
<clus scale="   41.084">  2  3  1 -1</clus>
<clus scale="  108.053">  1  5  2 -1</clus>
<clus scale="   41.084">  2  3  1 -1</clus>
</clustering>
</event>
<event>
 6    0  0.1947049E+002  0.1985954E+03  0.7546771E-02  0.1150929E+00
         21   -1    0    0  501  502  0.00000000000E+00  0.00000000000E+00  0.50495013712E+03  0.50495013712E+03  0.00000000000E+00 0. -1.
          2   -1    0    0  504    0 -0.00000000000E+00 -0.00000000000E+00 -0.18366331224E+04  0.18366331224E+04  0.00000000000E+00 0.  1.
         21    1    1    2  503  502 -0.19651677247E+03 -0.28103832091E+02  0.46656660635E+03  0.50704345514E+03  0.00000000000E+00 0. -1.
         21    1    1    2  504  505  0.27859150115E+02 -0.23878115592E+02 -0.14814427805E+03  0.15262052211E+03  0.00000000000E+00 0. -1.
         21    1    1    2  505  503 -0.34623046189E+02  0.25894748683E+02 -0.40250404885E+02  0.59071045615E+02  0.00000000000E+00 0.  1.
          2    1    1    2  501    0  0.20328066854E+03  0.26087199000E+02 -0.16098549087E+04  0.16228482367E+04  0.00000000000E+00 0.  1.
<scales pt_clust_3="198.59544" pt_clust_4="36.69192" pt_clust_5="42.15718" pt_clust_6="14000.00000"></scales>
<clustering>
<clus scale="   36.692">  2  4  1 -1</clus>
<clus scale="   42.157">  2  5  1 -1</clus>
<clus scale="  198.595">  1  3  2 -1</clus>
<clus scale="  198.595">  1  3  2 -1</clus>
</clustering>
</event>
<event>
 6    0  0.1622933E+002  0.7178923E+02  0.7546771E-02  0.1354112E+00
         -4   -1    0    0    0  501 -0.00000000000E+00  0.00000000000E+00  0.16565861111E+04  0.16565861111E+04  0.00000000000E+00 0. -1.
         21   -1    0    0  503  502  0.00000000000E+00 -0.00000000000E+00 -0.22787352137E+03  0.22787352137E+03  0.00000000000E+00 0. -1.
         21    1    1    2  503  501  0.39497571337E+02 -0.60007148917E+02  0.30083681422E+03  0.30929549763E+03  0.00000000000E+00 0.  1.
         21    1    1    2  504  502 -0.20631538250E+02 -0.68556330586E+02 -0.21321448343E+03  0.22491342063E+03  0.00000000000E+00 0. -1.
         21    1    1    2  505  504 -0.80416689669E+01  0.96818379976E+02  0.55455251091E+03  0.56299818339E+03  0.00000000000E+00 0. -1.
         -4    1    1    2    0  505 -0.10824364121E+02  0.31745099527E+02  0.78653774805E+03  0.78725253083E+03  0.00000000000E+00 0. -1.
<scales pt_clust_3="60.52259" pt_clust_4="14000.00000" pt_clust_5="71.78923" pt_clust_6="33.53980"></scales>
<clustering>
<clus scale="   33.540">  1  6  2 -1</clus>
<clus scale="   60.523">  1  3  2 -1</clus>
<clus scale="   71.789">  1  5  2 -1</clus>
<clus scale="   71.789">  2  3  1 -1</clus>
</clustering>
</event>
<event>
 6    0  0.1622933E+002  0.1491617E+03  0.7546771E-02  0.1201507E+00
         21   -1    0    0  504  502  0.00000000000E+00  0.00000000000E+00  0.27552191865E+02  0.27552191865E+02  0.00000000000E+00 0.  1.
          2   -1    0    0  503    0 -0.00000000000E+00 -0.00000000000E+00 -0.19525860829E+04  0.19525860829E+04  0.00000000000E+00 0. -1.
         21    1    1    2  503  505 -0.10965914031E+03 -0.39678990140E+02 -0.40619928499E+03  0.42260786604E+03  0.00000000000E+00 0.  1.
         21    1    1    2  504  501  0.43741658621E+02  0.31309225915E+02 -0.67131202699E+03  0.67346376139E+03  0.00000000000E+00 0.  1.
         21    1    1    2  505  502 -0.37275526425E+02 -0.56175752081E+01 -0.85474918457E+01  0.38653352226E+02  0.00000000000E+00 0.  1.
          2    1    1    2  501    0  0.10319300811E+03  0.13987339433E+02 -0.83897508723E+03  0.84541329513E+03  0.00000000000E+00 0. -1.
<scales pt_clust_3="140.96259" pt_clust_4="35.05372" pt_clust_5="37.69645" pt_clust_6="35.05372"></scales>
<clustering>
<clus scale="   35.054">  4  6 -1 -1</clus>
<clus scale="   37.696">  1  5  2 -1</clus>
<clus scale="  140.963">  1  3  2 -1</clus>
<clus scale="   37.696">  1  3  2 -1</clus>
</clustering>
</event>
<event>
 6    0  0.1622933E+002  0.1215854E+03  0.7546771E-02  0.1240504E+00
         21   -1    0    0  505  502  0.00000000000E+00  0.00000000000E+00  0.94859244890E+01  0.94859244890E+01  0.00000000000E+00 0.  1.
          2   -1    0    0  503    0 -0.00000000000E+00 -0.00000000000E+00 -0.21132903594E+04  0.21132903594E+04  0.00000000000E+00 0.  1.
         21    1    1    2  503  504 -0.24190220209E+02  0.69171158850E+02 -0.74543927107E+03  0.74903239104E+03  0.00000000000E+00 0.  1.
         21    1    1    2  504  502 -0.41893010638E+02  0.39983797370E+02 -0.32518788798E+03  0.33030423988E+03  0.00000000000E+00 0.  1.
         21    1    1    2  505  501  0.31527589857E+02 -0.13961822647E+02 -0.12618799043E+03  0.13081410605E+03  0.00000000000E+00 0.  1.
          2    1    1    2  501    0  0.34555640990E+02 -0.95193133573E+02 -0.90698928541E+03  0.91262554690E+03  0.00000000000E+00 0.  1.
<scales pt_clust_3="40.98722" pt_clust_4="40.98722" pt_clust_5="34.48074" pt_clust_6="111.08450"></scales>
<clustering>
<clus scale="   34.481">  1  5  2 -1</clus>
<clus scale="   40.987">  3  4 -1 -1</clus>
<clus scale="  111.084">  2  6  1 -1</clus>
<clus scale="   34.481">  1  3  2 -1</clus>
</clustering>
</event>
<event>
 6    0  0.1622933E+002  0.1052223E+03  0.7546771E-02  0.1269682E+00
         21   -1    0    0  501  502  0.00000000000E+00  0.00000000000E+00  0.10380360712E+03  0.10380360712E+03  0.00000000000E+00 0. -1.
          2   -1    0    0  504    0 -0.00000000000E+00 -0.00000000000E+00 -0.13144915899E+04  0.13144915899E+04  0.00000000000E+00 0.  1.
         21    1    1    2  503  502 -0.43575807440E+02  0.20581434395E+02  0.63500000784E+02  0.79716350490E+02  0.00000000000E+00 0. -1.
         21    1    1    2  504  505  0.25820846930E+02 -0.16621837731E+02 -0.92935899453E+03  0.92986619593E+03  0.00000000000E+00 0.  1.
         21    1    1    2  505  503 -0.67120369377E+02  0.45838829973E+02 -0.44481065372E+02  0.92654775890E+02  0.00000000000E+00 0. -1.
          2    1    1    2  501    0  0.84875329887E+02 -0.49798426638E+02 -0.30034792371E+03  0.31605787475E+03  0.00000000000E+00 0.  1.
<scales pt_clust_3="47.55043" pt_clust_4="30.70833" pt_clust_5="14000.00000" pt_clust_6="105.22228"></scales>
<clustering>
<clus scale="   30.708">  2  4  1 -1</clus>
<clus scale="   47.550">  1  3  2 -1</clus>
<clus scale="  105.222">  2  6  1 -1</clus>
<clus scale="   47.550">  1  3  2 -1</clus>
</clustering>
</event>
<event>
 6    0  0.1622933E+002  0.7919723E+02  0.7546771E-02  0.1331345E+00
         21   -1    0    0  503  502  0.00000000000E+00  0.00000000000E+00  0.23199317073E+03  0.23199317073E+03  0.00000000000E+00 0. -1.
          2   -1    0    0  504    0 -0.00000000000E+00 -0.00000000000E+00 -0.61651299143E+03  0.61651299143E+03  0.00000000000E+00 0. -1.
         21    1    1    2  503  501  0.60556604275E+01 -0.29976817873E+02  0.20477814347E+03  0.20704919386E+03  0.00000000000E+00 0. -1.
         21    1    1    2  504  505  0.96627706154E+02 -0.59177847285E+01 -0.17893134936E+03  0.20344129757E+03  0.00000000000E+00 0. -1.
         21    1    1    2  505  502 -0.51306663307E+02  0.65141804729E+02 -0.15383202847E+03  0.17475732146E+03  0.00000000000E+00 0.  1.
          2    1    1    2  501    0 -0.51376703275E+02 -0.29247202128E+02 -0.25653458634E+03  0.26325834927E+03  0.00000000000E+00 0. -1.
<scales pt_clust_3="30.58236" pt_clust_4="14000.00000" pt_clust_5="79.19723" pt_clust_6="60.46762"></scales>
<clustering>
<clus scale="   30.582">  1  3  2 -1</clus>
<clus scale="   60.468">  2  6  1 -1</clus>
<clus scale="   79.197">  1  5  2 -1</clus>
<clus scale="   30.582">  1  3  2 -1</clus>
</clustering>
</event>
<event>
 6    0  0.1622933E+002  0.9154667E+02  0.7546771E-02  0.1299149E+00
         21   -1    0    0  504  502  0.00000000000E+00  0.00000000000E+00  0.49105116949E+02  0.49105116949E+02  0.00000000000E+00 0. -1.
          2   -1    0    0  505    0 -0.00000000000E+00 -0.00000000000E+00 -0.10685461942E+04  0.10685461942E+04  0.00000000000E+00 0. -1.
         21    1    1    2  503  502 -0.18230268781E+02  0.52817385463E+02 -0.16320691029E+03  0.17250656356E+03  0.00000000000E+00 0. -1.
         21    1    1    2  504  501  0.95539944823E+02 -0.11909246115E+02 -0.14707486439E+02  0.97396208125E+02  0.00000000000E+00 0. -1.
         21    1    1    2  505  503 -0.30908446351E+02  0.10919239376E+02 -0.24689016518E+03  0.24905685195E+03  0.00000000000E+00 0. -1.
          2    1    1    2  501    0 -0.46401229692E+02 -0.51827378723E+02 -0.59463651530E+03  0.59869168746E+03  0.00000000000E+00 0. -1.
<scales pt_clust_3="60.27820" pt_clust_4="91.54667" pt_clust_5="32.78051" pt_clust_6="14000.00000"></scales>
<clustering>
<clus scale="   32.781">  2  5  1 -1</clus>
<clus scale="   60.278">  2  3  1 -1</clus>
<clus scale="   91.547">  1  4  2 -1</clus>
<clus scale="   91.547">  1  3  2 -1</clus>
</clustering>
</event>
<event>
 6    0  0.1622933E+002  0.1218560E+03  0.7546771E-02  0.1240066E+00
          2   -1    0    0  504    0 -0.00000000000E+00  0.00000000000E+00  0.10397168323E+04  0.10397168323E+04  0.00000000000E+00 0.  1.
         21   -1    0    0  505  502  0.00000000000E+00 -0.00000000000E+00 -0.11070257465E+03  0.11070257465E+03  0.00000000000E+00 0. -1.
         21    1    1    2  503  502 -0.91155361488E+01 -0.43303134238E+02  0.52277837965E+02  0.68492530808E+02  0.00000000000E+00 0.  1.
         21    1    1    2  504  503  0.26837482202E+02  0.33707849856E+02  0.13375507818E+03  0.14052362980E+03  0.00000000000E+00 0.  1.
         21    1    1    2  505  501 -0.26595686724E+01 -0.84439784117E+02 -0.77960245758E+02  0.11495629763E+03  0.00000000000E+00 0. -1.
          2    1    1    2  501    0 -0.15062377381E+02  0.94035068500E+02  0.82094158725E+03  0.82644694869E+03  0.00000000000E+00 0.  1.
<scales pt_clust_3="41.69555" pt_clust_4="43.08677" pt_clust_5="14000.00000" pt_clust_6="121.85601"></scales>
<clustering>
<clus scale="   43.087">  1  4  2 -1</clus>
<clus scale="   41.696">  2  3  1 -1</clus>
<clus scale="  121.856">  1  6  2 -1</clus>
<clus scale="   41.696">  2  3  1 -1</clus>
</clustering>
</event>
<event>
 6    0  0.1622933E+002  0.1163980E+03  0.7546771E-02  0.1249160E+00
          1   -1    0    0  503    0 -0.00000000000E+00  0.00000000000E+00  0.66296790786E+03  0.66296790786E+03  0.00000000000E+00 0.  1.
         21   -1    0    0  504  502  0.00000000000E+00 -0.00000000000E+00 -0.17475309577E+03  0.17475309577E+03  0.00000000000E+00 0.  1.
         21    1    1    2  503  502  0.40276459257E+02 -0.58365001511E+01  0.26593180442E+03  0.26902784708E+03  0.00000000000E+00 0.  1.
         21    1    1    2  504  505 -0.41496546517E+02 -0.17113383516E+02 -0.12342518538E+03  0.13133395469E+03  0.00000000000E+00 0.  1.
         21    1    1    2  505  501 -0.81708926242E+02 -0.35743411088E+02  0.13795965342E+02  0.90245602240E+02  0.00000000000E+00 0. -1.
          1    1    1    2  501    0  0.82929013503E+02  0.58693294755E+02  0.33191222771E+03  0.34711359961E+03  0.00000000000E+00 0.  1.
<scales pt_clust_3="40.69715" pt_clust_4="44.53731" pt_clust_5="14000.00000" pt_clust_6="116.39804"></scales>
<clustering>
<clus scale="   40.697">  1  3  2 -1</clus>
<clus scale="   44.537">  2  4  1 -1</clus>
<clus scale="  116.398">  1  6  2 -1</clus>
<clus scale="   44.537">  2  3  1 -1</clus>
</clustering>
</event>
<event>
 6    0  0.1622933E+002  0.1496181E+03  0.7546771E-02  0.1200943E+00
          3   -1    0    0  505    0 -0.00000000000E+00  0.00000000000E+00  0.21150296405E+04  0.21150296405E+04  0.00000000000E+00 0.  1.
         21   -1    0    0  503  502  0.00000000000E+00 -0.00000000000E+00 -0.10621493172E+04  0.10621493172E+04  0.00000000000E+00 0.  1.
         21    1    1    2  503  501  0.42627948670E+02  0.29179368251E+02 -0.10400482112E+04  0.10413303314E+04  0.00000000000E+00 0.  1.
         21    1    1    2  504  502 -0.18642965377E+01 -0.59334573940E+02  0.16754036549E+03  0.17774656491E+03  0.00000000000E+00 0.  1.
         21    1    1    2  505  504  0.11764426762E+03  0.38466411204E+02  0.29361701466E+03  0.31863896465E+03  0.00000000000E+00 0.  1.
          3    1    1    2  501    0 -0.15840791975E+03 -0.83112055145E+01  0.16317711544E+04  0.16394630967E+04  0.00000000000E+00 0.  1.
<scales pt_clust_3="51.65828" pt_clust_4="53.04488" pt_clust_5="14000.00000" pt_clust_6="149.61808"></scales>
<clustering>
<clus scale="   51.658">  2  3  1 -1</clus>
<clus scale="   53.045">  2  4  1 -1</clus>
<clus scale="  149.618">  1  6  2 -1</clus>
<clus scale="   51.658">  2  3  1 -1</clus>
</clustering>
</event>
<event>
 6    0  0.1622933E+002  0.1070312E+03  0.7546771E-02  0.1266168E+00
         -3   -1    0    0    0  501 -0.00000000000E+00  0.00000000000E+00  0.15388937266E+04  0.15388937266E+04  0.00000000000E+00 0.  1.
         21   -1    0    0  505  502  0.00000000000E+00 -0.00000000000E+00 -0.44480430571E+03  0.44480430571E+03  0.00000000000E+00 0. -1.
         21    1    1    2  503  504 -0.80012346106E+02  0.73664594014E+02  0.29440137311E+03  0.31384807859E+03  0.00000000000E+00 0.  1.
         21    1    1    2  504  502  0.74248439620E+02 -0.77042095295E+02 -0.41375537303E+03  0.42736614740E+03  0.00000000000E+00 0. -1.
         21    1    1    2  505  501  0.93472015173E+02 -0.56347321174E+02  0.24458390157E+03  0.26783077331E+03  0.00000000000E+00 0. -1.
         -3    1    1    2    0  503 -0.87708108687E+02  0.59724822455E+02  0.96885951927E+03  0.97465303305E+03  0.00000000000E+00 0.  1.
<scales pt_clust_3="107.03121" pt_clust_4="14000.00000" pt_clust_5="61.33629" pt_clust_6="106.11205"></scales>
<clustering>
<clus scale="  106.112">  1  6  2 -1</clus>
<clus scale="   61.336">  1  5  2 -1</clus>
<clus scale="  107.031">  1  3  2 -1</clus>
<clus scale="  107.031">  2  3  1 -1</clus>
</clustering>
</event>
<event>
 6    0  0.1622933E+002  0.1492558E+03  0.7546771E-02  0.1201391E+00
         -2   -1    0    0    0  501 -0.00000000000E+00  0.00000000000E+00  0.11113280308E+04  0.11113280308E+04  0.00000000000E+00 0. -1.
         21   -1    0    0  505  502  0.00000000000E+00 -0.00000000000E+00 -0.14914560357E+03  0.14914560357E+03  0.00000000000E+00 0. -1.
         21    1    1    2  503  502  0.40069506292E+02 -0.13067186745E+03 -0.99348422109E+02  0.16896985309E+03  0.00000000000E+00 0. -1.
         21    1    1    2  504  503 -0.38256352265E+02  0.96688974560E+02  0.39583194527E+03  0.40926181740E+03  0.00000000000E+00 0. -1.
         21    1    1    2  505  501 -0.10366148788E+02 -0.55128943873E+02  0.18652485379E+03  0.19477725374E+03  0.00000000000E+00 0. -1.
         -2    1    1    2    0  504  0.85529947606E+01  0.89111836762E+02  0.47917405024E+03  0.48746471011E+03  0.00000000000E+00 0. -1.
<scales pt_clust_3="138.55880" pt_clust_4="51.48378" pt_clust_5="56.09508" pt_clust_6="51.48378"></scales>
<clustering>
<clus scale="   51.484">  4  6 -1 -1</clus>
<clus scale="   56.095">  1  5  2 -1</clus>
<clus scale="  138.559">  2  3  1 -1</clus>
<clus scale="  138.559">  2  3  1 -1</clus>
</clustering>
</event>
<event>
 6    0  0.1622933E+002  0.1193517E+03  0.7546771E-02  0.1244170E+00
         21   -1    0    0  505  502  0.00000000000E+00  0.00000000000E+00  0.22419648114E+02  0.22419648114E+02  0.00000000000E+00 0. -1.
          2   -1    0    0  503    0 -0.00000000000E+00 -0.00000000000E+00 -0.19390871507E+04  0.19390871507E+04  0.00000000000E+00 0. -1.
         21    1    1    2  503  504 -0.19832404603E+02  0.28463637616E+02 -0.25175901361E+03  0.25413796228E+03  0.00000000000E+00 0.  1.
         21    1    1    2  504  502  0.71688682677E+02 -0.80938570149E+02 -0.78741338629E+03  0.79480196292E+03  0.00000000000E+00 0. -1.
         21    1    1    2  505  501 -0.14050592639E+03 -0.11887883174E+01 -0.40014824663E+03  0.42410134149E+03  0.00000000000E+00 0. -1.
          2    1    1    2  501    0  0.88649648320E+02  0.53663720850E+02 -0.47734685604E+03  0.48846553210E+03  0.00000000000E+00 0. -1.
<scales pt_clust_3="34.69154" pt_clust_4="91.97448" pt_clust_5="119.35175" pt_clust_6="14000.00000"></scales>
<clustering>
<clus scale="   34.692">  2  3  1 -1</clus>
<clus scale="   91.974">  2  4  1 -1</clus>
<clus scale="  119.352">  1  5  2 -1</clus>
<clus scale="  119.352">  1  3  2 -1</clus>
</clustering>
</event>
<event>
 6    0  0.1622933E+002  0.1488115E+03  0.7546771E-02  0.1201941E+00
         -3   -1    0    0    0  501 -0.00000000000E+00  0.00000000000E+00  0.12889859291E+04  0.12889859291E+04  0.00000000000E+00 0.  1.
         21   -1    0    0  504  502  0.00000000000E+00 -0.00000000000E+00 -0.43126739943E+03  0.43126739943E+03  0.00000000000E+00 0.  1.
         21    1    1    2  503  501  0.39344306889E+02 -0.11209068537E+02  0.14301472709E+03  0.14875089870E+03  0.00000000000E+00 0.  1.
         21    1    1    2  504  503 -0.69369954942E+00  0.13564774177E+03 -0.40171552129E+03  0.42400017819E+03  0.00000000000E+00 0.  1.
         21    1    1    2  505  502 -0.28668669078E+02  0.11081702447E+02  0.93532478823E+01  0.32127557669E+02  0.00000000000E+00 0.  1.
         -3    1    1    2    0  505 -0.99819382616E+01 -0.13552037568E+03  0.11070660760E+04  0.11153746940E+04  0.00000000000E+00 0.  1.
<scales pt_clust_3="40.70080" pt_clust_4="148.81148" pt_clust_5="30.73592" pt_clust_6="14000.00000"></scales>
<clustering>
<clus scale="   30.736">  2  5  1 -1</clus>
<clus scale="   40.701">  1  3  2 -1</clus>
<clus scale="  148.811">  2  4  1 -1</clus>
<clus scale="   30.736">  2  3  1 -1</clus>
</clustering>
</event>
<event>
 6    0  0.1622933E+002  0.8641104E+02  0.7546771E-02  0.1311783E+00
         21   -1    0    0  505  502  0.00000000000E+00  0.00000000000E+00  0.10328345082E+03  0.10328345082E+03  0.00000000000E+00 0. -1.
         -3   -1    0    0    0  501 -0.00000000000E+00 -0.00000000000E+00 -0.31089101655E+04  0.31089101655E+04  0.00000000000E+00 0. -1.
         21    1    1    2  503  504  0.36860505836E+02 -0.51467869671E+02 -0.92804259948E+03  0.93019928239E+03  0.00000000000E+00 0. -1.
         21    1    1    2  504  501 -0.80652636536E+01  0.40707776238E+02 -0.17823734710E+03  0.18300470875E+03  0.00000000000E+00 0.  1.
         21    1    1    2  505  503 -0.84326443770E+02 -0.19942201965E+02  0.80411688615E+02  0.11821455157E+03  0.00000000000E+00 0. -1.
         -3    1    1    2    0  502  0.55531201587E+02  0.30702295398E+02 -0.19797584568E+04  0.19807750737E+04  0.00000000000E+00 0. -1.
<scales pt_clust_3="51.60252" pt_clust_4="41.49905" pt_clust_5="86.41104" pt_clust_6="14000.00000"></scales>
<clustering>
<clus scale="   41.499">  2  4  1 -1</clus>
<clus scale="   51.603">  2  3  1 -1</clus>
<clus scale="   86.411">  1  5  2 -1</clus>
<clus scale="   86.411">  1  3  2 -1</clus>
</clustering>
</event>
<event>
 6    0  0.1622933E+002  0.5620368E+02  0.7546771E-02  0.1414491E+00
          2   -1    0    0  505    0 -0.00000000000E+00  0.00000000000E+00  0.93145950572E+03  0.93145950572E+03  0.00000000000E+00 0.  1.
         21   -1    0    0  501  502  0.00000000000E+00 -0.00000000000E+00 -0.38110825197E+02  0.38110825197E+02  0.00000000000E+00 0.  1.
         21    1    1    2  503  502  0.26890266669E+02 -0.44960491751E+02  0.19372948668E+01  0.52424091517E+02  0.00000000000E+00 0.  1.
         21    1    1    2  504  503  0.48474032243E+02 -0.54584043908E+01  0.16833255261E+03  0.17525802192E+03  0.00000000000E+00 0.  1.
         21    1    1    2  505  504 -0.22172593781E+02 -0.41723391636E+02  0.37352505058E+03  0.37650156538E+03  0.00000000000E+00 0.  1.
          2    1    1    2  501    0 -0.53191705132E+02  0.92142287777E+02  0.34955378246E+03  0.36538665209E+03  0.00000000000E+00 0.  1.
<scales pt_clust_3="56.20368" pt_clust_4="45.48944" pt_clust_5="47.24897" pt_clust_6="14000.00000"></scales>
<clustering>
<clus scale="   47.249">  1  5  2 -1</clus>
<clus scale="   45.489">  1  4  2 -1</clus>
<clus scale="   56.204">  2  3  1 -1</clus>
<clus scale="   56.204">  2  3  1 -1</clus>
</clustering>
</event>
<event>
 6    0  0.1622933E+002  0.1191426E+03  0.7546771E-02  0.1244518E+00
         21   -1    0    0  501  502  0.00000000000E+00  0.00000000000E+00  0.91533577684E+03  0.91533577684E+03  0.00000000000E+00 0. -1.
         -2   -1    0    0    0  501 -0.00000000000E+00 -0.00000000000E+00 -0.17299164113E+04  0.17299164113E+04  0.00000000000E+00 0. -1.
         21    1    1    2  503  504  0.46460016644E+02  0.69995439029E+02 -0.32725418968E+03  0.33786565273E+03  0.00000000000E+00 0. -1.
         21    1    1    2  504  502 -0.82051467348E+02 -0.86977641644E+02  0.90469239088E+03  0.91256006682E+03  0.00000000000E+00 0. -1.
         21    1    1    2  505  503  0.17673570115E+02  0.44089943630E+02 -0.50944555308E+03  0.51165520594E+03  0.00000000000E+00 0. -1.
         -2    1    1    2    0  505  0.17917880589E+02 -0.27107741015E+02 -0.88257328261E+03  0.88317126269E+03  0.00000000000E+00 0. -1.
<scales pt_clust_3="119.14256" pt_clust_4="14000.00000" pt_clust_5="39.75993" pt_clust_6="32.49431"></scales>
<clustering>
<clus scale="   32.494">  2  6  1 -1</clus>
<clus scale="   39.760">  2  5  1 -1</clus>
<clus scale="  119.143">  2  3  1 -1</clus>
<clus scale="  119.143">  1  3  2 -1</clus>
</clustering>
</event>
<event>
 6    0  0.1622933E+002  0.2705872E+03  0.7546771E-02  0.1100944E+00
          2   -1    0    0  503    0 -0.00000000000E+00  0.00000000000E+00  0.96509582367E+03  0.96509582367E+03  0.00000000000E+00 0. -1.
         21   -1    0    0  505  502  0.00000000000E+00 -0.00000000000E+00 -0.23530822820E+04  0.23530822820E+04  0.00000000000E+00 0. -1.
         21    1    1    2  503  504  0.22193218259E+02  0.38115570007E+02  0.14697096990E+03  0.15344641282E+03  0.00000000000E+00 0. -1.
         21    1    1    2  504  502  0.12472850491E+03 -0.24617825851E+03 -0.22881355990E+04  0.23047180856E+04  0.00000000000E+00 0. -1.
         21    1    1    2  505  501  0.20340398738E+02  0.17590330790E+03  0.14632268958E+03  0.22970858721E+03  0.00000000000E+00 0. -1.
          2    1    1    2  501    0 -0.16726212190E+03  0.32159380598E+02  0.60685548119E+03  0.63030502000E+03  0.00000000000E+00 0. -1.
<scales pt_clust_3="44.10596" pt_clust_4="14000.00000" pt_clust_5="270.58722" pt_clust_6="162.34868"></scales>
<clustering>
<clus scale="   44.106">  1  3  2 -1</clus>
<clus scale="  162.349">  1  6  2 -1</clus>
<clus scale="  270.587">  1  5  2 -1</clus>
<clus scale="  270.587">  2  3  1 -1</clus>
</clustering>
</event>
<event>
 6    0  0.1622933E+002  0.2777993E+03  0.7546771E-02  0.1096897E+00
          1   -1    0    0  504    0 -0.00000000000E+00  0.00000000000E+00  0.47760287575E+04  0.47760287575E+04  0.00000000000E+00 0. -1.
         21   -1    0    0  501  502  0.00000000000E+00 -0.00000000000E+00 -0.51567578247E+03  0.51567578247E+03  0.00000000000E+00 0. -1.
         21    1    1    2  503  502 -0.27793335790E+03  0.34585095690E+02 -0.46125487021E+03  0.53962870158E+03  0.00000000000E+00 0. -1.
         21    1    1    2  504  505  0.80640210844E+02 -0.63479057510E+02  0.67822958457E+03  0.68595029247E+03  0.00000000000E+00 0. -1.
         21    1    1    2  505  503  0.12050394590E+03  0.13506615658E+03  0.80508247385E+03  0.82517989392E+03  0.00000000000E+00 0. -1.
          1    1    1    2  501    0  0.76789201155E+02 -0.10617219476E+03  0.32382957868E+04  0.32409456520E+04  0.00000000000E+00 0. -1.
<scales pt_clust_3="14000.00000" pt_clust_4="102.62765" pt_clust_5="183.40394" pt_clust_6="277.79934"></scales>
<clustering>
<clus scale="  102.628">  1  4  2 -1</clus>
<clus scale="  183.404">  1  5  2 -1</clus>
<clus scale="  277.799">  1  6  2 -1</clus>
<clus scale="  277.799">  2  3  1 -1</clus>
</clustering>
</event>
<event>
 6    0  0.1622933E+002  0.1023255E+03  0.7546771E-02  0.1275480E+00
         21   -1    0    0  505  502  0.00000000000E+00  0.00000000000E+00  0.17265005530E+03  0.17265005530E+03  0.00000000000E+00 0.  1.
          2   -1    0    0  504    0 -0.00000000000E+00 -0.00000000000E+00 -0.12316381730E+04  0.12316381730E+04  0.00000000000E+00 0.  1.
         21    1    1    2  503  502  0.52507341387E+02 -0.20053880973E+02 -0.46155827173E+03  0.46496797443E+03  0.00000000000E+00 0.  1.
         21    1    1    2  504  503 -0.35254000723E+02 -0.31002579597E+02 -0.16033787067E+03  0.16706955821E+03  0.00000000000E+00 0.  1.
         21    1    1    2  505  501  0.16035356940E+02  0.10235193172E+03  0.14982573998E+03  0.18215598525E+03  0.00000000000E+00 0.  1.
          2    1    1    2  501    0 -0.33288697603E+02 -0.51295471155E+02 -0.58691771531E+03  0.59009471044E+03  0.00000000000E+00 0.  1.
<scales pt_clust_3="50.07329" pt_clust_4="46.94683" pt_clust_5="102.32552" pt_clust_6="14000.00000"></scales>
<clustering>
<clus scale="   46.947">  2  4  1 -1</clus>
<clus scale="   50.073">  2  3  1 -1</clus>
<clus scale="  102.326">  1  5  2 -1</clus>
<clus scale="  102.326">  1  3  2 -1</clus>
</clustering>
</event>
<event>
 6    0  0.1622933E+002  0.1161925E+03  0.7546771E-02  0.1249514E+00
          2   -1    0    0  505    0 -0.00000000000E+00  0.00000000000E+00  0.68788817378E+03  0.68788817378E+03  0.00000000000E+00 0.  1.
         21   -1    0    0  504  502  0.00000000000E+00 -0.00000000000E+00 -0.15735055716E+03  0.15735055716E+03  0.00000000000E+00 0. -1.
         21    1    1    2  503  501 -0.79786200131E+02  0.38264455735E+02  0.32774469832E+03  0.33947988686E+03  0.00000000000E+00 0.  1.
         21    1    1    2  504  503  0.10435083057E+03 -0.30870833153E+02 -0.11595899986E+03  0.15902387817E+03  0.00000000000E+00 0. -1.
         21    1    1    2  505  502  0.20912098592E+02 -0.60096115242E+02  0.11514114870E+03  0.13155357486E+03  0.00000000000E+00 0.  1.
          2    1    1    2  501    0 -0.45476729028E+02  0.52702492659E+02  0.20361076946E+03  0.21518139105E+03  0.00000000000E+00 0.  1.
<scales pt_clust_3="32.52468" pt_clust_4="110.25416" pt_clust_5="63.63064" pt_clust_6="32.52468"></scales>
<clustering>
<clus scale="   32.525">  3  6 -1 -1</clus>
<clus scale="   63.631">  1  5  2 -1</clus>
<clus scale="  110.254">  2  4  1 -1</clus>
<clus scale="  110.254">  2  3  1 -1</clus>
</clustering>
</event>
<event>
 6    0  0.1622933E+002  0.1158598E+03  0.7546771E-02  0.1250088E+00
          4   -1    0    0  505    0 -0.00000000000E+00  0.00000000000E+00  0.94743070755E+03  0.94743070755E+03  0.00000000000E+00 0.  1.
         21   -1    0    0  501  502  0.00000000000E+00 -0.00000000000E+00 -0.39890898206E+03  0.39890898206E+03  0.00000000000E+00 0.  1.
         21    1    1    2  503  504  0.59703234039E+02  0.62370162059E+02  0.15441469190E+03  0.17691356744E+03  0.00000000000E+00 0.  1.
         21    1    1    2  504  502 -0.69942053686E+02  0.94580070560E+02 -0.36602712808E+03  0.38446474365E+03  0.00000000000E+00 0.  1.
         21    1    1    2  505  503  0.54451330261E+02 -0.59507529886E+02  0.44240072620E+03  0.44969378028E+03  0.00000000000E+00 0. -1.
          4    1    1    2  501    0 -0.44212510614E+02 -0.97442702733E+02  0.31773343548E+03  0.33526759824E+03  0.00000000000E+00 0.  1.
<scales pt_clust_3="88.65915" pt_clust_4="14000.00000" pt_clust_5="80.66036" pt_clust_6="115.85979"></scales>
<clustering>
<clus scale="   80.660">  1  5  2 -1</clus>
<clus scale="   88.659">  1  3  2 -1</clus>
<clus scale="  115.860">  1  6  2 -1</clus>
<clus scale="  115.860">  2  3  1 -1</clus>
</clustering>
</event>
<event>
 6    0  0.1622933E+002  0.8712240E+02  0.7546771E-02  0.1309974E+00
         21   -1    0    0  503  502  0.00000000000E+00  0.00000000000E+00  0.11393985812E+03  0.11393985812E+03  0.00000000000E+00 0.  1.
          1   -1    0    0  504    0 -0.00000000000E+00 -0.00000000000E+00 -0.40101944542E+04  0.40101944542E+04  0.00000000000E+00 0.  1.
         21    1    1    2  503  501  0.47301860214E+02  0.95179329485E+02 -0.18248861393E+04  0.18279786630E+04  0.00000000000E+00 0.  1.
         21    1    1    2  504  505 -0.31710068740E+02 -0.22442746900E+02 -0.12759291681E+03  0.13337600147E+03  0.00000000000E+00 0. -1.
         21    1    1    2  505  502  0.48754321707E+02 -0.36838823514E+02  0.10026111846E+03  0.11741539371E+03  0.00000000000E+00 0.  1.
          1    1    1    2  501    0 -0.64346113182E+02 -0.35897759070E+02 -0.20440366584E+04  0.20453642542E+04  0.00000000000E+00 0.  1.
<scales pt_clust_3="87.12240" pt_clust_4="38.84849" pt_clust_5="61.08118" pt_clust_6="14000.00000"></scales>
<clustering>
<clus scale="   38.848">  2  4  1 -1</clus>
<clus scale="   61.081">  1  5  2 -1</clus>
<clus scale="   87.122">  1  3  2 -1</clus>
<clus scale="   61.081">  1  3  2 -1</clus>
</clustering>
</event>
<event>
 6    0  0.1622933E+002  0.9125336E+02  0.7546771E-02  0.1299845E+00
          1   -1    0    0  503    0 -0.00000000000E+00  0.00000000000E+00  0.13760957150E+04  0.13760957150E+04  0.00000000000E+00 0.  1.
         21   -1    0    0  501  502  0.00000000000E+00 -0.00000000000E+00 -0.39997845376E+02  0.39997845376E+02  0.00000000000E+00 0. -1.
         21    1    1    2  503  504 -0.40255500062E+02 -0.42462189692E+00  0.37651066063E+03  0.37865678808E+03  0.00000000000E+00 0.  1.
         21    1    1    2  504  505  0.24163936414E+02  0.77586221920E+02  0.45297721561E+03  0.46020851309E+03  0.00000000000E+00 0.  1.
         21    1    1    2  505  502 -0.45383571732E+01  0.35270766471E+02 -0.18315310451E+02  0.40000928117E+02  0.00000000000E+00 0. -1.
          1    1    1    2  501    0  0.20629920821E+02 -0.11243236649E+03  0.52492530379E+03  0.53722733105E+03  0.00000000000E+00 0.  1.
<scales pt_clust_3="40.82015" pt_clust_4="91.25336" pt_clust_5="35.56155" pt_clust_6="14000.00000"></scales>
<clustering>
<clus scale="   35.562">  2  5  1 -1</clus>
<clus scale="   40.820">  1  3  2 -1</clus>
<clus scale="   91.253">  1  4  2 -1</clus>
<clus scale="   35.562">  2  3  1 -1</clus>
</clustering>
</event>
<event>
 6    0  0.1622933E+002  0.1369570E+03  0.7546771E-02  0.1217483E+00
         21   -1    0    0  504  502  0.00000000000E+00  0.00000000000E+00  0.15920239624E+03  0.15920239624E+03  0.00000000000E+00 0.  1.
         -2   -1    0    0    0  501 -0.00000000000E+00 -0.00000000000E+00 -0.18368893460E+04  0.18368893460E+04  0.00000000000E+00 0.  1.
         21    1    1    2  503  502 -0.59298968483E+02  0.12286497431E+03  0.99970875684E+02  0.16913410526E+03  0.00000000000E+00 0.  1.
         21    1    1    2  504  505  0.78036499210E+02  0.78087373334E+02 -0.19484633225E+03  0.22394737390E+03  0.00000000000E+00 0.  1.
         21    1    1    2  505  501 -0.37955870208E+02 -0.33371771239E+02 -0.11600093333E+03  0.12653276150E+03  0.00000000000E+00 0. -1.
         -2    1    1    2    0  503  0.19218339480E+02 -0.16758057641E+03 -0.14668105599E+04  0.14764775016E+04  0.00000000000E+00 0.  1.
<scales pt_clust_3="14000.00000" pt_clust_4="104.24125" pt_clust_5="50.54031" pt_clust_6="136.95696"></scales>
<clustering>
<clus scale="   50.540">  2  5  1 -1</clus>
<clus scale="  104.241">  2  4  1 -1</clus>
<clus scale="  136.957">  2  6  1 -1</clus>
<clus scale="  136.957">  1  3  2 -1</clus>
</clustering>
</event>
<event>
 6    0  0.1622933E+002  0.1056370E+03  0.7546771E-02  0.1268870E+00
         -1   -1    0    0    0  501 -0.00000000000E+00  0.00000000000E+00  0.71722021775E+03  0.71722021775E+03  0.00000000000E+00 0. -1.
         21   -1    0    0  504  502  0.00000000000E+00 -0.00000000000E+00 -0.11217761448E+04  0.11217761448E+04  0.00000000000E+00 0. -1.
         21    1    1    2  503  502 -0.30386224675E+02 -0.12036879871E+02 -0.20773197121E+02  0.38726410183E+02  0.00000000000E+00 0.  1.
         21    1    1    2  504  505  0.18967694230E+02 -0.92341111245E+02 -0.10759383244E+04  0.10800601522E+04  0.00000000000E+00 0. -1.
         21    1    1    2  505  501 -0.96121409238E+01 -0.43086319068E+02  0.94993117497E+02  0.10474978050E+03  0.00000000000E+00 0. -1.
         -1    1    1    2    0  503  0.21030671369E+02  0.14746431018E+03  0.59716247702E+03  0.61546001972E+03  0.00000000000E+00 0. -1.
<scales pt_clust_3="32.68347" pt_clust_4="14000.00000" pt_clust_5="44.22769" pt_clust_6="105.63702"></scales>
<clustering>
<clus scale="   32.683">  2  3  1 -1</clus>
<clus scale="   44.228">  1  5  2 -1</clus>
<clus scale="  105.637">  1  6  2 -1</clus>
<clus scale="   32.683">  2  3  1 -1</clus>
</clustering>
</event>
<event>
 6    0  0.1622933E+002  0.3586555E+03  0.7546771E-02  0.1059117E+00
          2   -1    0    0  505    0 -0.00000000000E+00  0.00000000000E+00  0.43454794186E+04  0.43454794186E+04  0.00000000000E+00 0.  1.
         21   -1    0    0  503  502  0.00000000000E+00 -0.00000000000E+00 -0.52670528938E+02  0.52670528938E+02  0.00000000000E+00 0. -1.
         21    1    1    2  503  501 -0.86928223066E+02 -0.68394957202E+02  0.16030406514E+04  0.16068521140E+04  0.00000000000E+00 0.  1.
         21    1    1    2  504  502  0.62608003088E+02  0.26387497376E+02  0.24920193903E+03  0.25829763546E+03  0.00000000000E+00 0. -1.
         21    1    1    2  505  504  0.16653824466E+03  0.21734544321E+03  0.42986815337E+03  0.50966720309E+03  0.00000000000E+00 0. -1.
          2    1    1    2  501    0 -0.14221802468E+03 -0.17533798338E+03  0.20106981459E+04  0.20233329951E+04  0.00000000000E+00 0.  1.
<scales pt_clust_3="59.48390" pt_clust_4="64.41085" pt_clust_5="64.41085" pt_clust_6="345.16059"></scales>
<clustering>
<clus scale="   59.484">  3  6 -1 -1</clus>
<clus scale="   64.411">  4  5 -1 -1</clus>
<clus scale="  345.161">  1  3  2 -1</clus>
<clus scale="  358.656">  2  3  1 -1</clus>
</clustering>
</event>
<event>
 6    0  0.1622933E+002  0.2478211E+03  0.7546771E-02  0.1114690E+00
          1   -1    0    0  503    0 -0.00000000000E+00  0.00000000000E+00  0.14251735923E+04  0.14251735923E+04  0.00000000000E+00 0. -1.
         21   -1    0    0  504  502  0.00000000000E+00 -0.00000000000E+00 -0.14917531024E+03  0.14917531024E+03  0.00000000000E+00 0. -1.
         21    1    1    2  503  505  0.37277369185E+02  0.23866774634E+02  0.12938397683E+03  0.13674589078E+03  0.00000000000E+00 0.  1.
         21    1    1    2  504  501 -0.73935333445E+02  0.23700942482E+03 -0.50469896006E+01  0.24832513583E+03  0.00000000000E+00 0. -1.
         21    1    1    2  505  502 -0.40853833734E+02 -0.29437546529E+02  0.14667178862E+03  0.15507488015E+03  0.00000000000E+00 0. -1.
          1    1    1    2  501    0  0.77511797993E+02 -0.23143865292E+03  0.10049895063E+04  0.10342029958E+04  0.00000000000E+00 0. -1.
<scales pt_clust_3="44.26314" pt_clust_4="14000.00000" pt_clust_5="45.19507" pt_clust_6="247.82113"></scales>
<clustering>
<clus scale="   44.263">  1  3  2 -1</clus>
<clus scale="   45.195">  1  5  2 -1</clus>
<clus scale="  247.821">  1  6  2 -1</clus>
<clus scale="  247.821">  2  3  1 -1</clus>
</clustering>
</event>
<event>
 6    0  0.1622933E+002  0.8868854E+02  0.7546771E-02  0.1306059E+00
         21   -1    0    0  504  502  0.00000000000E+00  0.00000000000E+00  0.45176483950E+02  0.45176483950E+02  0.00000000000E+00 0. -1.
          2   -1    0    0  505    0 -0.00000000000E+00 -0.00000000000E+00 -0.38870806140E+04  0.38870806140E+04  0.00000000000E+00 0. -1.
         21    1    1    2  503  502  0.30037401260E+02 -0.40572310725E+02 -0.46314355651E+02  0.68508228786E+02  0.00000000000E+00 0.  1.
         21    1    1    2  504  501 -0.11195056020E+03  0.71238204597E+01 -0.94765675653E+02  0.14684757413E+03  0.00000000000E+00 0. -1.
         21    1    1    2  505  503  0.78744272654E+00  0.87567107848E+02 -0.33901529522E+04  0.33912837772E+04  0.00000000000E+00 0. -1.
          2    1    1    2  501    0  0.81125716211E+02 -0.54118617583E+02 -0.31067114658E+03  0.32561751783E+03  0.00000000000E+00 0. -1.
<scales pt_clust_3="50.48126" pt_clust_4="88.68854" pt_clust_5="86.90349" pt_clust_6="14000.00000"></scales>
<clustering>
<clus scale="   50.481">  1  3  2 -1</clus>
<clus scale="   86.903">  2  5  1 -1</clus>
<clus scale="   88.689">  1  4  2 -1</clus>
<clus scale="   50.481">  1  3  2 -1</clus>
</clustering>
</event>
<event>
 6    0  0.1622933E+002  0.3124792E+03  0.7546771E-02  0.1079164E+00
          2   -1    0    0  502    0 -0.00000000000E+00  0.00000000000E+00  0.14942669274E+04  0.14942669274E+04  0.00000000000E+00 0. -1.
         21   -1    0    0  503  502  0.00000000000E+00 -0.00000000000E+00 -0.10064364365E+03  0.10064364365E+03  0.00000000000E+00 0. -1.
         21    1    1    2  503  505 -0.58235705356E+02 -0.10822979688E+02  0.10237011513E+03  0.11827161426E+03  0.00000000000E+00 0. -1.
         21    1    1    2  504  501  0.20409361194E+03  0.84682832909E+02  0.65709597635E+03  0.69325356599E+03  0.00000000000E+00 0. -1.
         21    1    1    2  505  504 -0.20721627407E+03 -0.10697172735E+03  0.11581328004E+03  0.26037329073E+03  0.00000000000E+00 0. -1.
          2    1    1    2  501    0  0.61358367492E+02  0.33111874130E+02  0.51834391219E+03  0.52301210003E+03  0.00000000000E+00 0. -1.
<scales pt_clust_3="53.87615" pt_clust_4="64.78859" pt_clust_5="309.46400" pt_clust_6="64.78859"></scales>
<clustering>
<clus scale="   53.876">  3  5 -1 -1</clus>
<clus scale="   64.789">  4  6 -1 -1</clus>
<clus scale="  309.464">  2  3  1 -1</clus>
<clus scale="  309.464">  2  3  1 -1</clus>
</clustering>
</event>
<event>
 6    0  0.1622933E+002  0.1370469E+03  0.7546771E-02  0.1217359E+00
         21   -1    0    0  501  502  0.00000000000E+00  0.00000000000E+00  0.84575132767E+02  0.84575132767E+02  0.00000000000E+00 0.  1.
          2   -1    0    0  504    0 -0.00000000000E+00 -0.00000000000E+00 -0.93662878752E+03  0.93662878752E+03  0.00000000000E+00 0. -1.
         21    1    1    2  503  502  0.10622766398E+03  0.80585648168E+02 -0.18928311104E+02  0.13467235888E+03  0.00000000000E+00 0.  1.
         21    1    1    2  504  505  0.18298750332E+01 -0.44544163887E+02 -0.68341242549E+02  0.81596914232E+02  0.00000000000E+00 0.  1.
         21    1    1    2  505  503  0.39931104430E+02  0.49412711347E+02 -0.99492551930E+02  0.11804608013E+03  0.00000000000E+00 0.  1.
          2    1    1    2  501    0 -0.14798864345E+03 -0.85454195628E+02 -0.66529154917E+03  0.68688856704E+03  0.00000000000E+00 0. -1.
<scales pt_clust_3="137.04686" pt_clust_4="44.58173" pt_clust_5="59.41835" pt_clust_6="14000.00000"></scales>
<clustering>
<clus scale="   44.582">  2  4  1 -1</clus>
<clus scale="   59.418">  2  5  1 -1</clus>
<clus scale="  137.047">  1  3  2 -1</clus>
<clus scale="  137.047">  1  3  2 -1</clus>
</clustering>
</event>
<event>
 6    0  0.1622933E+002  0.4058837E+03  0.7546771E-02  0.1041761E+00
          2   -1    0    0  503    0 -0.00000000000E+00  0.00000000000E+00  0.19249347912E+04  0.19249347912E+04  0.00000000000E+00 0. -1.
         21   -1    0    0  504  502  0.00000000000E+00 -0.00000000000E+00 -0.10004677772E+04  0.10004677772E+04  0.00000000000E+00 0. -1.
         21    1    1    2  503  505  0.19517953681E+03 -0.25757941897E+03 -0.77102207463E+02  0.33224532963E+03  0.00000000000E+00 0. -1.
         21    1    1    2  504  501 -0.12351367988E+03  0.16207566494E+03  0.74058838078E+03  0.76811151536E+03  0.00000000000E+00 0. -1.
         21    1    1    2  505  502  0.54499557757E+02 -0.67542749632E+02 -0.76938151900E+03  0.77426103260E+03  0.00000000000E+00 0. -1.
          2    1    1    2  501    0 -0.12616541469E+03  0.16304650366E+03  0.10303623597E+04  0.10507846908E+04  0.00000000000E+00 0. -1.
<scales pt_clust_3="400.83504" pt_clust_4="63.44833" pt_clust_5="86.78839" pt_clust_6="63.44833"></scales>
<clustering>
<clus scale="   63.448">  4  6 -1 -1</clus>
<clus scale="   86.788">  2  5  1 -1</clus>
<clus scale="  400.835">  2  3  1 -1</clus>
<clus scale="   86.788">  2  3  1 -1</clus>
</clustering>
</event>
<event>
 6    0  0.1622933E+002  0.8904386E+02  0.7546771E-02  0.1305184E+00
         21   -1    0    0  503  502  0.00000000000E+00  0.00000000000E+00  0.24049062911E+03  0.24049062911E+03  0.00000000000E+00 0.  1.
          3   -1    0    0  504    0 -0.00000000000E+00 -0.00000000000E+00 -0.38183510076E+03  0.38183510076E+03  0.00000000000E+00 0.  1.
         21    1    1    2  503  501  0.12225229553E+02  0.91318185888E+02  0.19387246955E+03  0.21465088344E+03  0.00000000000E+00 0.  1.
         21    1    1    2  504  505 -0.50576608412E+01  0.34914794627E+02 -0.30945076235E+02  0.46927822880E+02  0.00000000000E+00 0. -1.
         21    1    1    2  505  502 -0.64353386921E+02 -0.52492699450E+02 -0.70137649425E+02  0.10870203204E+03  0.00000000000E+00 0.  1.
          3    1    1    2  501    0  0.57185818209E+02 -0.73740281066E+02 -0.23413421554E+03  0.25204499150E+03  0.00000000000E+00 0.  1.
<scales pt_clust_3="14000.00000" pt_clust_4="35.27921" pt_clust_5="89.04386" pt_clust_6="72.61437"></scales>
<clustering>
<clus scale="   35.279">  2  4  1 -1</clus>
<clus scale="   72.614">  2  6  1 -1</clus>
<clus scale="   89.044">  2  5  1 -1</clus>
<clus scale="   89.044">  1  3  2 -1</clus>
</clustering>
</event>
<event>
 6    0  0.1622933E+002  0.1231482E+03  0.7546771E-02  0.1237992E+00
         -1   -1    0    0    0  501 -0.00000000000E+00  0.00000000000E+00  0.44036964400E+03  0.44036964400E+03  0.00000000000E+00 0. -1.
         21   -1    0    0  504  502  0.00000000000E+00 -0.00000000000E+00 -0.12415515943E+03  0.12415515943E+03  0.00000000000E+00 0.  1.
         21    1    1    2  503  505  0.92421414844E+01 -0.40119595394E+02  0.24584597865E+02  0.47952075722E+02  0.00000000000E+00 0. -1.
         21    1    1    2  504  501 -0.48211647808E+02 -0.10277701436E+01 -0.44170694708E+02  0.65394721246E+02  0.00000000000E+00 0.  1.
         21    1    1    2  505  502  0.28918391757E+02 -0.73062350679E+02 -0.16845389563E+02  0.80362600866E+02  0.00000000000E+00 0.  1.
         -1    1    1    2    0  503  0.10051114567E+02  0.11420971622E+03  0.35264597097E+03  0.37081540560E+03  0.00000000000E+00 0. -1.
<scales pt_clust_3="33.47238" pt_clust_4="48.22260" pt_clust_5="33.47238" pt_clust_6="114.13634"></scales>
<clustering>
<clus scale="   33.472">  3  5 -1 -1</clus>
<clus scale="   48.223">  2  4  1 -1</clus>
<clus scale="  114.136">  1  6  2 -1</clus>
<clus scale="   48.223">  2  3  1 -1</clus>
</clustering>
</event>
<event>
 6    0  0.1622933E+002  0.1023098E+03  0.7546771E-02  0.1275512E+00
         21   -1    0    0  505  502  0.00000000000E+00  0.00000000000E+00  0.16269625870E+03  0.16269625870E+03  0.00000000000E+00 0.  1.
          1   -1    0    0  504    0 -0.00000000000E+00 -0.00000000000E+00 -0.86940722394E+03  0.86940722394E+03  0.00000000000E+00 0. -1.
         21    1    1    2  503  502  0.61260326661E+02  0.42116100684E+02  0.12853301327E+03  0.14848343025E+03  0.00000000000E+00 0.  1.
         21    1    1    2  504  503  0.71650532896E+02  0.25034189496E+02 -0.15392501495E+03  0.17161998641E+03  0.00000000000E+00 0. -1.
         21    1    1    2  505  501 -0.34919643498E+02  0.13815192221E+01 -0.20639991320E+02  0.40586935572E+02  0.00000000000E+00 0.  1.
          1    1    1    2  501    0 -0.97991216059E+02 -0.68531809402E+02 -0.66067897224E+03  0.67141313041E+03  0.00000000000E+00 0. -1.
<scales pt_clust_3="52.50228" pt_clust_4="14000.00000" pt_clust_5="34.94696" pt_clust_6="102.30976"></scales>
<clustering>
<clus scale="   34.947">  1  5  2 -1</clus>
<clus scale="   52.502">  1  3  2 -1</clus>
<clus scale="  102.310">  2  6  1 -1</clus>
<clus scale="   34.947">  1  3  2 -1</clus>
</clustering>
</event>
<event>
 6    0  0.1622933E+002  0.9243409E+02  0.7546771E-02  0.1297062E+00
         21   -1    0    0  501  502  0.00000000000E+00  0.00000000000E+00  0.17298883188E+03  0.17298883188E+03  0.00000000000E+00 0.  1.
          1   -1    0    0  503    0 -0.00000000000E+00 -0.00000000000E+00 -0.20151684377E+04  0.20151684377E+04  0.00000000000E+00 0.  1.
         21    1    1    2  503  505 -0.37346820906E+02  0.20027328702E+01 -0.95177463325E+03  0.95250918550E+03  0.00000000000E+00 0. -1.
         21    1    1    2  504  502 -0.40703257933E+02  0.83629736770E+02  0.15330514810E+03  0.17931301267E+03  0.00000000000E+00 0.  1.
         21    1    1    2  505  504  0.74772943313E+02 -0.21000958508E+02 -0.30271639078E+03  0.31252079380E+03  0.00000000000E+00 0.  1.
          1    1    1    2  501    0  0.32771355254E+01 -0.64631511132E+02 -0.74099372985E+03  0.74381427758E+03  0.00000000000E+00 0.  1.
<scales pt_clust_3="37.40048" pt_clust_4="92.43409" pt_clust_5="67.14627" pt_clust_6="14000.00000"></scales>
<clustering>
<clus scale="   37.400">  2  3  1 -1</clus>
<clus scale="   67.146">  2  5  1 -1</clus>
<clus scale="   92.434">  1  4  2 -1</clus>
<clus scale="   92.434">  1  3  2 -1</clus>
</clustering>
</event>
<event>
 6    0  0.1622933E+002  0.2492505E+03  0.7546771E-02  0.1113779E+00
         21   -1    0    0  501  502  0.00000000000E+00  0.00000000000E+00  0.11035316334E+03  0.11035316334E+03  0.00000000000E+00 0.  1.
          2   -1    0    0  504    0 -0.00000000000E+00 -0.00000000000E+00 -0.22013735795E+04  0.22013735795E+04  0.00000000000E+00 0. -1.
         21    1    1    2  503  502 -0.50490752805E+02 -0.26675600109E+02  0.39019482877E+02  0.69162300454E+02  0.00000000000E+00 0.  1.
         21    1    1    2  504  505 -0.59226480980E+02  0.10911896109E+02 -0.44828529535E+03  0.45231244903E+03  0.00000000000E+00 0. -1.
         21    1    1    2  505  503 -0.15855950367E+03 -0.12233034304E+03 -0.21924528695E+03  0.29694161864E+03  0.00000000000E+00 0.  1.
          2    1    1    2  501    0  0.26827673745E+03  0.13809404704E+03 -0.14625093167E+04  0.14933103747E+04  0.00000000000E+00 0. -1.
<scales pt_clust_3="57.10432" pt_clust_4="61.84039" pt_clust_5="249.25055" pt_clust_6="14000.00000"></scales>
<clustering>
<clus scale="   57.104">  1  3  2 -1</clus>
<clus scale="   61.840">  2  4  1 -1</clus>
<clus scale="  249.251">  1  5  2 -1</clus>
<clus scale="   57.104">  1  3  2 -1</clus>
</clustering>
</event>
<event>
 6    0  0.1622933E+002  0.1065594E+03  0.7546771E-02  0.1267077E+00
          1   -1    0    0  502    0 -0.00000000000E+00  0.00000000000E+00  0.10408786123E+04  0.10408786123E+04  0.00000000000E+00 0. -1.
         21   -1    0    0  505  502  0.00000000000E+00 -0.00000000000E+00 -0.41767144359E+02  0.41767144359E+02  0.00000000000E+00 0.  1.
         21    1    1    2  503  504  0.56109552384E+02  0.53028167772E+01  0.18567034468E+03  0.19403576637E+03  0.00000000000E+00 0. -1.
         21    1    1    2  504  501  0.59350505708E+02 -0.11758225420E+02  0.10833408529E+03  0.12408469860E+03  0.00000000000E+00 0. -1.
         21    1    1    2  505  503 -0.22775121107E+02  0.35164009992E+02 -0.98308058113E+01  0.43033225338E+02  0.00000000000E+00 0.  1.
          1    1    1    2  501    0 -0.92684936985E+02 -0.28708601349E+02  0.71493784380E+03  0.72149206637E+03  0.00000000000E+00 0. -1.
<scales pt_clust_3="35.97444" pt_clust_4="35.97444" pt_clust_5="41.89527" pt_clust_6="99.82773"></scales>
<clustering>
<clus scale="   35.974">  3  4 -1 -1</clus>
<clus scale="   41.895">  2  5  1 -1</clus>
<clus scale="   99.828">  1  6  2 -1</clus>
<clus scale="   41.895">  2  3  1 -1</clus>
</clustering>
</event>
<event>
 6    0  0.1622933E+002  0.1791137E+03  0.7546771E-02  0.1168664E+00
         21   -1    0    0  503  502  0.00000000000E+00  0.00000000000E+00  0.29659079449E+03  0.29659079449E+03  0.00000000000E+00 0.  1.
          2   -1    0    0  505    0 -0.00000000000E+00 -0.00000000000E+00 -0.79076157433E+03  0.79076157433E+03  0.00000000000E+00 0. -1.
         21    1    1    2  503  501  0.10620398348E+03 -0.46487416776E+01 -0.33269406241E+03  0.34926528037E+03  0.00000000000E+00 0. -1.
         21    1    1    2  504  502 -0.60194056389E+02 -0.37779551488E+02  0.10792930099E+02  0.71882586733E+02  0.00000000000E+00 0.  1.
         21    1    1    2  505  504 -0.11289041739E+03  0.44749124723E+02  0.22909994866E+03  0.25929426716E+03  0.00000000000E+00 0.  1.
          2    1    1    2  501    0  0.66880490308E+02 -0.23208315570E+01 -0.40136959619E+03  0.40691023456E+03  0.00000000000E+00 0. -1.
<scales pt_clust_3="43.05816" pt_clust_4="71.06771" pt_clust_5="170.69433" pt_clust_6="43.05816"></scales>
<clustering>
<clus scale="   43.058">  3  6 -1 -1</clus>
<clus scale="   71.068">  1  4  2 -1</clus>
<clus scale="  170.694">  1  5  2 -1</clus>
<clus scale="   71.068">  1  3  2 -1</clus>
</clustering>
</event>
<event>
 6    0  0.1622933E+002  0.1176606E+03  0.7546771E-02  0.1247007E+00
          3   -1    0    0  503    0 -0.00000000000E+00  0.00000000000E+00  0.11846767850E+04  0.11846767850E+04  0.00000000000E+00 0. -1.
         21   -1    0    0  505  502  0.00000000000E+00 -0.00000000000E+00 -0.25681619472E+02  0.25681619472E+02  0.00000000000E+00 0. -1.
         21    1    1    2  503  504  0.73211544133E+02 -0.26150760304E+02  0.25546502126E+03  0.26703215077E+03  0.00000000000E+00 0. -1.
         21    1    1    2  504  502  0.61256613351E+02  0.14138522495E+02  0.58482226562E+02  0.85862921690E+02  0.00000000000E+00 0. -1.
         21    1    1    2  505  501 -0.43474149620E+02  0.19883119444E+02  0.42008861288E+03  0.42279993235E+03  0.00000000000E+00 0. -1.
          3    1    1    2  501    0 -0.90994007864E+02 -0.78708816354E+01  0.42495930479E+03  0.43466339963E+03  0.00000000000E+00 0. -1.
<scales pt_clust_3="104.55911" pt_clust_4="62.86709" pt_clust_5="39.03671" pt_clust_6="39.03671"></scales>
<clustering>
<clus scale="   39.037">  5  6 -1 -1</clus>
<clus scale="   62.867">  2  4  1 -1</clus>
<clus scale="  104.559">  2  3  1 -1</clus>
<clus scale="   62.867">  2  3  1 -1</clus>
</clustering>
</event>
<event>
 6    0  0.1622933E+002  0.1131539E+03  0.7546771E-02  0.1254838E+00
          2   -1    0    0  504    0 -0.00000000000E+00  0.00000000000E+00  0.25948743588E+04  0.25948743588E+04  0.00000000000E+00 0. -1.
         21   -1    0    0  505  502  0.00000000000E+00 -0.00000000000E+00 -0.12606874418E+03  0.12606874418E+03  0.00000000000E+00 0. -1.
         21    1    1    2  503  502 -0.11368103040E+03  0.79556237911E+02  0.54305826482E+03  0.56050410404E+03  0.00000000000E+00 0. -1.
         21    1    1    2  504  503 -0.80177544918E+01 -0.58700144154E+02  0.29435915475E+03  0.30026205771E+03  0.00000000000E+00 0. -1.
         21    1    1    2  505  501  0.86426634142E+02  0.48026764887E+02 -0.91997634874E+02  0.13505442628E+03  0.00000000000E+00 0. -1.
          2    1    1    2  501    0  0.35272150754E+02 -0.68882858645E+02  0.17233858299E+04  0.17251225149E+04  0.00000000000E+00 0. -1.
<scales pt_clust_3="14000.00000" pt_clust_4="59.24518" pt_clust_5="98.54250" pt_clust_6="113.15392"></scales>
<clustering>
<clus scale="   59.245">  1  4  2 -1</clus>
<clus scale="   98.542">  2  5  1 -1</clus>
<clus scale="  113.154">  1  6  2 -1</clus>
<clus scale="   98.542">  2  3  1 -1</clus>
</clustering>
</event>
<event>
 6    0  0.1622933E+002  0.1201317E+03  0.7546771E-02  0.1242880E+00
         21   -1    0    0  503  502  0.00000000000E+00  0.00000000000E+00  0.13591786513E+04  0.13591786513E+04  0.00000000000E+00 0. -1.
         -2   -1    0    0    0  501 -0.00000000000E+00 -0.00000000000E+00 -0.15482086131E+03  0.15482086131E+03  0.00000000000E+00 0. -1.
         21    1    1    2  503  505 -0.57069677073E+02  0.14298411276E+01  0.11919500942E+04  0.11933163954E+04  0.00000000000E+00 0. -1.
         21    1    1    2  504  501 -0.14940214671E+02  0.32681116419E+02 -0.41971629265E+02  0.55252900811E+02  0.00000000000E+00 0.  1.
         21    1    1    2  505  504  0.66825040864E+02  0.93070695292E+02 -0.22447642051E+02  0.11675460180E+03  0.00000000000E+00 0. -1.
         -2    1    1    2    0  502  0.51848508803E+01 -0.12718165284E+03  0.76826967089E+02  0.14867561458E+03  0.00000000000E+00 0. -1.
<scales pt_clust_3="57.18930" pt_clust_4="35.93418" pt_clust_5="14000.00000" pt_clust_6="120.13170"></scales>
<clustering>
<clus scale="   35.934">  2  4  1 -1</clus>
<clus scale="   57.189">  1  3  2 -1</clus>
<clus scale="  120.132">  1  6  2 -1</clus>
<clus scale="   57.189">  1  3  2 -1</clus>
</clustering>
</event>
<event>
 6    0  0.1622933E+002  0.1166336E+03  0.7546771E-02  0.1248756E+00
          2   -1    0    0  503    0 -0.00000000000E+00  0.00000000000E+00  0.13877618890E+04  0.13877618890E+04  0.00000000000E+00 0. -1.
         21   -1    0    0  501  502  0.00000000000E+00 -0.00000000000E+00 -0.10020911438E+03  0.10020911438E+03  0.00000000000E+00 0. -1.
         21    1    1    2  503  504 -0.22688435073E+02  0.42830449575E+02  0.49226084024E+03  0.49464123092E+03  0.00000000000E+00 0. -1.
         21    1    1    2  504  505  0.53015786403E+00  0.51612856858E+02  0.27845324511E+03  0.28319671215E+03  0.00000000000E+00 0. -1.
         21    1    1    2  505  502 -0.25777320866E+02  0.34072984983E+02 -0.83783046620E+02  0.94048059404E+02  0.00000000000E+00 0. -1.
          2    1    1    2  501    0  0.47935598075E+02 -0.12851629142E+03  0.60062173591E+03  0.61608500093E+03  0.00000000000E+00 0. -1.
<scales pt_clust_3="39.01665" pt_clust_4="39.01665" pt_clust_5="42.72515" pt_clust_6="109.46353"></scales>
<clustering>
<clus scale="   39.017">  3  4 -1 -1</clus>
<clus scale="   42.725">  2  5  1 -1</clus>
<clus scale="  109.464">  2  6  1 -1</clus>
<clus scale="   42.725">  2  3  1 -1</clus>
</clustering>
</event>
<event>
 6    0  0.1622933E+002  0.8369480E+02  0.7546771E-02  0.1318881E+00
         21   -1    0    0  501  502  0.00000000000E+00  0.00000000000E+00  0.77151431233E+03  0.77151431233E+03  0.00000000000E+00 0.  1.
          2   -1    0    0  504    0 -0.00000000000E+00 -0.00000000000E+00 -0.32358746595E+03  0.32358746595E+03  0.00000000000E+00 0. -1.
         21    1    1    2  503  505  0.14486322292E+02 -0.52373862788E+02 -0.27706914746E+02  0.60996296295E+02  0.00000000000E+00 0. -1.
         21    1    1    2  504  503 -0.34362351947E+02  0.29046825411E+02 -0.24500748684E+03  0.24910471274E+03  0.00000000000E+00 0.  1.
         21    1    1    2  505  502 -0.59591606354E+02 -0.55276555332E+02  0.64485091836E+03  0.64995335527E+03  0.00000000000E+00 0.  1.
          2    1    1    2  501    0  0.79467636010E+02  0.78603592710E+02  0.75790329611E+02  0.13504741398E+03  0.00000000000E+00 0. -1.
<scales pt_clust_3="35.95261" pt_clust_4="44.99433" pt_clust_5="83.69480" pt_clust_6="14000.00000"></scales>
<clustering>
<clus scale="   44.994">  2  4  1 -1</clus>
<clus scale="   35.953">  2  3  1 -1</clus>
<clus scale="   83.695">  1  5  2 -1</clus>
<clus scale="   83.695">  1  3  2 -1</clus>
</clustering>
</event>
<event>
 6    0  0.1622933E+002  0.1614244E+03  0.7546771E-02  0.1187098E+00
         21   -1    0    0  501  502  0.00000000000E+00  0.00000000000E+00  0.11539250654E+04  0.11539250654E+04  0.00000000000E+00 0. -1.
          2   -1    0    0  503    0 -0.00000000000E+00 -0.00000000000E+00 -0.13263498842E+04  0.13263498842E+04  0.00000000000E+00 0. -1.
         21    1    1    2  503  504  0.16850049952E+02 -0.53235538242E+02 -0.11584497647E+02  0.57027601221E+02  0.00000000000E+00 0. -1.
         21    1    1    2  504  505 -0.10352635048E+03  0.59484091755E+02 -0.20954889588E+03  0.24117794713E+03  0.00000000000E+00 0. -1.
         21    1    1    2  505  502 -0.37680654600E+02  0.15681503245E+03  0.10995957149E+04  0.11113602127E+04  0.00000000000E+00 0. -1.
          2    1    1    2  501    0  0.12435695513E+03 -0.16306358597E+03 -0.10508871401E+04  0.10707091886E+04  0.00000000000E+00 0. -1.
<scales pt_clust_3="55.83858" pt_clust_4="112.41751" pt_clust_5="14000.00000" pt_clust_6="161.42442"></scales>
<clustering>
<clus scale="   55.839">  2  3  1 -1</clus>
<clus scale="  112.418">  2  4  1 -1</clus>
<clus scale="  161.424">  2  6  1 -1</clus>
<clus scale="  161.424">  1  3  2 -1</clus>
</clustering>
</event>
<event>
 6    0  0.1622933E+002  0.8816273E+02  0.7546771E-02  0.1307363E+00
          1   -1    0    0  505    0 -0.00000000000E+00  0.00000000000E+00  0.19390224964E+04  0.19390224964E+04  0.00000000000E+00 0. -1.
         21   -1    0    0  504  502  0.00000000000E+00 -0.00000000000E+00 -0.32828661364E+02  0.32828661364E+02  0.00000000000E+00 0. -1.
         21    1    1    2  503  502  0.43289975141E+02  0.19433404529E+02  0.22126779283E+03  0.22629873023E+03  0.00000000000E+00 0. -1.
         21    1    1    2  504  501 -0.86331782481E+02  0.20990014967E+02  0.44367312645E+02  0.99308689579E+02  0.00000000000E+00 0. -1.
         21    1    1    2  505  503 -0.32329295419E+02 -0.31915119462E+02  0.28809430646E+03  0.29165405468E+03  0.00000000000E+00 0.  1.
          1    1    1    2  501    0  0.75371102758E+02 -0.85083000348E+01  0.13524644231E+04  0.13545896833E+04  0.00000000000E+00 0. -1.
<scales pt_clust_3="41.73169" pt_clust_4="14000.00000" pt_clust_5="45.42861" pt_clust_6="88.16273"></scales>
<clustering>
<clus scale="   45.429">  1  5  2 -1</clus>
<clus scale="   41.732">  1  3  2 -1</clus>
<clus scale="   88.163">  1  6  2 -1</clus>
<clus scale="   88.163">  2  3  1 -1</clus>
</clustering>
</event>
<event>
 6    0  0.1622933E+002  0.9990110E+02  0.7546771E-02  0.1280504E+00
          2   -1    0    0  503    0 -0.00000000000E+00  0.00000000000E+00  0.61086352974E+03  0.61086352974E+03  0.00000000000E+00 0. -1.
         21   -1    0    0  505  502  0.00000000000E+00 -0.00000000000E+00 -0.22266082631E+03  0.22266082631E+03  0.00000000000E+00 0. -1.
         21    1    1    2  503  504  0.18732037818E+02  0.38171889571E+02  0.14477181427E+03  0.15088691329E+03  0.00000000000E+00 0. -1.
         21    1    1    2  504  502 -0.29147285242E+02 -0.60023167331E+02 -0.18844948568E+03  0.19991386522E+03  0.00000000000E+00 0. -1.
         21    1    1    2  505  501  0.69865203553E+02 -0.54161571094E+02  0.84873146714E+02  0.12254824962E+03  0.00000000000E+00 0. -1.
          2    1    1    2  501    0 -0.59449956129E+02  0.76012848853E+02  0.34700722812E+03  0.36017532792E+03  0.00000000000E+00 0. -1.
<scales pt_clust_3="42.52038" pt_clust_4="66.19951" pt_clust_5="99.90110" pt_clust_6="14000.00000"></scales>
<clustering>
<clus scale="   42.520">  1  3  2 -1</clus>
<clus scale="   66.200">  2  4  1 -1</clus>
<clus scale="   99.901">  2  5  1 -1</clus>
<clus scale="   66.200">  2  3  1 -1</clus>
</clustering>
</event>
<event>
 6    0  0.1622933E+002  0.8473538E+02  0.7546771E-02  0.1316126E+00
          2   -1    0    0  504    0 -0.00000000000E+00  0.00000000000E+00  0.25495305332E+03  0.25495305332E+03  0.00000000000E+00 0.  1.
         21   -1    0    0  503  502  0.00000000000E+00 -0.00000000000E+00 -0.24045890882E+04  0.24045890882E+04  0.00000000000E+00 0. -1.
         21    1    1    2  503  501  0.82138324736E+02 -0.20695483092E+02 -0.23270739303E+04  0.23286150572E+04  0.00000000000E+00 0. -1.
         21    1    1    2  504  505  0.35055524991E+02  0.27705940797E+02  0.41419746731E+02  0.60927041674E+02  0.00000000000E+00 0. -1.
         21    1    1    2  505  502 -0.32672720337E+02 -0.48201547039E+02 -0.39859738114E+02  0.70566950577E+02  0.00000000000E+00 0.  1.
          2    1    1    2  501    0 -0.84521129390E+02  0.41191089333E+02  0.17587788680E+03  0.19943309209E+03  0.00000000000E+00 0.  1.
<scales pt_clust_3="14000.00000" pt_clust_4="44.68231" pt_clust_5="55.03088" pt_clust_6="84.73538"></scales>
<clustering>
<clus scale="   44.682">  1  4  2 -1</clus>
<clus scale="   55.031">  1  5  2 -1</clus>
<clus scale="   84.735">  1  6  2 -1</clus>
<clus scale="   84.735">  2  3  1 -1</clus>
</clustering>
</event>
<event>
 6    0  0.1622933E+002  0.1951811E+03  0.7546771E-02  0.1153870E+00
          1   -1    0    0  503    0 -0.00000000000E+00  0.00000000000E+00  0.33709975172E+04  0.33709975172E+04  0.00000000000E+00 0. -1.
         21   -1    0    0  504  502  0.00000000000E+00 -0.00000000000E+00 -0.13071652996E+02  0.13071652996E+02  0.00000000000E+00 0. -1.
         21    1    1    2  503  505 -0.36206506161E+02 -0.61320110669E+01  0.34217954517E+03  0.34414437927E+03  0.00000000000E+00 0. -1.
         21    1    1    2  504  501  0.15612878128E+02  0.78970284442E+02  0.41407741470E+03  0.42182955463E+03  0.00000000000E+00 0. -1.
         21    1    1    2  505  502  0.88861612483E+01 -0.18203017566E+03  0.15309341562E+04  0.15417436036E+04  0.00000000000E+00 0. -1.
          1    1    1    2  501    0  0.11707466784E+02  0.10919190229E+03  0.10707347481E+04  0.10763516326E+04  0.00000000000E+00 0. -1.
<scales pt_clust_3="36.72210" pt_clust_4="52.40750" pt_clust_5="185.38440" pt_clust_6="52.40750"></scales>
<clustering>
<clus scale="   36.722">  1  3  2 -1</clus>
<clus scale="   52.408">  4  6 -1 -1</clus>
<clus scale="  185.384">  1  5  2 -1</clus>
<clus scale="  195.181">  2  3  1 -1</clus>
</clustering>
</event>
<event>
 6    0  0.1622933E+002  0.1069514E+03  0.7546771E-02  0.1266322E+00
          2   -1    0    0  503    0 -0.00000000000E+00  0.00000000000E+00  0.33394099218E+03  0.33394099218E+03  0.00000000000E+00 0.  1.
         21   -1    0    0  505  502  0.00000000000E+00 -0.00000000000E+00 -0.96041427210E+03  0.96041427210E+03  0.00000000000E+00 0.  1.
         21    1    1    2  503  504 -0.12974589582E+02  0.32144507935E+02 -0.55266521533E+01  0.35102040528E+02  0.00000000000E+00 0. -1.
         21    1    1    2  504  502 -0.83008372724E+02  0.50931525629E+02 -0.92330543990E+03  0.92842735074E+03  0.00000000000E+00 0.  1.
         21    1    1    2  505  501  0.48255636558E+02 -0.66237809267E+02  0.21150162215E+03  0.22682369807E+03  0.00000000000E+00 0.  1.
          2    1    1    2  501    0  0.47727325749E+02 -0.16838224297E+02  0.90857189986E+02  0.10400217494E+03  0.00000000000E+00 0.  1.
<scales pt_clust_3="34.66424" pt_clust_4="97.61171" pt_clust_5="34.34955" pt_clust_6="34.34955"></scales>
<clustering>
<clus scale="   34.350">  5  6 -1 -1</clus>
<clus scale="   34.664">  1  3  2 -1</clus>
<clus scale="   97.612">  2  4  1 -1</clus>
<clus scale="   97.612">  2  3  1 -1</clus>
</clustering>
</event>
<event>
 6    0  0.1622933E+002  0.1604477E+03  0.7546771E-02  0.1188192E+00
          2   -1    0    0  504    0 -0.00000000000E+00  0.00000000000E+00  0.68853207879E+03  0.68853207879E+03  0.00000000000E+00 0.  1.
         21   -1    0    0  505  502  0.00000000000E+00 -0.00000000000E+00 -0.71562505564E+02  0.71562505564E+02  0.00000000000E+00 0.  1.
         21    1    1    2  503  501 -0.13626172846E+03  0.57791317172E+02  0.15787554973E+03  0.21640652529E+03  0.00000000000E+00 0.  1.
         21    1    1    2  504  502 -0.26120670836E+02 -0.24965541229E+02  0.18629809244E+03  0.18976972082E+03  0.00000000000E+00 0. -1.
         21    1    1    2  505  503  0.35097161977E+01  0.38094661053E+02  0.11406203376E+02  0.39920205210E+02  0.00000000000E+00 0. -1.
          2    1    1    2  501    0  0.15887268309E+03 -0.70920436996E+02  0.26138972768E+03  0.31399813304E+03  0.00000000000E+00 0.  1.
<scales pt_clust_3="160.44766" pt_clust_4="36.13264" pt_clust_5="36.87847" pt_clust_6="14000.00000"></scales>
<clustering>
<clus scale="   36.133">  1  4  2 -1</clus>
<clus scale="   36.878">  2  5  1 -1</clus>
<clus scale="  160.448">  2  3  1 -1</clus>
<clus scale="   36.878">  2  3  1 -1</clus>
</clustering>
</event>
<event>
 6    0  0.1622933E+002  0.8878439E+02  0.7546771E-02  0.1305822E+00
         21   -1    0    0  504  502  0.00000000000E+00  0.00000000000E+00  0.24684349697E+03  0.24684349697E+03  0.00000000000E+00 0.  1.
         -3   -1    0    0    0  501 -0.00000000000E+00 -0.00000000000E+00 -0.21826183856E+03  0.21826183856E+03  0.00000000000E+00 0. -1.
         21    1    1    2  503  505  0.27303841026E+02 -0.27707173765E+02 -0.31984018992E+02  0.50360348328E+02  0.00000000000E+00 0.  1.
         21    1    1    2  504  503  0.79986921853E+02 -0.37563341077E+02  0.19805471463E+03  0.21687457723E+03  0.00000000000E+00 0.  1.
         21    1    1    2  505  501 -0.21296536245E+02  0.23830068450E+02 -0.18563920221E+01  0.32013447326E+02  0.00000000000E+00 0. -1.
         -3    1    1    2    0  502 -0.85994226634E+02  0.41440446392E+02 -0.13563264521E+03  0.16585696264E+03  0.00000000000E+00 0. -1.
<scales pt_clust_3="32.37317" pt_clust_4="14000.00000" pt_clust_5="31.95958" pt_clust_6="88.78439"></scales>
<clustering>
<clus scale="   31.960">  2  5  1 -1</clus>
<clus scale="   32.373">  2  3  1 -1</clus>
<clus scale="   88.784">  2  6  1 -1</clus>
<clus scale="   88.784">  1  3  2 -1</clus>
</clustering>
</event>
<event>
 6    0  0.1622933E+002  0.8543059E+02  0.7546771E-02  0.1314310E+00
         21   -1    0    0  504  502  0.00000000000E+00  0.00000000000E+00  0.13754336462E+03  0.13754336462E+03  0.00000000000E+00 0.  1.
          1   -1    0    0  503    0 -0.00000000000E+00 -0.00000000000E+00 -0.19958904740E+03  0.19958904740E+03  0.00000000000E+00 0.  1.
         21    1    1    2  503  505  0.31644117024E+02 -0.43232463894E+02 -0.25746120099E+02  0.59441221191E+02  0.00000000000E+00 0. -1.
         21    1    1    2  504  501  0.70607427488E+02  0.48744133653E+02  0.44209818809E+02  0.96518948716E+02  0.00000000000E+00 0.  1.
         21    1    1    2  505  502 -0.42612545567E+02  0.55617020380E+02 -0.10717613549E+02  0.70879822488E+02  0.00000000000E+00 0. -1.
          1    1    1    2  501    0 -0.59638998944E+02 -0.61128690140E+02 -0.69791767940E+02  0.11029241962E+03  0.00000000000E+00 0.  1.
<scales pt_clust_3="53.57608" pt_clust_4="85.43059" pt_clust_5="56.14609" pt_clust_6="14000.00000"></scales>
<clustering>
<clus scale="   53.576">  2  3  1 -1</clus>
<clus scale="   56.146">  2  5  1 -1</clus>
<clus scale="   85.431">  1  4  2 -1</clus>
<clus scale="   85.431">  1  3  2 -1</clus>
</clustering>
</event>
<event>
 6    0  0.1622933E+002  0.6006208E+02  0.7546771E-02  0.1397571E+00
          1   -1    0    0  503    0 -0.00000000000E+00  0.00000000000E+00  0.54988730228E+03  0.54988730228E+03  0.00000000000E+00 0. -1.
         21   -1    0    0  505  502  0.00000000000E+00 -0.00000000000E+00 -0.24804966144E+03  0.24804966144E+03  0.00000000000E+00 0. -1.
         21    1    1    2  503  504 -0.33251245336E+02 -0.34463491037E+02  0.11176544235E+03  0.12159313975E+03  0.00000000000E+00 0.  1.
         21    1    1    2  504  502  0.10207176216E+02 -0.48294605757E+02  0.52938143473E+02  0.72380953475E+02  0.00000000000E+00 0.  1.
         21    1    1    2  505  501  0.20836147825E+02 -0.55531967113E+02 -0.21637702310E+03  0.22435899927E+03  0.00000000000E+00 0. -1.
          1    1    1    2  501    0  0.22079212957E+01  0.13829006391E+03  0.35351107812E+03  0.37960387122E+03  0.00000000000E+00 0. -1.
<scales pt_clust_3="47.88922" pt_clust_4="53.55215" pt_clust_5="60.06208" pt_clust_6="14000.00000"></scales>
<clustering>
<clus scale="   47.889">  1  3  2 -1</clus>
<clus scale="   53.552">  1  4  2 -1</clus>
<clus scale="   60.062">  2  5  1 -1</clus>
<clus scale="   60.062">  2  3  1 -1</clus>
</clustering>
</event>
<event>
 6    0  0.1622933E+002  0.1161659E+03  0.7546771E-02  0.1249560E+00
         21   -1    0    0  504  502  0.00000000000E+00  0.00000000000E+00  0.12340792727E+03  0.12340792727E+03  0.00000000000E+00 0.  1.
          4   -1    0    0  503    0 -0.00000000000E+00 -0.00000000000E+00 -0.72288521562E+03  0.72288521562E+03  0.00000000000E+00 0. -1.
         21    1    1    2  503  502 -0.45288588772E+02  0.73594359131E+02 -0.19805338782E+03  0.21608408177E+03  0.00000000000E+00 0. -1.
         21    1    1    2  504  505 -0.93169150186E+02 -0.56108739510E+01  0.78344958106E+02  0.12186018592E+03  0.00000000000E+00 0.  1.
         21    1    1    2  505  501  0.62676969307E+02 -0.40094281669E+02 -0.13394673281E+03  0.15322428377E+03  0.00000000000E+00 0. -1.
          4    1    1    2  501    0  0.75780769650E+02 -0.27889203511E+02 -0.34582212583E+03  0.35512459142E+03  0.00000000000E+00 0. -1.
<scales pt_clust_3="86.41288" pt_clust_4="95.11250" pt_clust_5="64.02000" pt_clust_6="64.02000"></scales>
<clustering>
<clus scale="   64.020">  5  6 -1 -1</clus>
<clus scale="   86.413">  2  3  1 -1</clus>
<clus scale="   95.112">  1  4  2 -1</clus>
<clus scale="   95.112">  1  3  2 -1</clus>
</clustering>
</event>
<event>
 6    0  0.1622933E+002  0.3540121E+03  0.7546771E-02  0.1060980E+00
         21   -1    0    0  505  502  0.00000000000E+00  0.00000000000E+00  0.40935494634E+03  0.40935494634E+03  0.00000000000E+00 0.  1.
         -3   -1    0    0    0  501 -0.00000000000E+00 -0.00000000000E+00 -0.45781149651E+03  0.45781149651E+03  0.00000000000E+00 0.  1.
         21    1    1    2  503  501 -0.54342158670E+02 -0.82204007804E+02 -0.53770058165E+02  0.11225768688E+03  0.00000000000E+00 0.  1.
         21    1    1    2  504  502 -0.15267505490E+02  0.52827563231E+02 -0.16817108812E+02  0.57503593884E+02  0.00000000000E+00 0.  1.
         21    1    1    2  505  503  0.30057165993E+03 -0.17308833236E+03  0.13212846758E+03  0.37116145476E+03  0.00000000000E+00 0.  1.
         -3    1    1    2    0  504 -0.23096199577E+03  0.20246477694E+03 -0.10999785077E+03  0.32624370732E+03  0.00000000000E+00 0.  1.
<scales pt_clust_3="98.54222" pt_clust_4="31.02656" pt_clust_5="346.33470" pt_clust_6="31.02656"></scales>
<clustering>
<clus scale="   31.027">  4  6 -1 -1</clus>
<clus scale="   98.542">  2  3  1 -1</clus>
<clus scale="  346.335">  1  5  2 -1</clus>
<clus scale="  346.335">  1  3  2 -1</clus>
</clustering>
</event>
<event>
 6    0  0.1622933E+002  0.1175797E+03  0.7546771E-02  0.1247144E+00
         21   -1    0    0  504  502  0.00000000000E+00  0.00000000000E+00  0.77417410620E+03  0.77417410620E+03  0.00000000000E+00 0. -1.
          2   -1    0    0  505    0 -0.00000000000E+00 -0.00000000000E+00 -0.94845962662E+03  0.94845962662E+03  0.00000000000E+00 0. -1.
         21    1    1    2  503  502  0.49583803108E+02  0.41587772150E+02 -0.31754570455E+03  0.32407309484E+03  0.00000000000E+00 0.  1.
         21    1    1    2  504  501  0.89474323481E+02 -0.75447720792E+02  0.73973308986E+03  0.74893461488E+03  0.00000000000E+00 0. -1.
         21    1    1    2  505  503  0.52130045223E+02 -0.17828963105E+02 -0.86613981882E+02  0.10265181634E+03  0.00000000000E+00 0. -1.
          2    1    1    2  501    0 -0.19118817181E+03  0.51688911748E+02 -0.50985892385E+03  0.54697420676E+03  0.00000000000E+00 0. -1.
<scales pt_clust_3="77.47140" pt_clust_4="14000.00000" pt_clust_5="55.09459" pt_clust_6="117.57971"></scales>
<clustering>
<clus scale="   55.095">  2  5  1 -1</clus>
<clus scale="   77.471">  2  3  1 -1</clus>
<clus scale="  117.580">  2  6  1 -1</clus>
<clus scale="  117.580">  1  3  2 -1</clus>
</clustering>
</event>
<event>
 6    0  0.1622933E+002  0.7431807E+02  0.7546771E-02  0.1345996E+00
          1   -1    0    0  503    0 -0.00000000000E+00  0.00000000000E+00  0.15793713126E+03  0.15793713126E+03  0.00000000000E+00 0.  1.
         21   -1    0    0  505  502  0.00000000000E+00 -0.00000000000E+00 -0.37429614307E+03  0.37429614307E+03  0.00000000000E+00 0.  1.
         21    1    1    2  503  504 -0.48417060759E+02 -0.10320102871E+02  0.20192417139E+01  0.49545874025E+02  0.00000000000E+00 0. -1.
         21    1    1    2  504  502 -0.30681527362E+02  0.64456446328E+02 -0.22656971289E+03  0.23754962512E+03  0.00000000000E+00 0.  1.
         21    1    1    2  505  501 -0.36503698417E+02 -0.35082968524E+02 -0.82622577645E+02  0.96901109464E+02  0.00000000000E+00 0.  1.
          1    1    1    2  501    0  0.11560228654E+03 -0.19053374934E+02  0.90814037008E+02  0.14823666573E+03  0.00000000000E+00 0.  1.
<scales pt_clust_3="49.50471" pt_clust_4="74.31807" pt_clust_5="52.92034" pt_clust_6="14000.00000"></scales>
<clustering>
<clus scale="   49.505">  1  3  2 -1</clus>
<clus scale="   52.920">  2  5  1 -1</clus>
<clus scale="   74.318">  2  4  1 -1</clus>
<clus scale="   52.920">  2  3  1 -1</clus>
</clustering>
</event>
<event>
 6    0  0.1622933E+002  0.8137739E+02  0.7546771E-02  0.1325187E+00
         21   -1    0    0  503  502  0.00000000000E+00  0.00000000000E+00  0.82804517628E+03  0.82804517628E+03  0.00000000000E+00 0. -1.
         -4   -1    0    0    0  501 -0.00000000000E+00 -0.00000000000E+00 -0.62600281751E+02  0.62600281751E+02  0.00000000000E+00 0.  1.
         21    1    1    2  503  505 -0.17115923844E+02  0.39997704774E+02  0.21562404537E+02  0.48556240852E+02  0.00000000000E+00 0. -1.
         21    1    1    2  504  502 -0.79716361216E+02  0.18374448449E+02  0.70430264179E+03  0.70903774923E+03  0.00000000000E+00 0. -1.
         21    1    1    2  505  501  0.35562591916E+02  0.77984788621E+01  0.64298501562E+01  0.36971031760E+02  0.00000000000E+00 0.  1.
         -4    1    1    2    0  504  0.61269693144E+02 -0.66170632085E+02  0.33149998052E+02  0.96080436195E+02  0.00000000000E+00 0.  1.
<scales pt_clust_3="42.79377" pt_clust_4="14000.00000" pt_clust_5="36.40761" pt_clust_6="81.37739"></scales>
<clustering>
<clus scale="   36.408">  2  5  1 -1</clus>
<clus scale="   42.794">  2  3  1 -1</clus>
<clus scale="   81.377">  2  6  1 -1</clus>
<clus scale="   81.377">  1  3  2 -1</clus>
</clustering>
</event>
<event>
 6    0  0.1622933E+002  0.1593558E+03  0.7546771E-02  0.1189426E+00
         21   -1    0    0  505  502  0.00000000000E+00  0.00000000000E+00  0.39807569951E+03  0.39807569951E+03  0.00000000000E+00 0.  1.
          2   -1    0    0  503    0 -0.00000000000E+00 -0.00000000000E+00 -0.17025073309E+04  0.17025073309E+04  0.00000000000E+00 0. -1.
         21    1    1    2  503  504  0.61325457452E+02  0.84974464635E+02 -0.30841173460E+03  0.32572882803E+03  0.00000000000E+00 0.  1.
         21    1    1    2  504  502 -0.70615083382E+00  0.76389967234E+02  0.37933248489E+03  0.38694839428E+03  0.00000000000E+00 0.  1.
         21    1    1    2  505  501  0.12500611471E+02 -0.41868820359E+02 -0.24024794730E+03  0.24418914715E+03  0.00000000000E+00 0. -1.
          2    1    1    2  501    0 -0.73119918089E+02 -0.11949561151E+03 -0.11351044343E+04  0.11437166609E+04  0.00000000000E+00 0. -1.
<scales pt_clust_3="142.89538" pt_clust_4="76.39323" pt_clust_5="39.39257" pt_clust_6="39.39257"></scales>
<clustering>
<clus scale="   39.393">  5  6 -1 -1</clus>
<clus scale="   76.393">  1  4  2 -1</clus>
<clus scale="  142.895">  1  3  2 -1</clus>
<clus scale="   76.393">  1  3  2 -1</clus>
</clustering>
</event>
<event>
 6    0  0.1622933E+002  0.1288461E+03  0.7546771E-02  0.1229178E+00
         -2   -1    0    0    0  501 -0.00000000000E+00  0.00000000000E+00  0.25953507327E+03  0.25953507327E+03  0.00000000000E+00 0. -1.
         21   -1    0    0  503  502  0.00000000000E+00 -0.00000000000E+00 -0.34581477283E+03  0.34581477283E+03  0.00000000000E+00 0.  1.
         21    1    1    2  503  505 -0.12326475140E+03 -0.32251071850E+02 -0.29122055011E+03  0.31787377901E+03  0.00000000000E+00 0.  1.
         21    1    1    2  504  502  0.53472270903E+01  0.43331406729E+02  0.10075998442E+03  0.10981246791E+03  0.00000000000E+00 0. -1.
         21    1    1    2  505  501  0.81340667747E+02 -0.35731344654E+02  0.34729705606E+02  0.95389651807E+02  0.00000000000E+00 0. -1.
         -2    1    1    2    0  504  0.36576856563E+02  0.24651009775E+02  0.69451160518E+02  0.82273947373E+02  0.00000000000E+00 0. -1.
<scales pt_clust_3="122.69958" pt_clust_4="39.12045" pt_clust_5="88.84274" pt_clust_6="39.12045"></scales>
<clustering>
<clus scale="   39.120">  4  6 -1 -1</clus>
<clus scale="   88.843">  1  5  2 -1</clus>
<clus scale="  122.700">  2  3  1 -1</clus>
<clus scale="  122.700">  2  3  1 -1</clus>
</clustering>
</event>
<event>
 6    0  0.1622933E+002  0.4016971E+03  0.7546771E-02  0.1043194E+00
          4   -1    0    0  505    0 -0.00000000000E+00  0.00000000000E+00  0.19327749765E+03  0.19327749765E+03  0.00000000000E+00 0.  1.
         21   -1    0    0  503  502  0.00000000000E+00 -0.00000000000E+00 -0.19791677444E+04  0.19791677444E+04  0.00000000000E+00 0.  1.
         21    1    1    2  503  501  0.26562552509E+03  0.48474350612E+02 -0.11744692758E+04  0.12051077802E+04  0.00000000000E+00 0.  1.
         21    1    1    2  504  502  0.13313636030E+03  0.12859038270E+03 -0.29277194830E+03  0.34637579400E+03  0.00000000000E+00 0. -1.
         21    1    1    2  505  504  0.49330981651E+02 -0.17440341369E+02 -0.82492725155E+01  0.52969441707E+02  0.00000000000E+00 0. -1.
          4    1    1    2  501    0 -0.44809286704E+03 -0.15962439194E+03 -0.31039975010E+03  0.56799222605E+03  0.00000000000E+00 0.  1.
<scales pt_clust_3="401.69712" pt_clust_4="188.90355" pt_clust_5="52.32314" pt_clust_6="14000.00000"></scales>
<clustering>
<clus scale="   52.323">  1  5  2 -1</clus>
<clus scale="  188.904">  2  4  1 -1</clus>
<clus scale="  401.697">  2  3  1 -1</clus>
<clus scale="  188.904">  2  3  1 -1</clus>
</clustering>
</event>
<event>
 6    0  0.1622933E+002  0.1921547E+03  0.7546771E-02  0.1156532E+00
         -1   -1    0    0    0  501 -0.00000000000E+00  0.00000000000E+00  0.33015485194E+03  0.33015485194E+03  0.00000000000E+00 0.  1.
         21   -1    0    0  503  502  0.00000000000E+00 -0.00000000000E+00 -0.44918175231E+03  0.44918175231E+03  0.00000000000E+00 0. -1.
         21    1    1    2  503  505 -0.17277667303E+03 -0.12544292805E+02 -0.34749880875E+03  0.38828412292E+03  0.00000000000E+00 0. -1.
         21    1    1    2  504  502  0.81877659878E+02 -0.29454918140E+02  0.40263185148E+02  0.95878399381E+02  0.00000000000E+00 0.  1.
         21    1    1    2  505  501 -0.35774506014E+02  0.62382691800E+02  0.57790764569E+01  0.72144391615E+02  0.00000000000E+00 0. -1.
         -1    1    1    2    0  504  0.12667351917E+03 -0.20383480855E+02  0.18242964677E+03  0.22302969034E+03  0.00000000000E+00 0.  1.
<scales pt_clust_3="175.47257" pt_clust_4="64.49224" pt_clust_5="71.91255" pt_clust_6="64.49224"></scales>
<clustering>
<clus scale="   64.492">  4  6 -1 -1</clus>
<clus scale="   71.913">  1  5  2 -1</clus>
<clus scale="  175.473">  2  3  1 -1</clus>
<clus scale="  175.473">  2  3  1 -1</clus>
</clustering>
</event>
<event>
 6    0  0.1622933E+002  0.1759942E+03  0.7546771E-02  0.1171737E+00
         21   -1    0    0  504  502  0.00000000000E+00  0.00000000000E+00  0.52940894047E+03  0.52940894047E+03  0.00000000000E+00 0.  1.
         -2   -1    0    0    0  501 -0.00000000000E+00 -0.00000000000E+00 -0.73747690666E+03  0.73747690666E+03  0.00000000000E+00 0.  1.
         21    1    1    2  503  505 -0.17522223112E+02 -0.50495435046E+02 -0.13897609544E+03  0.14889987363E+03  0.00000000000E+00 0.  1.
         21    1    1    2  504  501  0.50843094419E+02  0.78721613993E+02  0.43635655762E+03  0.44630612604E+03  0.00000000000E+00 0.  1.
         21    1    1    2  505  502 -0.59213921005E+02  0.97928905735E+02  0.32151124574E+02  0.11886990296E+03  0.00000000000E+00 0. -1.
         -2    1    1    2    0  503  0.25893049698E+02 -0.12615508468E+03 -0.53759955295E+03  0.55280994451E+03  0.00000000000E+00 0.  1.
<scales pt_clust_3="37.37944" pt_clust_4="93.71293" pt_clust_5="166.15470" pt_clust_6="37.37944"></scales>
<clustering>
<clus scale="   37.379">  3  6 -1 -1</clus>
<clus scale="   93.713">  1  4  2 -1</clus>
<clus scale="  166.155">  1  5  2 -1</clus>
<clus scale="   93.713">  1  3  2 -1</clus>
</clustering>
</event>
<event>
 6    0  0.1622933E+002  0.1460627E+03  0.7546771E-02  0.1205396E+00
          2   -1    0    0  504    0 -0.00000000000E+00  0.00000000000E+00  0.58359330263E+04  0.58359330263E+04  0.00000000000E+00 0.  1.
         21   -1    0    0  505  502  0.00000000000E+00 -0.00000000000E+00 -0.22640114438E+04  0.22640114438E+04  0.00000000000E+00 0. -1.
         21    1    1    2  503  501  0.63276498762E+02 -0.93309746616E+02  0.49533334339E+04  0.49546163051E+04  0.00000000000E+00 0.  1.
         21    1    1    2  504  502 -0.29763975757E+02 -0.61102136510E+02  0.30440159691E+03  0.31189693417E+03  0.00000000000E+00 0.  1.
         21    1    1    2  505  503  0.87221914768E+02  0.11722570543E+03 -0.22502707514E+04  0.22550095306E+04  0.00000000000E+00 0. -1.
          2    1    1    2  501    0 -0.12073443777E+03  0.37186177692E+02  0.56445730314E+03  0.57842170027E+03  0.00000000000E+00 0.  1.
<scales pt_clust_3="146.06267" pt_clust_4="67.96591" pt_clust_5="14000.00000" pt_clust_6="127.60164"></scales>
<clustering>
<clus scale="   67.966">  1  4  2 -1</clus>
<clus scale="  127.602">  1  6  2 -1</clus>
<clus scale="  146.063">  1  3  2 -1</clus>
<clus scale="  146.063">  2  3  1 -1</clus>
</clustering>
</event>
<event>
 6    0  0.1622933E+002  0.1858388E+03  0.7546771E-02  0.1162269E+00
          2   -1    0    0  505    0 -0.00000000000E+00  0.00000000000E+00  0.94973983600E+03  0.94973983600E+03  0.00000000000E+00 0. -1.
         21   -1    0    0  503  502  0.00000000000E+00 -0.00000000000E+00 -0.12575775401E+04  0.12575775401E+04  0.00000000000E+00 0. -1.
         21    1    1    2  503  501 -0.10128103961E+03  0.74938163801E+02 -0.11792928352E+04  0.11860038653E+04  0.00000000000E+00 0. -1.
         21    1    1    2  504  502 -0.46274387156E+02  0.41004466204E+02 -0.48424379122E+02  0.78534105003E+02  0.00000000000E+00 0. -1.
         21    1    1    2  505  504  0.82753872409E+01 -0.45706364182E+02  0.30000340775E+03  0.30357799397E+03  0.00000000000E+00 0.  1.
          2    1    1    2  501    0  0.13928003953E+03 -0.70236265822E+02  0.61987610247E+03  0.63920141181E+03  0.00000000000E+00 0. -1.
<scales pt_clust_3="14000.00000" pt_clust_4="60.98331" pt_clust_5="46.44948" pt_clust_6="185.83879"></scales>
<clustering>
<clus scale="   46.449">  1  5  2 -1</clus>
<clus scale="   60.983">  2  4  1 -1</clus>
<clus scale="  185.839">  1  6  2 -1</clus>
<clus scale="   60.983">  2  3  1 -1</clus>
</clustering>
</event>
<event>
 6    0  0.1622933E+002  0.1245768E+03  0.7546771E-02  0.1235732E+00
          2   -1    0    0  503    0 -0.00000000000E+00  0.00000000000E+00  0.29165535435E+04  0.29165535435E+04  0.00000000000E+00 0. -1.
         21   -1    0    0  501  502  0.00000000000E+00 -0.00000000000E+00 -0.40918121399E+03  0.40918121399E+03  0.00000000000E+00 0.  1.
         21    1    1    2  503  504  0.27144711649E+02 -0.29072053458E+02  0.26738007912E+03  0.27032226392E+03  0.00000000000E+00 0. -1.
         21    1    1    2  504  505 -0.62569430424E+02 -0.60917102241E+02  0.18530222876E+03  0.20484809726E+03  0.00000000000E+00 0. -1.
         21    1    1    2  505  502 -0.67001982450E+02  0.10529384342E+03 -0.38702696549E+03  0.40665210086E+03  0.00000000000E+00 0.  1.
          2    1    1    2  501    0  0.10242670123E+03 -0.15304687725E+02  0.24417169871E+04  0.24439122954E+04  0.00000000000E+00 0. -1.
<scales pt_clust_3="39.77461" pt_clust_4="87.43630" pt_clust_5="14000.00000" pt_clust_6="124.57681"></scales>
<clustering>
<clus scale="   39.775">  1  3  2 -1</clus>
<clus scale="   87.436">  1  4  2 -1</clus>
<clus scale="  124.577">  1  6  2 -1</clus>
<clus scale="  124.577">  2  3  1 -1</clus>
</clustering>
</event>
<event>
 6    0  0.1622933E+002  0.1239024E+03  0.7546771E-02  0.1236795E+00
         21   -1    0    0  505  502  0.00000000000E+00  0.00000000000E+00  0.64243738541E+02  0.64243738541E+02  0.00000000000E+00 0. -1.
          1   -1    0    0  503    0 -0.00000000000E+00 -0.00000000000E+00 -0.94883838840E+03  0.94883838840E+03  0.00000000000E+00 0. -1.
         21    1    1    2  503  504 -0.23038933834E+02 -0.12472831611E+03 -0.21322208314E+03  0.24809595332E+03  0.00000000000E+00 0. -1.
         21    1    1    2  504  502 -0.49358310415E+02 -0.32138781783E+02  0.76801638622E+01  0.59398055679E+02  0.00000000000E+00 0. -1.
         21    1    1    2  505  501  0.89565297497E+01  0.49276409041E+02 -0.85959582051E+02  0.99485846529E+02  0.00000000000E+00 0. -1.
          1    1    1    2  501    0  0.63440714499E+02  0.10759068886E+03 -0.59309314853E+03  0.60610227141E+03  0.00000000000E+00 0. -1.
<scales pt_clust_3="123.90244" pt_clust_4="44.26206" pt_clust_5="50.08377" pt_clust_6="14000.00000"></scales>
<clustering>
<clus scale="   50.084">  1  5  2 -1</clus>
<clus scale="   44.262">  1  4  2 -1</clus>
<clus scale="  123.902">  1  3  2 -1</clus>
<clus scale="   50.084">  1  3  2 -1</clus>
</clustering>
</event>
<event>
 6    0  0.1622933E+002  0.1165945E+03  0.7546771E-02  0.1248823E+00
          1   -1    0    0  503    0 -0.00000000000E+00  0.00000000000E+00  0.18823345601E+04  0.18823345601E+04  0.00000000000E+00 0.  1.
         21   -1    0    0  504  502  0.00000000000E+00 -0.00000000000E+00 -0.21553167513E+03  0.21553167513E+03  0.00000000000E+00 0. -1.
         21    1    1    2  503  505 -0.15515216676E+02 -0.70234176142E+02  0.14800817647E+03  0.16455996399E+03  0.00000000000E+00 0.  1.
         21    1    1    2  504  501 -0.97390008878E+02  0.13535029417E+03  0.30364589325E+03  0.34641787548E+03  0.00000000000E+00 0.  1.
         21    1    1    2  505  502 -0.24917723269E+01 -0.51041098066E+02 -0.17989338859E+03  0.18701078546E+03  0.00000000000E+00 0. -1.
          1    1    1    2  501    0  0.11539699788E+03 -0.14075019963E+02  0.13950422039E+04  0.13998776103E+04  0.00000000000E+00 0.  1.
<scales pt_clust_3="84.95255" pt_clust_4="116.59452" pt_clust_5="51.10188" pt_clust_6="14000.00000"></scales>
<clustering>
<clus scale="   51.102">  2  5  1 -1</clus>
<clus scale="   84.953">  2  3  1 -1</clus>
<clus scale="  116.595">  2  4  1 -1</clus>
<clus scale="   51.102">  2  3  1 -1</clus>
</clustering>
</event>
<event>
 6    0  0.1622933E+002  0.9845105E+02  0.7546771E-02  0.1283587E+00
         21   -1    0    0  505  502  0.00000000000E+00  0.00000000000E+00  0.52147610515E+03  0.52147610515E+03  0.00000000000E+00 0. -1.
         -1   -1    0    0    0  501 -0.00000000000E+00 -0.00000000000E+00 -0.91410550644E+02  0.91410550644E+02  0.00000000000E+00 0. -1.
         21    1    1    2  503  501 -0.99711385439E+01 -0.28483334649E+02 -0.37461453184E+02  0.48104931465E+02  0.00000000000E+00 0. -1.
         21    1    1    2  504  502 -0.53277440977E+02 -0.89434562350E+02  0.33837639720E+03  0.35402770067E+03  0.00000000000E+00 0. -1.
         21    1    1    2  505  503  0.67630906544E+02  0.23380166845E+02  0.48901741150E+02  0.86671517866E+02  0.00000000000E+00 0. -1.
         -1    1    1    2    0  504 -0.43823270236E+01  0.94537730154E+02  0.80248869331E+02  0.12408250578E+03  0.00000000000E+00 0. -1.
<scales pt_clust_3="30.17820" pt_clust_4="98.45105" pt_clust_5="64.93760" pt_clust_6="14000.00000"></scales>
<clustering>
<clus scale="   30.178">  2  3  1 -1</clus>
<clus scale="   64.938">  2  5  1 -1</clus>
<clus scale="   98.451">  1  4  2 -1</clus>
<clus scale="   98.451">  1  3  2 -1</clus>
</clustering>
</event>
<event>
 6    0  0.1622933E+002  0.9599739E+02  0.7546771E-02  0.1288945E+00
         21   -1    0    0  504  502  0.00000000000E+00  0.00000000000E+00  0.40534987993E+02  0.40534987993E+02  0.00000000000E+00 0. -1.
          2   -1    0    0  503    0 -0.00000000000E+00 -0.00000000000E+00 -0.79531177753E+03  0.79531177753E+03  0.00000000000E+00 0. -1.
         21    1    1    2  503  502  0.59942785928E+02  0.33853569596E+02 -0.50105021976E+03  0.50575737709E+03  0.00000000000E+00 0. -1.
         21    1    1    2  504  505  0.66240422869E+02  0.21503021335E+02 -0.77414502841E+02  0.10413058532E+03  0.00000000000E+00 0. -1.
         21    1    1    2  505  501 -0.59616291396E+02 -0.40720489448E+02 -0.77466931307E+02  0.10589327602E+03  0.00000000000E+00 0. -1.
          2    1    1    2  501    0 -0.66566917401E+02 -0.14636101483E+02 -0.98845135633E+02  0.12006552710E+03  0.00000000000E+00 0. -1.
<scales pt_clust_3="68.84186" pt_clust_4="90.72275" pt_clust_5="30.49232" pt_clust_6="30.49232"></scales>
<clustering>
<clus scale="   30.492">  5  6 -1 -1</clus>
<clus scale="   68.842">  2  3  1 -1</clus>
<clus scale="   90.723">  1  4  2 -1</clus>
<clus scale="   90.723">  1  3  2 -1</clus>
</clustering>
</event>
<event>
 6    0  0.1622933E+002  0.8148854E+02  0.7546771E-02  0.1324879E+00
          2   -1    0    0  505    0 -0.00000000000E+00  0.00000000000E+00  0.78885436821E+03  0.78885436821E+03  0.00000000000E+00 0.  1.
         21   -1    0    0  503  502  0.00000000000E+00 -0.00000000000E+00 -0.28999622386E+03  0.28999622386E+03  0.00000000000E+00 0. -1.
         21    1    1    2  503  501  0.70025667542E+02  0.40316157237E+02 -0.25678949575E+03  0.26920221355E+03  0.00000000000E+00 0. -1.
         21    1    1    2  504  502  0.47214333545E+02 -0.75631843245E+02  0.24049998719E+03  0.25649485929E+03  0.00000000000E+00 0. -1.
         21    1    1    2  505  504  0.20379906887E+02  0.53766575552E+02  0.99408677064E+02  0.11484019474E+03  0.00000000000E+00 0. -1.
          2    1    1    2  501    0 -0.13761990797E+03 -0.18450889544E+02  0.41573897586E+03  0.43831332451E+03  0.00000000000E+00 0.  1.
<scales pt_clust_3="81.48854" pt_clust_4="78.26621" pt_clust_5="57.49944" pt_clust_6="14000.00000"></scales>
<clustering>
<clus scale="   57.499">  1  5  2 -1</clus>
<clus scale="   78.266">  1  4  2 -1</clus>
<clus scale="   81.489">  2  3  1 -1</clus>
<clus scale="   81.489">  2  3  1 -1</clus>
</clustering>
</event>
<event>
 6    0  0.1622933E+002  0.1278089E+03  0.7546771E-02  0.1230744E+00
         21   -1    0    0  503  502  0.00000000000E+00  0.00000000000E+00  0.87564497580E+02  0.87564497580E+02  0.00000000000E+00 0. -1.
          2   -1    0    0  505    0 -0.00000000000E+00 -0.00000000000E+00 -0.11224044215E+04  0.11224044215E+04  0.00000000000E+00 0. -1.
         21    1    1    2  503  504  0.35340934657E+02 -0.30350804920E+02  0.65874751018E+02  0.80682314316E+02  0.00000000000E+00 0. -1.
         21    1    1    2  504  501  0.28898006628E+01  0.51243098598E+02 -0.29606171800E+03  0.30047753155E+03  0.00000000000E+00 0. -1.
         21    1    1    2  505  502  0.73198549484E+01 -0.10379255486E+03 -0.42181082708E+03  0.43445465651E+03  0.00000000000E+00 0. -1.
          2    1    1    2  501    0 -0.45550590268E+02  0.82900261187E+02 -0.38284212984E+03  0.39435441668E+03  0.00000000000E+00 0. -1.
<scales pt_clust_3="46.58490" pt_clust_4="33.48647" pt_clust_5="119.45079" pt_clust_6="33.48647"></scales>
<clustering>
<clus scale="   33.486">  4  6 -1 -1</clus>
<clus scale="   46.585">  1  3  2 -1</clus>
<clus scale="  119.451">  2  5  1 -1</clus>
<clus scale="   46.585">  1  3  2 -1</clus>
</clustering>
</event>
<event>
 6    0  0.1622933E+002  0.1395511E+03  0.7546771E-02  0.1213934E+00
         21   -1    0    0  501  502  0.00000000000E+00  0.00000000000E+00  0.56545546946E+03  0.56545546946E+03  0.00000000000E+00 0.  1.
          1   -1    0    0  505    0 -0.00000000000E+00 -0.00000000000E+00 -0.10171377630E+03  0.10171377630E+03  0.00000000000E+00 0.  1.
         21    1    1    2  503  502 -0.29643438083E+02 -0.66412337472E+02  0.13425690247E+03  0.15269003848E+03  0.00000000000E+00 0.  1.
         21    1    1    2  504  503 -0.15082054685E+03  0.14832442634E+02  0.13482127515E+03  0.20283888912E+03  0.00000000000E+00 0.  1.
         21    1    1    2  505  504  0.40336415509E+02 -0.15118559375E+02 -0.19396930061E+02  0.47242334293E+02  0.00000000000E+00 0. -1.
          1    1    1    2  501    0  0.14012756942E+03  0.66698454213E+02  0.21406044560E+03  0.26439798388E+03  0.00000000000E+00 0.  1.
<scales pt_clust_3="72.60424" pt_clust_4="139.55105" pt_clust_5="43.07664" pt_clust_6="14000.00000"></scales>
<clustering>
<clus scale="   43.077">  2  5  1 -1</clus>
<clus scale="   72.604">  1  3  2 -1</clus>
<clus scale="  139.551">  2  4  1 -1</clus>
<clus scale="   72.604">  1  3  2 -1</clus>
</clustering>
</event>
<event>
 6    0  0.1622933E+002  0.2605232E+03  0.7546771E-02  0.1106829E+00
         21   -1    0    0  505  502  0.00000000000E+00  0.00000000000E+00  0.17068423164E+03  0.17068423164E+03  0.00000000000E+00 0.  1.
          2   -1    0    0  503    0 -0.00000000000E+00 -0.00000000000E+00 -0.16976376708E+04  0.16976376708E+04  0.00000000000E+00 0. -1.
         21    1    1    2  503  502  0.24301070469E+03  0.10257443630E+01 -0.71797556707E+03  0.75798691919E+03  0.00000000000E+00 0. -1.
         21    1    1    2  504  501 -0.78895558771E+02  0.31765383143E+02 -0.42876036186E+03  0.43711439769E+03  0.00000000000E+00 0. -1.
         21    1    1    2  505  504 -0.12969973625E+02  0.34408800259E+02  0.13091931654E+03  0.13598548891E+03  0.00000000000E+00 0.  1.
          2    1    1    2  501    0 -0.15114517230E+03 -0.67199927765E+02 -0.51113682674E+03  0.53723509663E+03  0.00000000000E+00 0. -1.
<scales pt_clust_3="236.84688" pt_clust_4="79.16175" pt_clust_5="36.77208" pt_clust_6="79.16175"></scales>
<clustering>
<clus scale="   36.772">  1  5  2 -1</clus>
<clus scale="   79.162">  4  6 -1 -1</clus>
<clus scale="  236.847">  1  3  2 -1</clus>
<clus scale="   36.772">  1  3  2 -1</clus>
</clustering>
</event>
<event>
 6    0  0.1622933E+002  0.7797762E+02  0.7546771E-02  0.1334891E+00
         21   -1    0    0  501  502  0.00000000000E+00  0.00000000000E+00  0.18101892314E+03  0.18101892314E+03  0.00000000000E+00 0.  1.
          2   -1    0    0  504    0 -0.00000000000E+00 -0.00000000000E+00 -0.42095995898E+03  0.42095995898E+03  0.00000000000E+00 0. -1.
         21    1    1    2  503  505 -0.57070557917E+02 -0.19732415737E+02  0.13644465140E+03  0.14920978422E+03  0.00000000000E+00 0.  1.
         21    1    1    2  504  503 -0.41171277605E+02  0.27884742174E+01 -0.35406903410E+02  0.54373693062E+02  0.00000000000E+00 0.  1.
         21    1    1    2  505  502 -0.20495967679E+02  0.25845179952E+02  0.42043285461E+01  0.33252584807E+02  0.00000000000E+00 0.  1.
          2    1    1    2  501    0  0.11873780320E+03 -0.89012384322E+01 -0.34518311237E+03  0.36514282004E+03  0.00000000000E+00 0. -1.
<scales pt_clust_3="77.97762" pt_clust_4="42.58647" pt_clust_5="32.98572" pt_clust_6="14000.00000"></scales>
<clustering>
<clus scale="   32.986">  1  5  2 -1</clus>
<clus scale="   42.586">  2  4  1 -1</clus>
<clus scale="   77.978">  1  3  2 -1</clus>
<clus scale="   32.986">  1  3  2 -1</clus>
</clustering>
</event>
<event>
 6    0  0.1622933E+002  0.6529233E+02  0.7546771E-02  0.1376875E+00
          1   -1    0    0  505    0 -0.00000000000E+00  0.00000000000E+00  0.57624887464E+03  0.57624887464E+03  0.00000000000E+00 0.  1.
         21   -1    0    0  504  502  0.00000000000E+00 -0.00000000000E+00 -0.56296473478E+03  0.56296473478E+03  0.00000000000E+00 0. -1.
         21    1    1    2  503  501 -0.48885593893E+00 -0.67637718417E+02 -0.17046247701E+02  0.69754386912E+02  0.00000000000E+00 0.  1.
         21    1    1    2  504  503 -0.40967346067E+01 -0.64503038045E+02 -0.48648001786E+03  0.49075475844E+03  0.00000000000E+00 0. -1.
         21    1    1    2  505  502  0.19239462767E+02  0.83177386200E+02  0.31947398042E+02  0.91155201411E+02  0.00000000000E+00 0.  1.
          1    1    1    2  501    0 -0.14653872221E+02  0.48963370263E+02  0.48486300738E+03  0.48754926267E+03  0.00000000000E+00 0.  1.
<scales pt_clust_3="53.52061" pt_clust_4="14000.00000" pt_clust_5="65.29233" pt_clust_6="51.10917"></scales>
<clustering>
<clus scale="   51.109">  1  6  2 -1</clus>
<clus scale="   53.521">  1  3  2 -1</clus>
<clus scale="   65.292">  1  5  2 -1</clus>
<clus scale="   65.292">  2  3  1 -1</clus>
</clustering>
</event>
<event>
 6    0  0.1622933E+002  0.1496109E+03  0.7546771E-02  0.1200952E+00
          2   -1    0    0  505    0 -0.00000000000E+00  0.00000000000E+00  0.49342297446E+03  0.49342297446E+03  0.00000000000E+00 0. -1.
         21   -1    0    0  503  502  0.00000000000E+00 -0.00000000000E+00 -0.47901129972E+03  0.47901129972E+03  0.00000000000E+00 0. -1.
         21    1    1    2  503  501 -0.75526788525E+02 -0.25986450699E+02 -0.14993625778E+02  0.81267461009E+02  0.00000000000E+00 0. -1.
         21    1    1    2  504  502 -0.65040589453E+02 -0.47548937365E+02 -0.37144827286E+03  0.38008551555E+03  0.00000000000E+00 0. -1.
         21    1    1    2  505  504  0.17944313778E+03 -0.45314270310E+01  0.11732314252E+03  0.21444135165E+03  0.00000000000E+00 0. -1.
          2    1    1    2  501    0 -0.38875759803E+02  0.78066815095E+02  0.28353043086E+03  0.29663994596E+03  0.00000000000E+00 0. -1.
<scales pt_clust_3="79.87234" pt_clust_4="14000.00000" pt_clust_5="149.61085" pt_clust_6="87.37756"></scales>
<clustering>
<clus scale="   79.872">  2  3  1 -1</clus>
<clus scale="   87.378">  1  6  2 -1</clus>
<clus scale="  149.611">  1  5  2 -1</clus>
<clus scale="   79.872">  2  3  1 -1</clus>
</clustering>
</event>
<event>
 6    0  0.1622933E+002  0.1002222E+03  0.7546771E-02  0.1279829E+00
         -1   -1    0    0    0  501 -0.00000000000E+00  0.00000000000E+00  0.57102603598E+03  0.57102603598E+03  0.00000000000E+00 0. -1.
         21   -1    0    0  504  502  0.00000000000E+00 -0.00000000000E+00 -0.87185208427E+03  0.87185208427E+03  0.00000000000E+00 0. -1.
         21    1    1    2  503  502 -0.31371963981E+02 -0.82206315991E+02  0.74002386806E+02  0.11497143891E+03  0.00000000000E+00 0.  1.
         21    1    1    2  504  505  0.31864265093E+02  0.13393496550E+02 -0.82526328307E+03  0.82598680590E+03  0.00000000000E+00 0. -1.
         21    1    1    2  505  501  0.51801799699E+02 -0.31893215653E+02  0.32735106167E+02  0.69081045392E+02  0.00000000000E+00 0. -1.
         -1    1    1    2    0  503 -0.52294100812E+02  0.10070603509E+03  0.41769974181E+03  0.43283883004E+03  0.00000000000E+00 0. -1.
<scales pt_clust_3="100.22222" pt_clust_4="34.56468" pt_clust_5="69.62177" pt_clust_6="14000.00000"></scales>
<clustering>
<clus scale="   34.565">  2  4  1 -1</clus>
<clus scale="   69.622">  2  5  1 -1</clus>
<clus scale="  100.222">  2  3  1 -1</clus>
<clus scale="   34.565">  2  3  1 -1</clus>
</clustering>
</event>
<event>
 6    0  0.1622933E+002  0.7610983E+02  0.7546771E-02  0.1340468E+00
         21   -1    0    0  504  502  0.00000000000E+00  0.00000000000E+00  0.15319859783E+02  0.15319859783E+02  0.00000000000E+00 0.  1.
          1   -1    0    0  503    0 -0.00000000000E+00 -0.00000000000E+00 -0.28715539675E+04  0.28715539675E+04  0.00000000000E+00 0.  1.
         21    1    1    2  503  505 -0.79451662089E+02 -0.53157916272E+02 -0.50311908468E+03  0.51212024373E+03  0.00000000000E+00 0.  1.
         21    1    1    2  504  501  0.38250893472E+02 -0.46333890136E+02 -0.59846740898E+03  0.60147585142E+03  0.00000000000E+00 0.  1.
         21    1    1    2  505  502 -0.21211986319E+01  0.40071651203E+02 -0.38679065913E+02  0.55734252069E+02  0.00000000000E+00 0.  1.
          1    1    1    2  501    0  0.43321967249E+02  0.59420155204E+02 -0.17159685481E+04  0.17175434801E+04  0.00000000000E+00 0.  1.
<scales pt_clust_3="14000.00000" pt_clust_4="53.20371" pt_clust_5="40.12775" pt_clust_6="76.10983"></scales>
<clustering>
<clus scale="   40.128">  1  5  2 -1</clus>
<clus scale="   53.204">  1  4  2 -1</clus>
<clus scale="   76.110">  2  6  1 -1</clus>
<clus scale="   40.128">  1  3  2 -1</clus>
</clustering>
</event>
<event>
 6    0  0.1622933E+002  0.1098557E+03  0.7546771E-02  0.1260837E+00
         21   -1    0    0  501  502  0.00000000000E+00  0.00000000000E+00  0.26137468503E+02  0.26137468503E+02  0.00000000000E+00 0.  1.
          2   -1    0    0  503    0 -0.00000000000E+00 -0.00000000000E+00 -0.27375350694E+04  0.27375350694E+04  0.00000000000E+00 0.  1.
         21    1    1    2  503  505  0.53863816577E+02 -0.77141281707E+01 -0.51934599876E+03  0.52218874455E+03  0.00000000000E+00 0.  1.
         21    1    1    2  504  502 -0.69200971772E+02 -0.60483521563E+02 -0.89947700584E+02  0.12859867696E+03  0.00000000000E+00 0.  1.
         21    1    1    2  505  504  0.73254601199E+02 -0.12592683310E+02 -0.34236081221E+03  0.35033660672E+03  0.00000000000E+00 0.  1.
          2    1    1    2  501    0 -0.57917446004E+02  0.80790333043E+02 -0.17597430894E+04  0.17625485097E+04  0.00000000000E+00 0.  1.
<scales pt_clust_3="40.04382" pt_clust_4="91.90773" pt_clust_5="40.04382" pt_clust_6="99.38746"></scales>
<clustering>
<clus scale="   40.044">  3  5 -1 -1</clus>
<clus scale="   91.908">  1  4  2 -1</clus>
<clus scale="   99.387">  2  6  1 -1</clus>
<clus scale="   91.908">  1  3  2 -1</clus>
</clustering>
</event>
<event>
 6    0  0.1622933E+002  0.2991093E+03  0.7546771E-02  0.1085687E+00
          2   -1    0    0  505    0 -0.00000000000E+00  0.00000000000E+00  0.37990867243E+03  0.37990867243E+03  0.00000000000E+00 0.  1.
         21   -1    0    0  504  502  0.00000000000E+00 -0.00000000000E+00 -0.14862019326E+04  0.14862019326E+04  0.00000000000E+00 0.  1.
         21    1    1    2  503  501 -0.53465487373E+02 -0.59559308668E+02  0.14740876434E+02  0.81382817763E+02  0.00000000000E+00 0. -1.
         21    1    1    2  504  503  0.25028049487E+03  0.79152350183E+02 -0.12144684980E+03  0.28923132261E+03  0.00000000000E+00 0.  1.
         21    1    1    2  505  502  0.46910349633E+01  0.48075855733E+02 -0.12014107027E+04  0.12023813747E+04  0.00000000000E+00 0.  1.
          2    1    1    2  501    0 -0.20150604246E+03 -0.67668897248E+02  0.20182341583E+03  0.29311508999E+03  0.00000000000E+00 0.  1.
<scales pt_clust_3="66.19453" pt_clust_4="278.05622" pt_clust_5="48.30418" pt_clust_6="66.19453"></scales>
<clustering>
<clus scale="   48.304">  2  5  1 -1</clus>
<clus scale="   66.195">  3  6 -1 -1</clus>
<clus scale="  278.056">  2  4  1 -1</clus>
<clus scale="   48.304">  2  3  1 -1</clus>
</clustering>
</event>
<event>
 6    0  0.1622933E+002  0.2166419E+03  0.7546771E-02  0.1136412E+00
         21   -1    0    0  504  502  0.00000000000E+00  0.00000000000E+00  0.28590597272E+03  0.28590597272E+03  0.00000000000E+00 0. -1.
          1   -1    0    0  503    0 -0.00000000000E+00 -0.00000000000E+00 -0.11169578077E+04  0.11169578077E+04  0.00000000000E+00 0. -1.
         21    1    1    2  503  502 -0.15976446776E+02  0.65439026240E+02  0.23664225527E+03  0.24604282145E+03  0.00000000000E+00 0. -1.
         21    1    1    2  504  505  0.85431614263E+02  0.94702767281E+02 -0.15746880991E+03  0.20264155778E+03  0.00000000000E+00 0. -1.
         21    1    1    2  505  501  0.14184003941E+02  0.52355768986E+02 -0.12148390957E+03  0.13304380030E+03  0.00000000000E+00 0. -1.
          1    1    1    2  501    0 -0.83639171427E+02 -0.21249756251E+03 -0.78874137079E+03  0.82113560090E+03  0.00000000000E+00 0. -1.
<scales pt_clust_3="67.36106" pt_clust_4="37.57937" pt_clust_5="37.57937" pt_clust_6="208.83766"></scales>
<clustering>
<clus scale="   37.579">  4  5 -1 -1</clus>
<clus scale="   67.361">  1  3  2 -1</clus>
<clus scale="  208.838">  2  6  1 -1</clus>
<clus scale="   67.361">  1  3  2 -1</clus>
</clustering>
</event>
<event>
 6    0  0.1622933E+002  0.1404709E+03  0.7546771E-02  0.1212697E+00
         21   -1    0    0  501  502  0.00000000000E+00  0.00000000000E+00  0.19713847035E+03  0.19713847035E+03  0.00000000000E+00 0. -1.
          1   -1    0    0  503    0 -0.00000000000E+00 -0.00000000000E+00 -0.16076579273E+04  0.16076579273E+04  0.00000000000E+00 0. -1.
         21    1    1    2  503  505  0.60553175047E+02 -0.13240591565E+03 -0.14411826031E+04  0.14485183151E+04  0.00000000000E+00 0. -1.
         21    1    1    2  504  502 -0.73093443442E+02 -0.46068077126E+02  0.31715022906E+02  0.92036742024E+02  0.00000000000E+00 0. -1.
         21    1    1    2  505  504 -0.64586613198E+02  0.81265925733E+02 -0.67164918624E+02  0.12363942568E+03  0.00000000000E+00 0. -1.
          1    1    1    2  501    0  0.77126881594E+02  0.97208067043E+02  0.66113041889E+02  0.14060191489E+03  0.00000000000E+00 0. -1.
<scales pt_clust_3="140.47095" pt_clust_4="86.39976" pt_clust_5="14000.00000" pt_clust_6="65.55442"></scales>
<clustering>
<clus scale="   86.400">  1  4  2 -1</clus>
<clus scale="   65.554">  1  6  2 -1</clus>
<clus scale="  140.471">  2  3  1 -1</clus>
<clus scale="   86.400">  1  3  2 -1</clus>
</clustering>
</event>
<event>
 6    0  0.1622933E+002  0.9555639E+02  0.7546771E-02  0.1289928E+00
          2   -1    0    0  505    0 -0.00000000000E+00  0.00000000000E+00  0.16538556963E+04  0.16538556963E+04  0.00000000000E+00 0. -1.
         21   -1    0    0  504  502  0.00000000000E+00 -0.00000000000E+00 -0.43094011641E+02  0.43094011641E+02  0.00000000000E+00 0. -1.
         21    1    1    2  503  501 -0.52961802801E+02  0.64786629856E+02  0.56076802705E+03  0.56697710724E+03  0.00000000000E+00 0. -1.
         21    1    1    2  504  503  0.18546561193E+02 -0.82133130270E+02  0.12100764170E+02  0.85066177260E+02  0.00000000000E+00 0. -1.
         21    1    1    2  505  502  0.54138836695E+02 -0.32410062930E+02  0.42186553316E+03  0.42655826553E+03  0.00000000000E+00 0. -1.
          2    1    1    2  501    0 -0.19723595086E+02  0.49756563345E+02  0.61602736031E+03  0.61834815796E+03  0.00000000000E+00 0. -1.
<scales pt_clust_3="33.41146" pt_clust_4="85.94028" pt_clust_5="63.09854" pt_clust_6="33.41146"></scales>
<clustering>
<clus scale="   33.411">  3  6 -1 -1</clus>
<clus scale="   63.099">  1  5  2 -1</clus>
<clus scale="   85.940">  2  4  1 -1</clus>
<clus scale="   85.940">  2  3  1 -1</clus>
</clustering>
</event>
<event>
 6    0  0.1622933E+002  0.9418912E+02  0.7546771E-02  0.1293013E+00
         21   -1    0    0  504  502  0.00000000000E+00  0.00000000000E+00  0.36792202204E+02  0.36792202204E+02  0.00000000000E+00 0.  1.
          3   -1    0    0  505    0 -0.00000000000E+00 -0.00000000000E+00 -0.16448424837E+04  0.16448424837E+04  0.00000000000E+00 0. -1.
         21    1    1    2  503  502  0.35007475361E+02  0.21937425790E+02  0.10220192927E+02  0.42558504731E+02  0.00000000000E+00 0.  1.
         21    1    1    2  504  501  0.16229176415E+02  0.26550014049E+02 -0.60860789105E+02  0.68354407785E+02  0.00000000000E+00 0. -1.
         21    1    1    2  505  503  0.55646295347E+02 -0.67318869195E+02 -0.48196975441E+03  0.48981954279E+03  0.00000000000E+00 0.  1.
          3    1    1    2  501    0 -0.10688294712E+03  0.18831429356E+02 -0.10754399309E+04  0.10809022306E+04  0.00000000000E+00 0. -1.
<scales pt_clust_3="64.51309" pt_clust_4="31.11735" pt_clust_5="94.18912" pt_clust_6="14000.00000"></scales>
<clustering>
<clus scale="   31.117">  1  4  2 -1</clus>
<clus scale="   64.513">  1  3  2 -1</clus>
<clus scale="   94.189">  1  5  2 -1</clus>
<clus scale="   31.117">  1  3  2 -1</clus>
</clustering>
</event>
<event>
 6    0  0.1622933E+002  0.7076568E+02  0.7546771E-02  0.1357508E+00
         21   -1    0    0  501  502  0.00000000000E+00  0.00000000000E+00  0.17789627327E+02  0.17789627327E+02  0.00000000000E+00 0.  1.
          1   -1    0    0  503    0 -0.00000000000E+00 -0.00000000000E+00 -0.17454650790E+04  0.17454650790E+04  0.00000000000E+00 0.  1.
         21    1    1    2  503  504 -0.11700622937E+01 -0.31000795694E+02 -0.48336919008E+03  0.48436369837E+03  0.00000000000E+00 0. -1.
         21    1    1    2  504  505 -0.58758843509E+02  0.69912075533E+01 -0.72818398977E+03  0.73058428783E+03  0.00000000000E+00 0. -1.
         21    1    1    2  505  502 -0.53073909981E+02 -0.57993613135E+01 -0.75640459668E+02  0.92584834887E+02  0.00000000000E+00 0.  1.
          1    1    1    2  501    0  0.11300281578E+03  0.29808949455E+02 -0.44048181213E+03  0.45572188521E+03  0.00000000000E+00 0.  1.
<scales pt_clust_3="31.02287" pt_clust_4="14000.00000" pt_clust_5="53.73085" pt_clust_6="70.76568"></scales>
<clustering>
<clus scale="   31.023">  2  3  1 -1</clus>
<clus scale="   53.731">  1  5  2 -1</clus>
<clus scale="   70.766">  1  6  2 -1</clus>
<clus scale="   53.731">  1  3  2 -1</clus>
</clustering>
</event>
<event>
 6    0  0.1622933E+002  0.6570701E+02  0.7546771E-02  0.1375332E+00
          3   -1    0    0  505    0 -0.00000000000E+00  0.00000000000E+00  0.75161000325E+02  0.75161000325E+02  0.00000000000E+00 0. -1.
         21   -1    0    0  501  502  0.00000000000E+00 -0.00000000000E+00 -0.11646637269E+04  0.11646637269E+04  0.00000000000E+00 0.  1.
         21    1    1    2  503  504  0.47563926959E+02  0.16319967981E+02 -0.57786662520E+02  0.76602655750E+02  0.00000000000E+00 0. -1.
         21    1    1    2  504  502  0.61910222987E+02  0.19662123842E+02 -0.97798222125E+03  0.98013708220E+03  0.00000000000E+00 0.  1.
         21    1    1    2  505  503  0.31291073063E+01 -0.39512364519E+02 -0.58111054466E+02  0.70341402557E+02  0.00000000000E+00 0. -1.
          3    1    1    2  501    0 -0.11260325725E+03  0.35302726973E+01  0.43772116391E+01  0.11274358674E+03  0.00000000000E+00 0. -1.
<scales pt_clust_3="49.22059" pt_clust_4="14000.00000" pt_clust_5="39.63607" pt_clust_6="65.70701"></scales>
<clustering>
<clus scale="   39.636">  1  5  2 -1</clus>
<clus scale="   49.221">  1  3  2 -1</clus>
<clus scale="   65.707">  1  6  2 -1</clus>
<clus scale="   65.707">  2  3  1 -1</clus>
</clustering>
</event>
<event>
 6    0  0.1622933E+002  0.7338364E+02  0.7546771E-02  0.1348951E+00
          1   -1    0    0  503    0 -0.00000000000E+00  0.00000000000E+00  0.49623463678E+03  0.49623463678E+03  0.00000000000E+00 0. -1.
         21   -1    0    0  505  502  0.00000000000E+00 -0.00000000000E+00 -0.79226964726E+03  0.79226964726E+03  0.00000000000E+00 0. -1.
         21    1    1    2  503  502  0.46869906981E+02  0.94871996219E+02 -0.70818693940E+03  0.71604903812E+03  0.00000000000E+00 0. -1.
         21    1    1    2  504  501  0.43995731631E+02 -0.27595009473E+02 -0.21179001008E+02  0.56086175063E+02  0.00000000000E+00 0.  1.
         21    1    1    2  505  504 -0.41617884532E+02 -0.13028894016E+02 -0.26305830376E+02  0.50929334415E+02  0.00000000000E+00 0.  1.
          1    1    1    2  501    0 -0.49247754080E+02 -0.54248092730E+02  0.45963676030E+03  0.46543973645E+03  0.00000000000E+00 0. -1.
<scales pt_clust_3="14000.00000" pt_clust_4="50.50989" pt_clust_5="43.60964" pt_clust_6="73.38364"></scales>
<clustering>
<clus scale="   43.610">  2  5  1 -1</clus>
<clus scale="   50.510">  2  4  1 -1</clus>
<clus scale="   73.384">  1  6  2 -1</clus>
<clus scale="   43.610">  2  3  1 -1</clus>
</clustering>
</event>
<event>
 6    0  0.1622933E+002  0.8962426E+02  0.7546771E-02  0.1303764E+00
          1   -1    0    0  503    0 -0.00000000000E+00  0.00000000000E+00  0.43229775079E+03  0.43229775079E+03  0.00000000000E+00 0.  1.
         21   -1    0    0  504  502  0.00000000000E+00 -0.00000000000E+00 -0.99284001848E+03  0.99284001848E+03  0.00000000000E+00 0.  1.
         21    1    1    2  503  502 -0.29980527321E+02 -0.13983162114E+02  0.30600349503E+01  0.33222351739E+02  0.00000000000E+00 0. -1.
         21    1    1    2  504  505 -0.55954943147E+02  0.60039526029E+01 -0.91458158034E+03  0.91631133912E+03  0.00000000000E+00 0.  1.
         21    1    1    2  505  501  0.13774891460E+03 -0.24333449780E+01  0.18565902756E+02  0.13901574510E+03  0.00000000000E+00 0. -1.
          1    1    1    2  501    0 -0.51813444128E+02  0.10412554489E+02  0.33241337494E+03  0.33658833332E+03  0.00000000000E+00 0.  1.
<scales pt_clust_3="33.08113" pt_clust_4="56.33528" pt_clust_5="14000.00000" pt_clust_6="89.62426"></scales>
<clustering>
<clus scale="   33.081">  1  3  2 -1</clus>
<clus scale="   56.335">  2  4  1 -1</clus>
<clus scale="   89.624">  1  6  2 -1</clus>
<clus scale="   56.335">  2  3  1 -1</clus>
</clustering>
</event>
<event>
 6    0  0.1622933E+002  0.1154711E+03  0.7546771E-02  0.1250761E+00
         21   -1    0    0  501  502  0.00000000000E+00  0.00000000000E+00  0.23218271458E+02  0.23218271458E+02  0.00000000000E+00 0.  1.
          2   -1    0    0  503    0 -0.00000000000E+00 -0.00000000000E+00 -0.19832798137E+04  0.19832798137E+04  0.00000000000E+00 0. -1.
         21    1    1    2  503  504 -0.51165601074E+02  0.70006423448E+02 -0.12610740306E+04  0.12640516322E+04  0.00000000000E+00 0. -1.
         21    1    1    2  504  505  0.78502171262E+02 -0.70889179375E+02 -0.33066876355E+03  0.34717387262E+03  0.00000000000E+00 0. -1.
         21    1    1    2  505  502  0.37943058014E+02 -0.27825552911E+02 -0.48399631256E+02  0.67501565552E+02  0.00000000000E+00 0.  1.
          2    1    1    2  501    0 -0.65279628202E+02  0.28708308837E+02 -0.31991911682E+03  0.32777101483E+03  0.00000000000E+00 0. -1.
<scales pt_clust_3="91.51396" pt_clust_4="46.96691" pt_clust_5="46.96691" pt_clust_6="71.31337"></scales>
<clustering>
<clus scale="   46.967">  4  5 -1 -1</clus>
<clus scale="   71.313">  1  6  2 -1</clus>
<clus scale="   91.514">  2  3  1 -1</clus>
<clus scale="   71.313">  1  3  2 -1</clus>
</clustering>
</event>
<event>
 6    0  0.1622933E+002  0.1320820E+03  0.7546771E-02  0.1224399E+00
         21   -1    0    0  505  502  0.00000000000E+00  0.00000000000E+00  0.44653865004E+02  0.44653865004E+02  0.00000000000E+00 0.  1.
          2   -1    0    0  503    0 -0.00000000000E+00 -0.00000000000E+00 -0.26713445697E+04  0.26713445697E+04  0.00000000000E+00 0. -1.
         21    1    1    2  503  504 -0.33161529007E+02  0.54305603558E+02 -0.44479910599E+03  0.44932730862E+03  0.00000000000E+00 0.  1.
         21    1    1    2  504  502  0.24301640644E+01  0.11424229868E+03 -0.18212946163E+03  0.21500778893E+03  0.00000000000E+00 0.  1.
         21    1    1    2  505  501  0.34595921362E+02  0.12521267366E+02  0.63983912315E+01  0.37344334533E+02  0.00000000000E+00 0.  1.
          2    1    1    2  501    0 -0.38645564197E+01 -0.18106916961E+03 -0.20061605283E+04  0.20143190026E+04  0.00000000000E+00 0. -1.
<scales pt_clust_3="63.00222" pt_clust_4="14000.00000" pt_clust_5="36.79212" pt_clust_6="132.08196"></scales>
<clustering>
<clus scale="   36.792">  1  5  2 -1</clus>
<clus scale="   63.002">  2  3  1 -1</clus>
<clus scale="  132.082">  2  6  1 -1</clus>
<clus scale="   36.792">  1  3  2 -1</clus>
</clustering>
</event>
<event>
 6    0  0.1622933E+002  0.1148898E+03  0.7546771E-02  0.1251774E+00
         21   -1    0    0  501  502  0.00000000000E+00  0.00000000000E+00  0.33944441531E+02  0.33944441531E+02  0.00000000000E+00 0.  1.
          2   -1    0    0  505    0 -0.00000000000E+00 -0.00000000000E+00 -0.21037914117E+04  0.21037914117E+04  0.00000000000E+00 0.  1.
         21    1    1    2  503  502 -0.21684189341E+02  0.70597677728E+02 -0.31681701878E+02  0.80361473368E+02  0.00000000000E+00 0.  1.
         21    1    1    2  504  503  0.48009371081E+02  0.90403031988E+02 -0.73515896444E+03  0.74225084096E+03  0.00000000000E+00 0.  1.
         21    1    1    2  505  504 -0.23448196034E+02 -0.21041050187E+02 -0.12857707965E+03  0.13238054654E+03  0.00000000000E+00 0.  1.
          2    1    1    2  501    0 -0.28769857065E+01 -0.13995965953E+03 -0.11744292242E+04  0.11827429924E+04  0.00000000000E+00 0.  1.
<scales pt_clust_3="73.48172" pt_clust_4="14000.00000" pt_clust_5="31.50466" pt_clust_6="114.88984"></scales>
<clustering>
<clus scale="   31.505">  2  5  1 -1</clus>
<clus scale="   73.482">  1  3  2 -1</clus>
<clus scale="  114.890">  1  6  2 -1</clus>
<clus scale="   73.482">  1  3  2 -1</clus>
</clustering>
</event>
<event>
 6    0  0.1622933E+002  0.1711815E+03  0.7546771E-02  0.1176621E+00
         -4   -1    0    0    0  501 -0.00000000000E+00  0.00000000000E+00  0.20224517493E+04  0.20224517493E+04  0.00000000000E+00 0. -1.
         21   -1    0    0  504  502  0.00000000000E+00 -0.00000000000E+00 -0.24406375645E+03  0.24406375645E+03  0.00000000000E+00 0.  1.
         21    1    1    2  503  505  0.77803637183E+02  0.46725760745E+02  0.97400382897E+03  0.97822296105E+03  0.00000000000E+00 0. -1.
         21    1    1    2  504  501 -0.12065692270E+03 -0.13334976031E+02 -0.21575848376E+03  0.24756340177E+03  0.00000000000E+00 0.  1.
         21    1    1    2  505  502 -0.37872069868E+02 -0.28546587089E+02  0.56792253238E+02  0.73990278675E+02  0.00000000000E+00 0.  1.
         -4    1    1    2    0  503  0.80725355387E+02 -0.48441976250E+01  0.96335039444E+03  0.96673886428E+03  0.00000000000E+00 0. -1.
<scales pt_clust_3="48.62543" pt_clust_4="163.25896" pt_clust_5="47.42575" pt_clust_6="48.62543"></scales>
<clustering>
<clus scale="   47.426">  2  5  1 -1</clus>
<clus scale="   48.625">  3  6 -1 -1</clus>
<clus scale="  163.259">  2  4  1 -1</clus>
<clus scale="   47.426">  2  3  1 -1</clus>
</clustering>
</event>
<event>
 6    0  0.1622933E+002  0.2093638E+03  0.7546771E-02  0.1142071E+00
         21   -1    0    0  504  502  0.00000000000E+00  0.00000000000E+00  0.69041047038E+03  0.69041047038E+03  0.00000000000E+00 0.  1.
         -3   -1    0    0    0  501 -0.00000000000E+00 -0.00000000000E+00 -0.17689410239E+03  0.17689410239E+03  0.00000000000E+00 0. -1.
         21    1    1    2  503  502 -0.15396638210E+02  0.77165399999E+02 -0.77138499641E+01  0.79063638332E+02  0.00000000000E+00 0. -1.
         21    1    1    2  504  505  0.23578041022E+02 -0.65661762044E+02  0.40696825487E+03  0.41290501509E+03  0.00000000000E+00 0.  1.
         21    1    1    2  505  501  0.84319645633E+02 -0.13368920512E+03  0.15007464072E+03  0.21795642682E+03  0.00000000000E+00 0. -1.
         -3    1    1    2    0  503 -0.92501048445E+02  0.12218556716E+03 -0.35812677642E+02  0.15737949252E+03  0.00000000000E+00 0. -1.
<scales pt_clust_3="36.73397" pt_clust_4="69.76669" pt_clust_5="202.99050" pt_clust_6="36.73397"></scales>
<clustering>
<clus scale="   36.734">  3  6 -1 -1</clus>
<clus scale="   69.767">  1  4  2 -1</clus>
<clus scale="  202.991">  1  5  2 -1</clus>
<clus scale="   69.767">  1  3  2 -1</clus>
</clustering>
</event>
<event>
 6    0  0.1622933E+002  0.8850210E+02  0.7546771E-02  0.1306520E+00
          3   -1    0    0  503    0 -0.00000000000E+00  0.00000000000E+00  0.17185638998E+04  0.17185638998E+04  0.00000000000E+00 0.  1.
         21   -1    0    0  505  502  0.00000000000E+00 -0.00000000000E+00 -0.45931922987E+02  0.45931922987E+02  0.00000000000E+00 0. -1.
         21    1    1    2  503  502 -0.61733337010E+02 -0.48702507286E+02  0.31692317080E+03  0.32653213518E+03  0.00000000000E+00 0.  1.
         21    1    1    2  504  501  0.62740793678E+02  0.94669084786E+02  0.40469861551E+03  0.42033273986E+03  0.00000000000E+00 0.  1.
         21    1    1    2  505  504 -0.45356229080E+02 -0.24027390917E+02 -0.12519091407E+02  0.52832098958E+02  0.00000000000E+00 0. -1.
          3    1    1    2  501    0  0.44348772412E+02 -0.21939186583E+02  0.96352928194E+03  0.96479884882E+03  0.00000000000E+00 0.  1.
<scales pt_clust_3="88.50210" pt_clust_4="14000.00000" pt_clust_5="50.56611" pt_clust_6="49.47870"></scales>
<clustering>
<clus scale="   49.479">  1  6  2 -1</clus>
<clus scale="   50.566">  2  5  1 -1</clus>
<clus scale="   88.502">  1  3  2 -1</clus>
<clus scale="   50.566">  2  3  1 -1</clus>
</clustering>
</event>
<event>
 6    0  0.1622933E+002  0.9431104E+02  0.7546771E-02  0.1292735E+00
          2   -1    0    0  505    0 -0.00000000000E+00  0.00000000000E+00  0.14348581629E+04  0.14348581629E+04  0.00000000000E+00 0. -1.
         21   -1    0    0  503  502  0.00000000000E+00 -0.00000000000E+00 -0.87403050489E+02  0.87403050489E+02  0.00000000000E+00 0.  1.
         21    1    1    2  503  501 -0.62077550331E+02 -0.71791468520E+02 -0.51679266593E+02  0.10806657116E+03  0.00000000000E+00 0.  1.
         21    1    1    2  504  502  0.37359794484E+02 -0.45009973809E+02  0.26235661911E+03  0.26879852599E+03  0.00000000000E+00 0. -1.
         21    1    1    2  505  504 -0.20203977016E+02  0.46101483151E+02  0.60168985404E+03  0.60379154341E+03  0.00000000000E+00 0. -1.
          2    1    1    2  501    0  0.44921732862E+02  0.70699959179E+02  0.53508790589E+03  0.54160457286E+03  0.00000000000E+00 0. -1.
<scales pt_clust_3="14000.00000" pt_clust_4="43.28264" pt_clust_5="50.33436" pt_clust_6="94.31104"></scales>
<clustering>
<clus scale="   50.334">  1  5  2 -1</clus>
<clus scale="   43.283">  1  4  2 -1</clus>
<clus scale="   94.311">  1  6  2 -1</clus>
<clus scale="   94.311">  2  3  1 -1</clus>
</clustering>
</event>
<event>
 6    0  0.1622933E+002  0.4130086E+03  0.7546771E-02  0.1039366E+00
         21   -1    0    0  504  502  0.00000000000E+00  0.00000000000E+00  0.49515882521E+02  0.49515882521E+02  0.00000000000E+00 0.  1.
          2   -1    0    0  505    0 -0.00000000000E+00 -0.00000000000E+00 -0.41208590919E+04  0.41208590919E+04  0.00000000000E+00 0.  1.
         21    1    1    2  503  502  0.15284789587E+03  0.34881987631E+03 -0.12396803052E+04  0.12968596858E+04  0.00000000000E+00 0.  1.
         21    1    1    2  504  501 -0.41360859398E+02 -0.12777605074E+03 -0.11420699639E+04  0.11499396690E+04  0.00000000000E+00 0. -1.
         21    1    1    2  505  503 -0.26666466111E+02  0.26693215245E+02 -0.66436325188E+03  0.66543381234E+03  0.00000000000E+00 0. -1.
          2    1    1    2  501    0 -0.84820570366E+02 -0.24773704081E+03 -0.10252296884E+04  0.10581418074E+04  0.00000000000E+00 0.  1.
<scales pt_clust_3="386.09837" pt_clust_4="103.91879" pt_clust_5="37.73100" pt_clust_6="103.91879"></scales>
<clustering>
<clus scale="   37.731">  2  5  1 -1</clus>
<clus scale="  103.919">  4  6 -1 -1</clus>
<clus scale="  386.098">  1  3  2 -1</clus>
<clus scale="  386.098">  1  3  2 -1</clus>
</clustering>
</event>
<event>
 6    0  0.1622933E+002  0.1769787E+03  0.7546771E-02  0.1170760E+00
          1   -1    0    0  503    0 -0.00000000000E+00  0.00000000000E+00  0.28638127694E+03  0.28638127694E+03  0.00000000000E+00 0.  1.
         21   -1    0    0  501  502  0.00000000000E+00 -0.00000000000E+00 -0.50631242570E+03  0.50631242570E+03  0.00000000000E+00 0.  1.
         21    1    1    2  503  504 -0.52408704139E+01 -0.16650278797E+03  0.15976182835E+03  0.23081266629E+03  0.00000000000E+00 0.  1.
         21    1    1    2  504  505  0.43261501651E+02 -0.80046720575E+02 -0.87169747354E+02  0.12600634847E+03  0.00000000000E+00 0.  1.
         21    1    1    2  505  502 -0.63316626403E+02 -0.20371658596E+01 -0.10817655711E+03  0.12536073042E+03  0.00000000000E+00 0. -1.
          1    1    1    2  501    0  0.25295995166E+02  0.24858667440E+03 -0.18434667264E+03  0.31051395746E+03  0.00000000000E+00 0.  1.
<scales pt_clust_3="176.97867" pt_clust_4="84.67429" pt_clust_5="63.34939" pt_clust_6="14000.00000"></scales>
<clustering>
<clus scale="   63.349">  2  5  1 -1</clus>
<clus scale="   84.674">  2  4  1 -1</clus>
<clus scale="  176.979">  1  3  2 -1</clus>
<clus scale="   63.349">  2  3  1 -1</clus>
</clustering>
</event>
<event>
 6    0  0.1622933E+002  0.8509864E+02  0.7546771E-02  0.1315175E+00
          1   -1    0    0  503    0 -0.00000000000E+00  0.00000000000E+00  0.91122668353E+03  0.91122668353E+03  0.00000000000E+00 0.  1.
         21   -1    0    0  505  502  0.00000000000E+00 -0.00000000000E+00 -0.56146432338E+02  0.56146432338E+02  0.00000000000E+00 0.  1.
         21    1    1    2  503  504  0.35252509707E+02 -0.27718935937E+01  0.74216658799E+02  0.82210311264E+02  0.00000000000E+00 0. -1.
         21    1    1    2  504  502  0.30335607108E+02  0.47962079108E+02  0.37359081927E+03  0.37787658082E+03  0.00000000000E+00 0. -1.
         21    1    1    2  505  501  0.20196012021E+02  0.51426815615E+02 -0.21638759810E+02  0.59336600778E+02  0.00000000000E+00 0.  1.
          1    1    1    2  501    0 -0.85784128835E+02 -0.96617001130E+02  0.42891153293E+03  0.44794962300E+03  0.00000000000E+00 0.  1.
<scales pt_clust_3="35.36132" pt_clust_4="14000.00000" pt_clust_5="55.48878" pt_clust_6="85.09864"></scales>
<clustering>
<clus scale="   35.361">  1  3  2 -1</clus>
<clus scale="   55.489">  2  5  1 -1</clus>
<clus scale="   85.099">  2  6  1 -1</clus>
<clus scale="   55.489">  2  3  1 -1</clus>
</clustering>
</event>
<event>
 6    0  0.1622933E+002  0.8629120E+02  0.7546771E-02  0.1312090E+00
         -2   -1    0    0    0  501 -0.00000000000E+00  0.00000000000E+00  0.17201365136E+03  0.17201365136E+03  0.00000000000E+00 0.  1.
         21   -1    0    0  504  502  0.00000000000E+00 -0.00000000000E+00 -0.68623635544E+03  0.68623635544E+03  0.00000000000E+00 0.  1.
         21    1    1    2  503  501  0.46980225543E+01  0.34486663899E+02  0.32768839504E+02  0.47803747188E+02  0.00000000000E+00 0.  1.
         21    1    1    2  504  505  0.51644836012E+02  0.65801615798E+02 -0.55544129864E+03  0.56170461807E+03  0.00000000000E+00 0.  1.
         21    1    1    2  505  503  0.81089070171E+02 -0.48689001512E+01  0.33745196672E+00  0.81235813308E+02  0.00000000000E+00 0. -1.
         -2    1    1    2    0  502 -0.13743192874E+03 -0.95419379545E+02  0.81123030926E+01  0.16750582823E+03  0.00000000000E+00 0.  1.
<scales pt_clust_3="34.80519" pt_clust_4="14000.00000" pt_clust_5="82.74788" pt_clust_6="86.29120"></scales>
<clustering>
<clus scale="   34.805">  1  3  2 -1</clus>
<clus scale="   82.748">  1  5  2 -1</clus>
<clus scale="   86.291">  1  6  2 -1</clus>
<clus scale="   86.291">  2  3  1 -1</clus>
</clustering>
</event>
<event>
 6    0  0.1622933E+002  0.1667818E+03  0.7546771E-02  0.1181246E+00
         21   -1    0    0  505  502  0.00000000000E+00  0.00000000000E+00  0.31436964945E+03  0.31436964945E+03  0.00000000000E+00 0.  1.
          2   -1    0    0  503    0 -0.00000000000E+00 -0.00000000000E+00 -0.26315116080E+04  0.26315116080E+04  0.00000000000E+00 0.  1.
         21    1    1    2  503  504 -0.53738038334E+02  0.23877732445E+02 -0.79924104156E+02  0.99225930562E+02  0.00000000000E+00 0.  1.
         21    1    1    2  504  502  0.20887452175E+02  0.70331009627E+02 -0.19883253694E+03  0.21193658089E+03  0.00000000000E+00 0.  1.
         21    1    1    2  505  501 -0.94260072797E+02 -0.13831581140E+03  0.27256445082E+03  0.31985560001E+03  0.00000000000E+00 0.  1.
          2    1    1    2  501    0  0.12711065896E+03  0.44107069324E+02 -0.23109497683E+04  0.23148631460E+04  0.00000000000E+00 0.  1.
<scales pt_clust_3="58.80411" pt_clust_4="74.13032" pt_clust_5="14000.00000" pt_clust_6="166.78184"></scales>
<clustering>
<clus scale="   58.804">  2  3  1 -1</clus>
<clus scale="   74.130">  2  4  1 -1</clus>
<clus scale="  166.782">  2  6  1 -1</clus>
<clus scale="  166.782">  1  3  2 -1</clus>
</clustering>
</event>
<event>
 6    0  0.1622933E+002  0.1395723E+03  0.7546771E-02  0.1213906E+00
         21   -1    0    0  503  502  0.00000000000E+00  0.00000000000E+00  0.28481631352E+03  0.28481631352E+03  0.00000000000E+00 0. -1.
          2   -1    0    0  504    0 -0.00000000000E+00 -0.00000000000E+00 -0.23420689222E+03  0.23420689222E+03  0.00000000000E+00 0. -1.
         21    1    1    2  503  505  0.11613514420E+03 -0.24200175030E+02  0.16331868498E+03  0.20185641693E+03  0.00000000000E+00 0. -1.
         21    1    1    2  504  502  0.59023266478E+02 -0.49049649873E+02 -0.90415692360E+02  0.11859431505E+03  0.00000000000E+00 0.  1.
         21    1    1    2  505  501 -0.78431268231E+02  0.50358340174E+02  0.10751707919E+02  0.93824439698E+02  0.00000000000E+00 0. -1.
          2    1    1    2  501    0 -0.96727142448E+02  0.22891484729E+02 -0.33045279239E+02  0.10474803406E+03  0.00000000000E+00 0. -1.
<scales pt_clust_3="128.81148" pt_clust_4="76.74382" pt_clust_5="52.03934" pt_clust_6="52.03934"></scales>
<clustering>
<clus scale="   52.039">  5  6 -1 -1</clus>
<clus scale="   76.744">  2  4  1 -1</clus>
<clus scale="  128.811">  1  3  2 -1</clus>
<clus scale="  128.811">  1  3  2 -1</clus>
</clustering>
</event>
<event>
 6    0  0.1622933E+002  0.1037171E+03  0.7546771E-02  0.1272668E+00
         21   -1    0    0  505  502  0.00000000000E+00  0.00000000000E+00  0.41754515704E+03  0.41754515704E+03  0.00000000000E+00 0.  1.
          3   -1    0    0  503    0 -0.00000000000E+00 -0.00000000000E+00 -0.78155421324E+02  0.78155421324E+02  0.00000000000E+00 0.  1.
         21    1    1    2  503  504 -0.60551551640E+02  0.65474191476E+02  0.10599726410E+02  0.89809322208E+02  0.00000000000E+00 0.  1.
         21    1    1    2  504  502  0.54909926963E+02  0.54090495924E+02  0.23334829008E+03  0.24574846146E+03  0.00000000000E+00 0.  1.
         21    1    1    2  505  501  0.22940414293E+02 -0.86427965727E+02  0.78950354919E+02  0.11928627083E+03  0.00000000000E+00 0.  1.
          3    1    1    2  501    0 -0.17298789616E+02 -0.33136721673E+02  0.16491364312E+02  0.40856523865E+02  0.00000000000E+00 0.  1.
<scales pt_clust_3="92.45644" pt_clust_4="77.07712" pt_clust_5="30.38824" pt_clust_6="30.38824"></scales>
<clustering>
<clus scale="   30.388">  5  6 -1 -1</clus>
<clus scale="   77.077">  1  4  2 -1</clus>
<clus scale="   92.456">  2  3  1 -1</clus>
<clus scale="   77.077">  1  3  2 -1</clus>
</clustering>
</event>
<event>
 6    0  0.1622933E+002  0.1013331E+03  0.7546771E-02  0.1277517E+00
         21   -1    0    0  505  502  0.00000000000E+00  0.00000000000E+00  0.70507235390E+02  0.70507235390E+02  0.00000000000E+00 0.  1.
          1   -1    0    0  504    0 -0.00000000000E+00 -0.00000000000E+00 -0.11534896741E+04  0.11534896741E+04  0.00000000000E+00 0.  1.
         21    1    1    2  503  502  0.94912297411E+01 -0.73428497388E+02  0.19934578138E+02  0.76676039780E+02  0.00000000000E+00 0.  1.
         21    1    1    2  504  503  0.11399689698E+03  0.12469538065E+02 -0.30471359159E+03  0.32557818539E+03  0.00000000000E+00 0.  1.
         21    1    1    2  505  501 -0.79588538173E+02  0.88228327877E+02 -0.33083692183E+03  0.35152758369E+03  0.00000000000E+00 0.  1.
          1    1    1    2  501    0 -0.43899588551E+02 -0.27269368553E+02 -0.46736650340E+03  0.47021510061E+03  0.00000000000E+00 0.  1.
<scales pt_clust_3="74.95212" pt_clust_4="101.33312" pt_clust_5="14000.00000" pt_clust_6="51.67971"></scales>
<clustering>
<clus scale="   51.680">  2  6  1 -1</clus>
<clus scale="   74.952">  1  3  2 -1</clus>
<clus scale="  101.333">  2  4  1 -1</clus>
<clus scale="   74.952">  1  3  2 -1</clus>
</clustering>
</event>
<event>
 6    0  0.1622933E+002  0.3087482E+03  0.7546771E-02  0.1080947E+00
         21   -1    0    0  501  502  0.00000000000E+00  0.00000000000E+00  0.16376599113E+03  0.16376599113E+03  0.00000000000E+00 0.  1.
          3   -1    0    0  505    0 -0.00000000000E+00 -0.00000000000E+00 -0.20861182143E+04  0.20861182143E+04  0.00000000000E+00 0. -1.
         21    1    1    2  503  504  0.17465122995E+02 -0.54139197192E+02 -0.27967939999E+02  0.63389974457E+02  0.00000000000E+00 0.  1.
         21    1    1    2  504  502 -0.91557946921E+02 -0.23066649790E+03  0.15605269853E+02  0.24866325692E+03  0.00000000000E+00 0.  1.
         21    1    1    2  505  503  0.38796513209E+02  0.30497100757E+02 -0.12362826259E+03  0.13311344749E+03  0.00000000000E+00 0. -1.
          3    1    1    2  501    0  0.35296310717E+02  0.25430859433E+03 -0.17863612904E+04  0.18047175265E+04  0.00000000000E+00 0. -1.
<scales pt_clust_3="49.33976" pt_clust_4="49.33976" pt_clust_5="49.34818" pt_clust_6="291.04142"></scales>
<clustering>
<clus scale="   49.340">  3  4 -1 -1</clus>
<clus scale="   49.348">  2  5  1 -1</clus>
<clus scale="  291.041">  2  6  1 -1</clus>
<clus scale="  308.748">  1  3  2 -1</clus>
</clustering>
</event>
<event>
 6    0  0.1622933E+002  0.9069871E+02  0.7546771E-02  0.1301168E+00
         21   -1    0    0  501  502  0.00000000000E+00  0.00000000000E+00  0.10845425669E+03  0.10845425669E+03  0.00000000000E+00 0.  1.
          2   -1    0    0  505    0 -0.00000000000E+00 -0.00000000000E+00 -0.10216804533E+04  0.10216804533E+04  0.00000000000E+00 0. -1.
         21    1    1    2  503  502 -0.40580555538E+02 -0.11263001068E+02  0.73982001293E+02  0.85129155970E+02  0.00000000000E+00 0.  1.
         21    1    1    2  504  503  0.48410200951E+02 -0.88769360863E+02 -0.93062223907E+02  0.13741952009E+03  0.00000000000E+00 0. -1.
         21    1    1    2  505  504 -0.63152399809E+02  0.44997587047E+02 -0.43610369455E+03  0.44294406062E+03  0.00000000000E+00 0. -1.
          2    1    1    2  501    0  0.55322754396E+02  0.55034774884E+02 -0.45804227947E+03  0.46464197333E+03  0.00000000000E+00 0. -1.
<scales pt_clust_3="42.11457" pt_clust_4="14000.00000" pt_clust_5="90.69871" pt_clust_6="73.88028"></scales>
<clustering>
<clus scale="   42.115">  1  3  2 -1</clus>
<clus scale="   73.880">  2  6  1 -1</clus>
<clus scale="   90.699">  2  5  1 -1</clus>
<clus scale="   42.115">  1  3  2 -1</clus>
</clustering>
</event>
<event>
 6    0  0.1622933E+002  0.1127813E+03  0.7546771E-02  0.1255504E+00
         21   -1    0    0  501  502  0.00000000000E+00  0.00000000000E+00  0.41688623669E+02  0.41688623669E+02  0.00000000000E+00 0. -1.
          2   -1    0    0  505    0 -0.00000000000E+00 -0.00000000000E+00 -0.33316213496E+04  0.33316213496E+04  0.00000000000E+00 0. -1.
         21    1    1    2  503  502  0.90047795920E+02 -0.65412022545E+02 -0.48733029992E+02  0.12149998541E+03  0.00000000000E+00 0. -1.
         21    1    1    2  504  503  0.40782466340E+02 -0.21928887074E+02 -0.17046611783E+04  0.17052899514E+04  0.00000000000E+00 0.  1.
         21    1    1    2  505  504 -0.18079325378E+01  0.35847265864E+02 -0.26638111105E+03  0.26878837664E+03  0.00000000000E+00 0. -1.
          2    1    1    2  501    0 -0.12902232972E+03  0.51493643756E+02 -0.12701574066E+04  0.12777316598E+04  0.00000000000E+00 0. -1.
<scales pt_clust_3="14000.00000" pt_clust_4="39.82578" pt_clust_5="35.89283" pt_clust_6="112.78129"></scales>
<clustering>
<clus scale="   35.893">  2  5  1 -1</clus>
<clus scale="   39.826">  2  4  1 -1</clus>
<clus scale="  112.781">  2  6  1 -1</clus>
<clus scale="  112.781">  1  3  2 -1</clus>
</clustering>
</event>
<event>
 6    0  0.1622933E+002  0.9985911E+02  0.7546771E-02  0.1280592E+00
          2   -1    0    0  503    0 -0.00000000000E+00  0.00000000000E+00  0.14350898977E+04  0.14350898977E+04  0.00000000000E+00 0.  1.
         21   -1    0    0  505  502  0.00000000000E+00 -0.00000000000E+00 -0.16630707475E+03  0.16630707475E+03  0.00000000000E+00 0. -1.
         21    1    1    2  503  504 -0.32484093697E+02  0.16845235307E+02  0.59613609663E+02  0.69948271979E+02  0.00000000000E+00 0. -1.
         21    1    1    2  504  502 -0.10591762945E+03  0.42868911167E+01 -0.12749512141E+03  0.16580689868E+03  0.00000000000E+00 0. -1.
         21    1    1    2  505  501  0.65503234577E+02 -0.33274077599E+02  0.87333360538E+02  0.11412691989E+03  0.00000000000E+00 0.  1.
          2    1    1    2  501    0  0.72898488574E+02  0.12141951175E+02  0.12493309742E+04  0.12515148819E+04  0.00000000000E+00 0.  1.
<scales pt_clust_3="36.59205" pt_clust_4="14000.00000" pt_clust_5="99.85911" pt_clust_6="51.26502"></scales>
<clustering>
<clus scale="   36.592">  1  3  2 -1</clus>
<clus scale="   51.265">  1  6  2 -1</clus>
<clus scale="   99.859">  1  5  2 -1</clus>
<clus scale="   99.859">  2  3  1 -1</clus>
</clustering>
</event>
<event>
 6    0  0.1622933E+002  0.7921602E+02  0.7546771E-02  0.1331291E+00
         21   -1    0    0  501  502  0.00000000000E+00  0.00000000000E+00  0.11922964918E+03  0.11922964918E+03  0.00000000000E+00 0. -1.
          2   -1    0    0  505    0 -0.00000000000E+00 -0.00000000000E+00 -0.19438954410E+04  0.19438954410E+04  0.00000000000E+00 0. -1.
         21    1    1    2  503  502  0.35159132894E+02  0.69466697584E+02  0.94673622757E+02  0.12257602353E+03  0.00000000000E+00 0. -1.
         21    1    1    2  504  503 -0.17668989107E+02  0.63916616880E+02 -0.76032594068E+03  0.76321233163E+03  0.00000000000E+00 0.  1.
         21    1    1    2  505  504  0.38188421756E+02 -0.24506487200E+02 -0.72516347835E+03  0.72658171860E+03  0.00000000000E+00 0. -1.
          2    1    1    2  501    0 -0.55678565543E+02 -0.10887682726E+03 -0.43384999552E+03  0.45075501638E+03  0.00000000000E+00 0. -1.
<scales pt_clust_3="79.21602" pt_clust_4="48.98571" pt_clust_5="45.37536" pt_clust_6="14000.00000"></scales>
<clustering>
<clus scale="   45.375">  2  5  1 -1</clus>
<clus scale="   48.986">  2  4  1 -1</clus>
<clus scale="   79.216">  1  3  2 -1</clus>
<clus scale="   79.216">  1  3  2 -1</clus>
</clustering>
</event>
<event>
 6    0  0.1622933E+002  0.9330277E+02  0.7546771E-02  0.1295045E+00
         21   -1    0    0  503  502  0.00000000000E+00  0.00000000000E+00  0.14933274501E+03  0.14933274501E+03  0.00000000000E+00 0.  1.
          2   -1    0    0  505    0 -0.00000000000E+00 -0.00000000000E+00 -0.76144346092E+03  0.76144346092E+03  0.00000000000E+00 0. -1.
         21    1    1    2  503  501  0.61351762180E+02 -0.39700640560E+02 -0.15518978506E+03  0.17153439588E+03  0.00000000000E+00 0. -1.
         21    1    1    2  504  502  0.39627214071E+02 -0.19449792943E+02  0.10538727083E+03  0.11425886133E+03  0.00000000000E+00 0.  1.
         21    1    1    2  505  504  0.13478744845E+02  0.62589875794E+02 -0.14912633512E+02  0.65738540848E+02  0.00000000000E+00 0.  1.
          2    1    1    2  501    0 -0.11445772110E+03 -0.34394422907E+01 -0.54739556817E+03  0.55924440787E+03  0.00000000000E+00 0. -1.
<scales pt_clust_3="93.30277" pt_clust_4="44.14307" pt_clust_5="63.45406" pt_clust_6="14000.00000"></scales>
<clustering>
<clus scale="   44.143">  1  4  2 -1</clus>
<clus scale="   63.454">  1  5  2 -1</clus>
<clus scale="   93.303">  1  3  2 -1</clus>
<clus scale="   44.143">  1  3  2 -1</clus>
</clustering>
</event>
<event>
 6    0  0.1622933E+002  0.1298078E+03  0.7546771E-02  0.1227741E+00
         21   -1    0    0  504  502  0.00000000000E+00  0.00000000000E+00  0.32323150121E+03  0.32323150121E+03  0.00000000000E+00 0.  1.
          2   -1    0    0  503    0 -0.00000000000E+00 -0.00000000000E+00 -0.72393305020E+03  0.72393305020E+03  0.00000000000E+00 0.  1.
         21    1    1    2  503  505 -0.81897464832E+01  0.40095048486E+02 -0.30390519734E+02  0.50973214047E+02  0.00000000000E+00 0.  1.
         21    1    1    2  504  501  0.11478640508E+03 -0.70503664215E+02 -0.29161011904E+03  0.32122133644E+03  0.00000000000E+00 0.  1.
         21    1    1    2  505  502  0.28147615329E+02  0.34586158967E+02  0.28428398669E+03  0.28776010100E+03  0.00000000000E+00 0.  1.
          2    1    1    2  501    0 -0.13474427392E+03 -0.41775432377E+01 -0.36298489690E+03  0.38720989993E+03  0.00000000000E+00 0.  1.
<scales pt_clust_3="40.92291" pt_clust_4="14000.00000" pt_clust_5="44.65852" pt_clust_6="129.80784"></scales>
<clustering>
<clus scale="   40.923">  2  3  1 -1</clus>
<clus scale="   44.659">  1  5  2 -1</clus>
<clus scale="  129.808">  2  6  1 -1</clus>
<clus scale="   44.659">  1  3  2 -1</clus>
</clustering>
</event>
<event>
 6    0  0.1622933E+002  0.8754818E+02  0.7546771E-02  0.1308900E+00
          2   -1    0    0  504    0 -0.00000000000E+00  0.00000000000E+00  0.57745157511E+03  0.57745157511E+03  0.00000000000E+00 0. -1.
         21   -1    0    0  501  502  0.00000000000E+00 -0.00000000000E+00 -0.83240219190E+02  0.83240219190E+02  0.00000000000E+00 0. -1.
         21    1    1    2  503  505 -0.50261629552E+02 -0.34631888870E+02  0.10098119765E+03  0.11799492112E+03  0.00000000000E+00 0. -1.
         21    1    1    2  504  503  0.83467646747E+02  0.75751963811E+02  0.39067403148E+03  0.40660964936E+03  0.00000000000E+00 0. -1.
         21    1    1    2  505  502 -0.72317813893E+02 -0.29295929232E+01 -0.22723044633E+02  0.75860302388E+02  0.00000000000E+00 0. -1.
          2    1    1    2  501    0  0.39111796698E+02 -0.38190482018E+02  0.25279171423E+02  0.60226921436E+02  0.00000000000E+00 0. -1.
<scales pt_clust_3="14000.00000" pt_clust_4="87.54818" pt_clust_5="53.33779" pt_clust_6="54.66485"></scales>
<clustering>
<clus scale="   54.665">  2  6  1 -1</clus>
<clus scale="   53.338">  2  5  1 -1</clus>
<clus scale="   87.548">  1  4  2 -1</clus>
<clus scale="   54.665">  2  3  1 -1</clus>
</clustering>
</event>
<event>
 6    0  0.1622933E+002  0.9046975E+02  0.7546771E-02  0.1301718E+00
          1   -1    0    0  505    0 -0.00000000000E+00  0.00000000000E+00  0.23533629115E+03  0.23533629115E+03  0.00000000000E+00 0. -1.
         21   -1    0    0  503  502  0.00000000000E+00 -0.00000000000E+00 -0.15739237584E+03  0.15739237584E+03  0.00000000000E+00 0. -1.
         21    1    1    2  503  501  0.41858028240E+01  0.71343600304E+02  0.10769918047E+03  0.12925379578E+03  0.00000000000E+00 0. -1.
         21    1    1    2  504  502 -0.20066327124E+02 -0.91138473109E+02 -0.11058439518E+03  0.14469895377E+03  0.00000000000E+00 0. -1.
         21    1    1    2  505  504 -0.24727147369E+02 -0.18273706640E+02  0.35722218637E+02  0.47132123607E+02  0.00000000000E+00 0. -1.
          1    1    1    2  501    0  0.40607671668E+02  0.38068579445E+02  0.45106911377E+02  0.71643793822E+02  0.00000000000E+00 0. -1.
<scales pt_clust_3="14000.00000" pt_clust_4="90.46975" pt_clust_5="30.74671" pt_clust_6="46.48079"></scales>
<clustering>
<clus scale="   30.747">  1  5  2 -1</clus>
<clus scale="   46.481">  1  6  2 -1</clus>
<clus scale="   90.470">  2  4  1 -1</clus>
<clus scale="   90.470">  2  3  1 -1</clus>
</clustering>
</event>
<event>
 6    0  0.1622933E+002  0.1007071E+03  0.7546771E-02  0.1278816E+00
          2   -1    0    0  504    0 -0.00000000000E+00  0.00000000000E+00  0.17412437506E+04  0.17412437506E+04  0.00000000000E+00 0.  1.
         21   -1    0    0  501  502  0.00000000000E+00 -0.00000000000E+00 -0.16540121457E+02  0.16540121457E+02  0.00000000000E+00 0.  1.
         21    1    1    2  503  505 -0.64045282612E+02  0.60629890423E+02  0.67925600751E+03  0.68495730201E+03  0.00000000000E+00 0.  1.
         21    1    1    2  504  503  0.19755024182E+02  0.25037796748E+02  0.54956280697E+03  0.55048744859E+03  0.00000000000E+00 0.  1.
         21    1    1    2  505  502 -0.21926957717E+02  0.21013758547E+02  0.44940398515E+02  0.54240288916E+02  0.00000000000E+00 0.  1.
          2    1    1    2  501    0  0.66217216147E+02 -0.10668144572E+03  0.45094441615E+03  0.46809883255E+03  0.00000000000E+00 0.  1.
<scales pt_clust_3="100.70706" pt_clust_4="32.02775" pt_clust_5="30.37054" pt_clust_6="14000.00000"></scales>
<clustering>
<clus scale="   30.371">  2  5  1 -1</clus>
<clus scale="   32.028">  1  4  2 -1</clus>
<clus scale="  100.707">  1  3  2 -1</clus>
<clus scale="   30.371">  2  3  1 -1</clus>
</clustering>
</event>
<event>
 6    0  0.1622933E+002  0.7935208E+02  0.7546771E-02  0.1330900E+00
          2   -1    0    0  503    0 -0.00000000000E+00  0.00000000000E+00  0.16879517267E+04  0.16879517267E+04  0.00000000000E+00 0. -1.
         21   -1    0    0  501  502  0.00000000000E+00 -0.00000000000E+00 -0.16964129992E+03  0.16964129992E+03  0.00000000000E+00 0.  1.
         21    1    1    2  503  505  0.15747673629E+02  0.30364785289E+02  0.56405255576E+03  0.56508874973E+03  0.00000000000E+00 0. -1.
         21    1    1    2  504  502  0.27808220313E+02  0.73998568767E+02 -0.14701267271E+03  0.16691857666E+03  0.00000000000E+00 0.  1.
         21    1    1    2  505  504  0.48153074357E+02 -0.86931583578E+02  0.24718445722E+03  0.26641316538E+03  0.00000000000E+00 0.  1.
          2    1    1    2  501    0 -0.91708968298E+02 -0.17431770478E+02  0.85408608655E+03  0.85917253490E+03  0.00000000000E+00 0. -1.
<scales pt_clust_3="34.20540" pt_clust_4="79.35208" pt_clust_5="76.82981" pt_clust_6="14000.00000"></scales>
<clustering>
<clus scale="   34.205">  1  3  2 -1</clus>
<clus scale="   79.352">  2  4  1 -1</clus>
<clus scale="   76.830">  2  5  1 -1</clus>
<clus scale="   79.352">  2  3  1 -1</clus>
</clustering>
</event>
<event>
 6    0  0.1622933E+002  0.1399817E+03  0.7546771E-02  0.1213354E+00
         -1   -1    0    0    0  501 -0.00000000000E+00  0.00000000000E+00  0.44094823132E+03  0.44094823132E+03  0.00000000000E+00 0.  1.
         21   -1    0    0  503  502  0.00000000000E+00 -0.00000000000E+00 -0.66124344119E+03  0.66124344119E+03  0.00000000000E+00 0.  1.
         21    1    1    2  503  504 -0.10036879619E+02  0.14674774873E+03 -0.58335022019E+03  0.60160877662E+03  0.00000000000E+00 0.  1.
         21    1    1    2  504  505 -0.37179658362E+01 -0.59613541201E+02  0.23895287048E+03  0.24630483526E+03  0.00000000000E+00 0. -1.
         21    1    1    2  505  501 -0.27657687498E+02  0.13325855682E+02  0.14100653094E+03  0.14430997150E+03  0.00000000000E+00 0.  1.
         -1    1    1    2    0  502  0.41412532953E+02 -0.10046006321E+03 -0.16904391096E+02  0.10996808912E+03  0.00000000000E+00 0.  1.
<scales pt_clust_3="139.98170" pt_clust_4="55.37277" pt_clust_5="30.70059" pt_clust_6="14000.00000"></scales>
<clustering>
<clus scale="   30.701">  1  5  2 -1</clus>
<clus scale="   55.373">  1  4  2 -1</clus>
<clus scale="  139.982">  2  3  1 -1</clus>
<clus scale="  139.982">  2  3  1 -1</clus>
</clustering>
</event>
<event>
 6    0  0.1622933E+002  0.1210809E+03  0.7546771E-02  0.1241324E+00
          2   -1    0    0  505    0 -0.00000000000E+00  0.00000000000E+00  0.10584221606E+04  0.10584221606E+04  0.00000000000E+00 0. -1.
         21   -1    0    0  501  502  0.00000000000E+00 -0.00000000000E+00 -0.33641098455E+02  0.33641098455E+02  0.00000000000E+00 0.  1.
         21    1    1    2  503  502 -0.12872116683E+02  0.29381713364E+02  0.99877718094E+01  0.33596607773E+02  0.00000000000E+00 0.  1.
         21    1    1    2  504  503 -0.10510727719E+03  0.53665238797E+00  0.27670804064E+03  0.29599859370E+03  0.00000000000E+00 0.  1.
         21    1    1    2  505  504 -0.14067175873E+02  0.37409060554E+02  0.21984718800E+03  0.22345046278E+03  0.00000000000E+00 0.  1.
          2    1    1    2  501    0  0.13204656975E+03 -0.67327426306E+02  0.51823806169E+03  0.53901759480E+03  0.00000000000E+00 0. -1.
<scales pt_clust_3="32.07766" pt_clust_4="121.08095" pt_clust_5="42.60958" pt_clust_6="14000.00000"></scales>
<clustering>
<clus scale="   32.078">  2  3  1 -1</clus>
<clus scale="   42.610">  1  5  2 -1</clus>
<clus scale="  121.081">  2  4  1 -1</clus>
<clus scale="   32.078">  2  3  1 -1</clus>
</clustering>
</event>
<event>
 6    0  0.1622933E+002  0.3642680E+03  0.7546771E-02  0.1056907E+00
          4   -1    0    0  505    0 -0.00000000000E+00  0.00000000000E+00  0.23975154489E+04  0.23975154489E+04  0.00000000000E+00 0. -1.
         21   -1    0    0  501  502  0.00000000000E+00 -0.00000000000E+00 -0.27350074945E+03  0.27350074945E+03  0.00000000000E+00 0. -1.
         21    1    1    2  503  504  0.24637812393E+03 -0.39514562914E+02  0.35522711354E+03  0.43410814646E+03  0.00000000000E+00 0.  1.
         21    1    1    2  504  502  0.32797035459E+03 -0.30162288828E+02  0.19700451421E+02  0.32994306318E+03  0.00000000000E+00 0. -1.
         21    1    1    2  505  503  0.47485586259E+02 -0.67720190080E+02  0.47982034635E+03  0.48689677532E+03  0.00000000000E+00 0. -1.
          4    1    1    2  501    0 -0.62183406478E+03  0.13739704182E+03  0.12692667882E+04  0.14200682134E+04  0.00000000000E+00 0. -1.
<scales pt_clust_3="261.69126" pt_clust_4="364.26803" pt_clust_5="82.70976" pt_clust_6="14000.00000"></scales>
<clustering>
<clus scale="   82.710">  1  5  2 -1</clus>
<clus scale="  261.691">  1  3  2 -1</clus>
<clus scale="  364.268">  2  4  1 -1</clus>
<clus scale="  364.268">  2  3  1 -1</clus>
</clustering>
</event>
<event>
 6    0  0.1622933E+002  0.1813672E+03  0.7546771E-02  0.1166486E+00
         21   -1    0    0  504  502  0.00000000000E+00  0.00000000000E+00  0.61370325521E+02  0.61370325521E+02  0.00000000000E+00 0. -1.
          1   -1    0    0  505    0 -0.00000000000E+00 -0.00000000000E+00 -0.34923136490E+04  0.34923136490E+04  0.00000000000E+00 0. -1.
         21    1    1    2  503  502 -0.32285136496E+02  0.26167962186E+02 -0.11013623695E+03  0.11771611178E+03  0.00000000000E+00 0. -1.
         21    1    1    2  504  501 -0.19308750386E+02 -0.20130072657E+03 -0.13876226646E+03  0.24525451464E+03  0.00000000000E+00 0. -1.
         21    1    1    2  505  503  0.65837885859E+02  0.68958716021E+01 -0.89827624928E+03  0.90071216284E+03  0.00000000000E+00 0. -1.
          1    1    1    2  501    0 -0.14243998977E+02  0.16823689278E+03 -0.22837685708E+04  0.22900011853E+04  0.00000000000E+00 0. -1.
<scales pt_clust_3="41.55830" pt_clust_4="14000.00000" pt_clust_5="65.57946" pt_clust_6="181.36720"></scales>
<clustering>
<clus scale="   41.558">  1  3  2 -1</clus>
<clus scale="   65.579">  2  5  1 -1</clus>
<clus scale="  181.367">  2  6  1 -1</clus>
<clus scale="   41.558">  1  3  2 -1</clus>
</clustering>
</event>
<event>
 6    0  0.1622933E+002  0.1718734E+03  0.7546771E-02  0.1175908E+00
         21   -1    0    0  503  502  0.00000000000E+00  0.00000000000E+00  0.56586739446E+02  0.56586739446E+02  0.00000000000E+00 0. -1.
          2   -1    0    0  504    0 -0.00000000000E+00 -0.00000000000E+00 -0.93519553949E+03  0.93519553949E+03  0.00000000000E+00 0. -1.
         21    1    1    2  503  501 -0.40409319701E+02  0.58574880238E+02 -0.84345405121E+02  0.11035432515E+03  0.00000000000E+00 0. -1.
         21    1    1    2  504  505  0.73853871207E+02  0.61512885921E+02 -0.33940784585E+03  0.35275475227E+03  0.00000000000E+00 0. -1.
         21    1    1    2  505  502  0.78758627880E+02 -0.81472712658E-01 -0.27051609959E+03  0.28174791612E+03  0.00000000000E+00 0. -1.
          2    1    1    2  501    0 -0.11220317939E+03 -0.12000629345E+03 -0.18433944949E+03  0.24692528540E+03  0.00000000000E+00 0. -1.
<scales pt_clust_3="71.16129" pt_clust_4="53.72150" pt_clust_5="53.72150" pt_clust_6="161.30231"></scales>
<clustering>
<clus scale="   53.721">  4  5 -1 -1</clus>
<clus scale="   71.161">  1  3  2 -1</clus>
<clus scale="  161.302">  1  6  2 -1</clus>
<clus scale="   71.161">  1  3  2 -1</clus>
</clustering>
</event>
<event>
 6    0  0.1622933E+002  0.6783823E+02  0.7546771E-02  0.1367602E+00
         21   -1    0    0  504  502  0.00000000000E+00  0.00000000000E+00  0.19339404642E+03  0.19339404642E+03  0.00000000000E+00 0.  1.
          3   -1    0    0  505    0 -0.00000000000E+00 -0.00000000000E+00 -0.15940418464E+03  0.15940418464E+03  0.00000000000E+00 0.  1.
         21    1    1    2  503  502 -0.48463801630E+01  0.56221383361E+02  0.11182045794E+03  0.12525232997E+03  0.00000000000E+00 0.  1.
         21    1    1    2  504  501  0.37215945457E+02 -0.55160654394E+02  0.24653701766E+01  0.66586803794E+02  0.00000000000E+00 0.  1.
         21    1    1    2  505  503 -0.13072601369E+02  0.67218845310E+02 -0.36918841871E+02  0.77796317114E+02  0.00000000000E+00 0.  1.
          3    1    1    2  501    0 -0.19296963925E+02 -0.68279574278E+02 -0.43377124473E+02  0.83162780183E+02  0.00000000000E+00 0.  1.
<scales pt_clust_3="56.42988" pt_clust_4="45.58557" pt_clust_5="67.83823" pt_clust_6="14000.00000"></scales>
<clustering>
<clus scale="   56.430">  1  3  2 -1</clus>
<clus scale="   45.586">  1  4  2 -1</clus>
<clus scale="   67.838">  1  5  2 -1</clus>
<clus scale="   56.430">  1  3  2 -1</clus>
</clustering>
</event>
<event>
 6    0  0.1622933E+002  0.1143195E+03  0.7546771E-02  0.1252774E+00
         21   -1    0    0  505  502  0.00000000000E+00  0.00000000000E+00  0.45420392729E+03  0.45420392729E+03  0.00000000000E+00 0.  1.
          1   -1    0    0  503    0 -0.00000000000E+00 -0.00000000000E+00 -0.10903767415E+03  0.10903767415E+03  0.00000000000E+00 0. -1.
         21    1    1    2  503  504  0.78254001216E+02  0.44102511178E+02 -0.17230642251E+02  0.91463737246E+02  0.00000000000E+00 0. -1.
         21    1    1    2  504  502  0.48074431727E+02 -0.55212801008E+01  0.31925147818E+03  0.32289803629E+03  0.00000000000E+00 0.  1.
         21    1    1    2  505  501 -0.87499213985E+02 -0.14482744645E+02  0.51301339366E+02  0.10245823423E+03  0.00000000000E+00 0. -1.
          1    1    1    2  501    0 -0.38829218959E+02 -0.24098486432E+02 -0.81559221531E+01  0.46421593676E+02  0.00000000000E+00 0. -1.
<scales pt_clust_3="101.05774" pt_clust_4="48.39045" pt_clust_5="38.36370" pt_clust_6="38.36370"></scales>
<clustering>
<clus scale="   38.364">  5  6 -1 -1</clus>
<clus scale="   48.390">  1  4  2 -1</clus>
<clus scale="  101.058">  2  3  1 -1</clus>
<clus scale="   48.390">  1  3  2 -1</clus>
</clustering>
</event>
<event>
 6    0  0.1622933E+002  0.7539992E+02  0.7546771E-02  0.1342637E+00
          2   -1    0    0  505    0 -0.00000000000E+00  0.00000000000E+00  0.12915177429E+04  0.12915177429E+04  0.00000000000E+00 0.  1.
         21   -1    0    0  503  502  0.00000000000E+00 -0.00000000000E+00 -0.67958158146E+02  0.67958158146E+02  0.00000000000E+00 0.  1.
         21    1    1    2  503  501  0.95106904266E+02  0.26509303792E+01  0.30009977465E+03  0.31482094183E+03  0.00000000000E+00 0.  1.
         21    1    1    2  504  502 -0.71105281275E+02  0.21008382162E+02 -0.30197150667E+02  0.80057361028E+02  0.00000000000E+00 0.  1.
         21    1    1    2  505  504 -0.13867172935E+02 -0.72392289433E+02  0.29523983109E+03  0.30430165941E+03  0.00000000000E+00 0.  1.
          2    1    1    2  501    0 -0.10134450055E+02  0.48732976892E+02  0.65841712967E+03  0.66029593877E+03  0.00000000000E+00 0.  1.
<scales pt_clust_3="14000.00000" pt_clust_4="75.39992" pt_clust_5="52.70203" pt_clust_6="49.77560"></scales>
<clustering>
<clus scale="   49.776">  1  6  2 -1</clus>
<clus scale="   52.702">  1  5  2 -1</clus>
<clus scale="   75.400">  2  4  1 -1</clus>
<clus scale="   75.400">  2  3  1 -1</clus>
</clustering>
</event>
<event>
 6    0  0.1622933E+002  0.9137831E+02  0.7546771E-02  0.1299548E+00
         21   -1    0    0  501  502  0.00000000000E+00  0.00000000000E+00  0.82336152258E+02  0.82336152258E+02  0.00000000000E+00 0. -1.
          3   -1    0    0  505    0 -0.00000000000E+00 -0.00000000000E+00 -0.66417394783E+03  0.66417394783E+03  0.00000000000E+00 0. -1.
         21    1    1    2  503  502  0.87357072696E+02  0.30920165777E+02  0.37349948943E+02  0.99911628391E+02  0.00000000000E+00 0. -1.
         21    1    1    2  504  503 -0.40528430948E+02  0.13229127980E+02 -0.20903387053E+03  0.21333711015E+03  0.00000000000E+00 0. -1.
         21    1    1    2  505  504  0.12694622688E+02  0.29533773784E+02 -0.20234778424E+03  0.20488538997E+03  0.00000000000E+00 0. -1.
          3    1    1    2  501    0 -0.59523264436E+02 -0.73683067540E+02 -0.20780608975E+03  0.22837597157E+03  0.00000000000E+00 0. -1.
<scales pt_clust_3="14000.00000" pt_clust_4="43.83291" pt_clust_5="32.14650" pt_clust_6="91.37831"></scales>
<clustering>
<clus scale="   32.146">  2  5  1 -1</clus>
<clus scale="   43.833">  2  4  1 -1</clus>
<clus scale="   91.378">  2  6  1 -1</clus>
<clus scale="   91.378">  1  3  2 -1</clus>
</clustering>
</event>
<event>
 6    0  0.1622933E+002  0.9513944E+02  0.7546771E-02  0.1290862E+00
          1   -1    0    0  503    0 -0.00000000000E+00  0.00000000000E+00  0.23644991052E+03  0.23644991052E+03  0.00000000000E+00 0.  1.
         21   -1    0    0  504  502  0.00000000000E+00 -0.00000000000E+00 -0.26991476047E+03  0.26991476047E+03  0.00000000000E+00 0.  1.
         21    1    1    2  503  505 -0.35761519249E+02 -0.18819730867E+02  0.42328564285E+02  0.58521584764E+02  0.00000000000E+00 0.  1.
         21    1    1    2  504  501 -0.28654986234E+02  0.94372032236E+02 -0.22247471009E+03  0.24335608753E+03  0.00000000000E+00 0.  1.
         21    1    1    2  505  502  0.66106307998E+02 -0.18574034239E+02  0.30622514220E+02  0.75184952498E+02  0.00000000000E+00 0.  1.
          1    1    1    2  501    0 -0.16898025138E+01 -0.56978267130E+02  0.11605878164E+03  0.12930204621E+03  0.00000000000E+00 0.  1.
<scales pt_clust_3="40.41124" pt_clust_4="14000.00000" pt_clust_5="60.83836" pt_clust_6="95.13944"></scales>
<clustering>
<clus scale="   40.411">  1  3  2 -1</clus>
<clus scale="   60.838">  1  5  2 -1</clus>
<clus scale="   95.139">  1  6  2 -1</clus>
<clus scale="   95.139">  2  3  1 -1</clus>
</clustering>
</event>
<event>
 6    0  0.1622933E+002  0.1039855E+03  0.7546771E-02  0.1272131E+00
          2   -1    0    0  503    0 -0.00000000000E+00  0.00000000000E+00  0.10473413823E+04  0.10473413823E+04  0.00000000000E+00 0.  1.
         21   -1    0    0  504  502  0.00000000000E+00 -0.00000000000E+00 -0.19001587911E+03  0.19001587911E+03  0.00000000000E+00 0.  1.
         21    1    1    2  503  505  0.54384928744E+01  0.37504954747E+02  0.13033997559E+03  0.13573764427E+03  0.00000000000E+00 0. -1.
         21    1    1    2  504  501 -0.10249940339E+03  0.19195762402E+01 -0.15204792992E+03  0.18338043915E+03  0.00000000000E+00 0.  1.
         21    1    1    2  505  502 -0.54362543916E+02 -0.89560885248E+02  0.39147291704E+03  0.40524990206E+03  0.00000000000E+00 0.  1.
          2    1    1    2  501    0  0.15142345443E+03  0.50136354261E+02  0.48756054044E+03  0.51298927588E+03  0.00000000000E+00 0.  1.
<scales pt_clust_3="37.89721" pt_clust_4="14000.00000" pt_clust_5="89.80221" pt_clust_6="103.98551"></scales>
<clustering>
<clus scale="   37.897">  1  3  2 -1</clus>
<clus scale="   89.802">  1  5  2 -1</clus>
<clus scale="  103.986">  1  6  2 -1</clus>
<clus scale="  103.986">  2  3  1 -1</clus>
</clustering>
</event>
<event>
 6    0  0.1622933E+002  0.1130016E+03  0.7546771E-02  0.1255110E+00
          2   -1    0    0  504    0 -0.00000000000E+00  0.00000000000E+00  0.84097133745E+03  0.84097133745E+03  0.00000000000E+00 0. -1.
         21   -1    0    0  505  502  0.00000000000E+00 -0.00000000000E+00 -0.16771257788E+03  0.16771257788E+03  0.00000000000E+00 0. -1.
         21    1    1    2  503  501 -0.80312761669E+02 -0.24318323482E+02  0.50433083445E+02  0.97903097242E+02  0.00000000000E+00 0. -1.
         21    1    1    2  504  502  0.10863095693E+02  0.40516192289E+02  0.42125751972E+02  0.59448697756E+02  0.00000000000E+00 0.  1.
         21    1    1    2  505  503 -0.52255964041E+02  0.41563977218E+02 -0.12025535779E+03  0.13754854073E+03  0.00000000000E+00 0. -1.
          2    1    1    2  501    0  0.12170563002E+03 -0.57761846024E+02  0.70095528194E+03  0.71378357961E+03  0.00000000000E+00 0. -1.
<scales pt_clust_3="14000.00000" pt_clust_4="41.94721" pt_clust_5="66.95440" pt_clust_6="113.00158"></scales>
<clustering>
<clus scale="   41.947">  1  4  2 -1</clus>
<clus scale="   66.954">  2  5  1 -1</clus>
<clus scale="  113.002">  1  6  2 -1</clus>
<clus scale="   66.954">  2  3  1 -1</clus>
</clustering>
</event>
<event>
 6    0  0.1622933E+002  0.7384741E+02  0.7546771E-02  0.1347478E+00
         -1   -1    0    0    0  501 -0.00000000000E+00  0.00000000000E+00  0.36413273368E+03  0.36413273368E+03  0.00000000000E+00 0.  1.
         21   -1    0    0  504  502  0.00000000000E+00 -0.00000000000E+00 -0.15116849754E+03  0.15116849754E+03  0.00000000000E+00 0. -1.
         21    1    1    2  503  501 -0.32294173207E+02  0.17863746866E+02  0.90381314880E+02  0.97625863145E+02  0.00000000000E+00 0.  1.
         21    1    1    2  504  505 -0.46888912772E+02  0.11351573736E+02 -0.11529261180E+03  0.12497925709E+03  0.00000000000E+00 0. -1.
         21    1    1    2  505  503  0.21962183326E+02  0.59759384240E+02  0.10578528244E+03  0.12346678696E+03  0.00000000000E+00 0. -1.
         -1    1    1    2    0  502  0.57220902653E+02 -0.88974704841E+02  0.13209025062E+03  0.16922932402E+03  0.00000000000E+00 0.  1.
<scales pt_clust_3="36.90565" pt_clust_4="48.88187" pt_clust_5="14000.00000" pt_clust_6="73.84741"></scales>
<clustering>
<clus scale="   36.906">  1  3  2 -1</clus>
<clus scale="   48.882">  2  4  1 -1</clus>
<clus scale="   73.847">  2  6  1 -1</clus>
<clus scale="   48.882">  2  3  1 -1</clus>
</clustering>
</event>
<event>
 6    0  0.1622933E+002  0.1152203E+03  0.7546771E-02  0.1251197E+00
         21   -1    0    0  504  502  0.00000000000E+00  0.00000000000E+00  0.53935677318E+02  0.53935677318E+02  0.00000000000E+00 0. -1.
          1   -1    0    0  505    0 -0.00000000000E+00 -0.00000000000E+00 -0.20845470852E+04  0.20845470852E+04  0.00000000000E+00 0.  1.
         21    1    1    2  503  502 -0.66370241283E+02 -0.91322999977E+01  0.78829419635E+01  0.67457754226E+02  0.00000000000E+00 0. -1.
         21    1    1    2  504  501 -0.66620520379E+02  0.41911104361E+02 -0.11894989282E+03  0.14263208407E+03  0.00000000000E+00 0.  1.
         21    1    1    2  505  503  0.33917077416E+02 -0.19851016213E+02 -0.12417287070E+03  0.13024335992E+03  0.00000000000E+00 0.  1.
          1    1    1    2  501    0  0.99073684247E+02 -0.12927788150E+02 -0.17953715863E+04  0.17981495643E+04  0.00000000000E+00 0.  1.
<scales pt_clust_3="66.52644" pt_clust_4="14000.00000" pt_clust_5="39.29925" pt_clust_6="115.22033"></scales>
<clustering>
<clus scale="   39.299">  2  5  1 -1</clus>
<clus scale="   66.526">  1  3  2 -1</clus>
<clus scale="  115.220">  2  6  1 -1</clus>
<clus scale="   66.526">  1  3  2 -1</clus>
</clustering>
</event>
<event>
 6    0  0.1622933E+002  0.7357631E+02  0.7546771E-02  0.1348337E+00
          4   -1    0    0  505    0 -0.00000000000E+00  0.00000000000E+00  0.25868973238E+03  0.25868973238E+03  0.00000000000E+00 0. -1.
         21   -1    0    0  503  502  0.00000000000E+00 -0.00000000000E+00 -0.42393961100E+03  0.42393961100E+03  0.00000000000E+00 0.  1.
         21    1    1    2  503  501 -0.36636949435E+02  0.63022063844E+02 -0.36956254284E+03  0.37668358030E+03  0.00000000000E+00 0.  1.
         21    1    1    2  504  502 -0.48154382463E+02  0.26695676492E+02  0.11695641320E+02  0.56287580510E+02  0.00000000000E+00 0.  1.
         21    1    1    2  505  504  0.36277892745E+02  0.97958568404E+01  0.15204012930E+02  0.40536481377E+02  0.00000000000E+00 0. -1.
          4    1    1    2  501    0  0.48513439153E+02 -0.99513597177E+02  0.17741300997E+03  0.20912170119E+03  0.00000000000E+00 0. -1.
<scales pt_clust_3="73.57631" pt_clust_4="51.23107" pt_clust_5="37.57718" pt_clust_6="14000.00000"></scales>
<clustering>
<clus scale="   37.577">  1  5  2 -1</clus>
<clus scale="   51.231">  1  4  2 -1</clus>
<clus scale="   73.576">  2  3  1 -1</clus>
<clus scale="   73.576">  2  3  1 -1</clus>
</clustering>
</event>
<event>
 6    0  0.1622933E+002  0.1741041E+03  0.7546771E-02  0.1173634E+00
         21   -1    0    0  504  502  0.00000000000E+00  0.00000000000E+00  0.17422114817E+03  0.17422114817E+03  0.00000000000E+00 0.  1.
          2   -1    0    0  502    0 -0.00000000000E+00 -0.00000000000E+00 -0.97330950102E+03  0.97330950102E+03  0.00000000000E+00 0. -1.
         21    1    1    2  503  501  0.40846765686E+02  0.53156130495E+02 -0.84058827262E+02  0.10751706338E+03  0.00000000000E+00 0. -1.
         21    1    1    2  504  505 -0.28977223231E+02  0.45090497783E+02  0.13721380775E+03  0.14731076503E+03  0.00000000000E+00 0.  1.
         21    1    1    2  505  503  0.81923870009E+01  0.80341281708E+02 -0.18871705811E+03  0.20527046737E+03  0.00000000000E+00 0. -1.
          2    1    1    2  501    0 -0.20061929456E+02 -0.17858790999E+03 -0.66352627523E+03  0.68743235342E+03  0.00000000000E+00 0. -1.
<scales pt_clust_3="51.56348" pt_clust_4="53.59881" pt_clust_5="51.56348" pt_clust_6="164.64895"></scales>
<clustering>
<clus scale="   51.563">  3  5 -1 -1</clus>
<clus scale="   53.599">  1  4  2 -1</clus>
<clus scale="  164.649">  2  6  1 -1</clus>
<clus scale="   53.599">  1  3  2 -1</clus>
</clustering>
</event>
<event>
 6    0  0.1622933E+002  0.9549757E+02  0.7546771E-02  0.1290059E+00
         21   -1    0    0  504  502  0.00000000000E+00  0.00000000000E+00  0.19121221295E+02  0.19121221295E+02  0.00000000000E+00 0.  1.
          2   -1    0    0  503    0 -0.00000000000E+00 -0.00000000000E+00 -0.22031063501E+04  0.22031063501E+04  0.00000000000E+00 0. -1.
         21    1    1    2  503  505 -0.11235699392E+02 -0.83613420120E+02 -0.80398088369E+03  0.80839514243E+03  0.00000000000E+00 0.  1.
         21    1    1    2  504  501  0.10323966976E+02 -0.46230611493E+02 -0.35330291722E+02  0.59093851172E+02  0.00000000000E+00 0.  1.
         21    1    1    2  505  502  0.26536385100E+02  0.21151590863E+02 -0.11229634537E+03  0.11731171601E+03  0.00000000000E+00 0.  1.
          2    1    1    2  501    0 -0.25624652684E+02  0.10869244075E+03 -0.12323776080E+04  0.12374268618E+04  0.00000000000E+00 0. -1.
<scales pt_clust_3="14000.00000" pt_clust_4="42.73227" pt_clust_5="33.93478" pt_clust_6="95.49757"></scales>
<clustering>
<clus scale="   33.935">  1  5  2 -1</clus>
<clus scale="   42.732">  1  4  2 -1</clus>
<clus scale="   95.498">  1  6  2 -1</clus>
<clus scale="   33.935">  1  3  2 -1</clus>
</clustering>
</event>
<event>
 6    0  0.1622933E+002  0.9426616E+02  0.7546771E-02  0.1292837E+00
         21   -1    0    0  505  502  0.00000000000E+00  0.00000000000E+00  0.17961079300E+02  0.17961079300E+02  0.00000000000E+00 0. -1.
          2   -1    0    0  503    0 -0.00000000000E+00 -0.00000000000E+00 -0.32641593748E+04  0.32641593748E+04  0.00000000000E+00 0. -1.
         21    1    1    2  503  504 -0.31525498064E+02 -0.11197070196E+03 -0.17590444359E+04  0.17628864463E+04  0.00000000000E+00 0. -1.
         21    1    1    2  504  502  0.14285584877E+02  0.81170653057E+02 -0.14133976245E+03  0.16361442878E+03  0.00000000000E+00 0. -1.
         21    1    1    2  505  501  0.64387795931E+02 -0.20076817535E+02 -0.29911347556E+03  0.30662312067E+03  0.00000000000E+00 0. -1.
          2    1    1    2  501    0 -0.47147882743E+02  0.50876866439E+02 -0.10467006216E+04  0.10489964584E+04  0.00000000000E+00 0. -1.
<scales pt_clust_3="94.26616" pt_clust_4="14000.00000" pt_clust_5="67.44529" pt_clust_6="64.69472"></scales>
<clustering>
<clus scale="   67.445">  1  5  2 -1</clus>
<clus scale="   64.695">  2  6  1 -1</clus>
<clus scale="   94.266">  2  3  1 -1</clus>
<clus scale="   67.445">  1  3  2 -1</clus>
</clustering>
</event>
<event>
 6    0  0.1622933E+002  0.1189355E+03  0.7546771E-02  0.1244863E+00
         21   -1    0    0  503  502  0.00000000000E+00  0.00000000000E+00  0.74065011579E+02  0.74065011579E+02  0.00000000000E+00 0. -1.
          2   -1    0    0  505    0 -0.00000000000E+00 -0.00000000000E+00 -0.39885893913E+03  0.39885893913E+03  0.00000000000E+00 0. -1.
         21    1    1    2  503  504  0.23078695299E+02 -0.44691581722E+02  0.23254925861E+02  0.55414395515E+02  0.00000000000E+00 0. -1.
         21    1    1    2  504  501 -0.61378287756E+01  0.33324845569E+02 -0.23738164361E+02  0.41372922564E+02  0.00000000000E+00 0.  1.
         21    1    1    2  505  502  0.26396286209E+02 -0.79687065204E+02 -0.10256277909E+03  0.13253647023E+03  0.00000000000E+00 0. -1.
          2    1    1    2  501    0 -0.43337152732E+02  0.91053801357E+02 -0.22174790996E+03  0.24360016240E+03  0.00000000000E+00 0. -1.
<scales pt_clust_3="50.29874" pt_clust_4="31.90039" pt_clust_5="105.43829" pt_clust_6="31.90039"></scales>
<clustering>
<clus scale="   31.900">  4  6 -1 -1</clus>
<clus scale="   50.299">  1  3  2 -1</clus>
<clus scale="  105.438">  2  5  1 -1</clus>
<clus scale="   50.299">  1  3  2 -1</clus>
</clustering>
</event>
<event>
 6    0  0.1622933E+002  0.1444624E+03  0.7546771E-02  0.1207448E+00
         21   -1    0    0  503  502  0.00000000000E+00  0.00000000000E+00  0.17114495069E+03  0.17114495069E+03  0.00000000000E+00 0.  1.
          2   -1    0    0  505    0 -0.00000000000E+00 -0.00000000000E+00 -0.47327914366E+03  0.47327914366E+03  0.00000000000E+00 0. -1.
         21    1    1    2  503  501 -0.35953093130E+02  0.40160761783E+02  0.65342835344E+02  0.84706539437E+02  0.00000000000E+00 0.  1.
         21    1    1    2  504  502  0.13581330217E+03 -0.54890999061E+02 -0.13477774810E+03  0.19905606298E+03  0.00000000000E+00 0. -1.
         21    1    1    2  505  504  0.68982973016E+01 -0.50229691599E+02 -0.23014825959E+03  0.23566677707E+03  0.00000000000E+00 0. -1.
          2    1    1    2  501    0 -0.10675850634E+03  0.64959928877E+02 -0.25510206190E+01  0.12499471486E+03  0.00000000000E+00 0. -1.
<scales pt_clust_3="52.22258" pt_clust_4="14000.00000" pt_clust_5="50.70117" pt_clust_6="144.46241"></scales>
<clustering>
<clus scale="   50.701">  2  5  1 -1</clus>
<clus scale="   52.223">  1  3  2 -1</clus>
<clus scale="  144.462">  1  6  2 -1</clus>
<clus scale="   52.223">  1  3  2 -1</clus>
</clustering>
</event>
<event>
 6    0  0.1622933E+002  0.8972134E+02  0.7546771E-02  0.1303528E+00
          2   -1    0    0  503    0 -0.00000000000E+00  0.00000000000E+00  0.39916639641E+03  0.39916639641E+03  0.00000000000E+00 0.  1.
         21   -1    0    0  501  502  0.00000000000E+00 -0.00000000000E+00 -0.34982492072E+03  0.34982492072E+03  0.00000000000E+00 0.  1.
         21    1    1    2  503  505  0.14437617394E+02 -0.29666273670E+02  0.21519200173E+02  0.39390462876E+02  0.00000000000E+00 0.  1.
         21    1    1    2  504  502 -0.81941777204E+02 -0.37187129091E+02 -0.31167691790E+03  0.32440690279E+03  0.00000000000E+00 0.  1.
         21    1    1    2  505  504 -0.17934961361E+02  0.67359989128E+02  0.56962167359E+02  0.90020661432E+02  0.00000000000E+00 0. -1.
          2    1    1    2  501    0  0.85439121171E+02 -0.50658636732E+00  0.28253702606E+03  0.29517329004E+03  0.00000000000E+00 0.  1.
<scales pt_clust_3="32.99292" pt_clust_4="89.72134" pt_clust_5="63.26488" pt_clust_6="14000.00000"></scales>
<clustering>
<clus scale="   32.993">  1  3  2 -1</clus>
<clus scale="   63.265">  1  5  2 -1</clus>
<clus scale="   89.721">  2  4  1 -1</clus>
<clus scale="   89.721">  2  3  1 -1</clus>
</clustering>
</event>
<event>
 6    0  0.1622933E+002  0.2983496E+03  0.7546771E-02  0.1086069E+00
         21   -1    0    0  501  502  0.00000000000E+00  0.00000000000E+00  0.23182918626E+03  0.23182918626E+03  0.00000000000E+00 0. -1.
          2   -1    0    0  505    0 -0.00000000000E+00 -0.00000000000E+00 -0.15246437603E+04  0.15246437603E+04  0.00000000000E+00 0.  1.
         21    1    1    2  503  502  0.30407966767E+03 -0.77927371437E-01  0.80793131906E+02  0.31462991041E+03  0.00000000000E+00 0. -1.
         21    1    1    2  504  503 -0.91848234695E+02 -0.43128139668E+02 -0.11893183004E+03  0.15633590389E+03  0.00000000000E+00 0.  1.
         21    1    1    2  505  504  0.31695604859E+02  0.11905492121E+02 -0.16123092310E+03  0.16474757258E+03  0.00000000000E+00 0.  1.
          2    1    1    2  501    0 -0.24392703783E+03  0.31300574919E+02 -0.10934449528E+04  0.11207595597E+04  0.00000000000E+00 0.  1.
<scales pt_clust_3="14000.00000" pt_clust_4="98.05881" pt_clust_5="33.85782" pt_clust_6="298.34959"></scales>
<clustering>
<clus scale="   33.858">  2  5  1 -1</clus>
<clus scale="   98.059">  2  4  1 -1</clus>
<clus scale="  298.350">  2  6  1 -1</clus>
<clus scale="  298.350">  1  3  2 -1</clus>
</clustering>
</event>
<event>
 6    0  0.1622933E+002  0.7013552E+02  0.7546771E-02  0.1359633E+00
          1   -1    0    0  503    0 -0.00000000000E+00  0.00000000000E+00  0.10781795870E+04  0.10781795870E+04  0.00000000000E+00 0.  1.
         21   -1    0    0  501  502  0.00000000000E+00 -0.00000000000E+00 -0.67616631666E+02  0.67616631666E+02  0.00000000000E+00 0.  1.
         21    1    1    2  503  505  0.47365160356E+02 -0.19354002547E+02  0.90170972836E+03  0.90316026820E+03  0.00000000000E+00 0.  1.
         21    1    1    2  504  502  0.60072315395E+01  0.45182791865E+02 -0.54453733750E+01  0.45904505254E+02  0.00000000000E+00 0.  1.
         21    1    1    2  505  504  0.30848378724E+02  0.38145559789E+02  0.61054153764E+02  0.78321873659E+02  0.00000000000E+00 0.  1.
          1    1    1    2  501    0 -0.84220770619E+02 -0.63974349107E+02  0.53244446609E+02  0.11840957158E+03  0.00000000000E+00 0.  1.
<scales pt_clust_3="50.97308" pt_clust_4="45.58039" pt_clust_5="70.13552" pt_clust_6="14000.00000"></scales>
<clustering>
<clus scale="   45.580">  2  4  1 -1</clus>
<clus scale="   50.973">  1  3  2 -1</clus>
<clus scale="   70.136">  1  5  2 -1</clus>
<clus scale="   45.580">  2  3  1 -1</clus>
</clustering>
</event>
<event>
 6    0  0.1622933E+002  0.1171354E+03  0.7546771E-02  0.1247899E+00
          2   -1    0    0  504    0 -0.00000000000E+00  0.00000000000E+00  0.10697842413E+04  0.10697842413E+04  0.00000000000E+00 0.  1.
         21   -1    0    0  501  502  0.00000000000E+00 -0.00000000000E+00 -0.23078381602E+03  0.23078381602E+03  0.00000000000E+00 0.  1.
         21    1    1    2  503  502 -0.49222131698E+02  0.25394306847E+01 -0.21471628670E+03  0.22030059176E+03  0.00000000000E+00 0.  1.
         21    1    1    2  504  505 -0.32014044961E+02  0.21195870449E+02  0.27113313445E+03  0.27383816497E+03  0.00000000000E+00 0.  1.
         21    1    1    2  505  503 -0.46282211987E+02  0.29240673086E+02  0.17553861338E+03  0.18387730935E+03  0.00000000000E+00 0. -1.
          2    1    1    2  501    0  0.12751838865E+03 -0.52975974220E+02  0.60704496416E+03  0.62255199124E+03  0.00000000000E+00 0.  1.
<scales pt_clust_3="49.28759" pt_clust_4="30.35313" pt_clust_5="30.35313" pt_clust_6="111.38690"></scales>
<clustering>
<clus scale="   30.353">  4  5 -1 -1</clus>
<clus scale="   49.288">  2  3  1 -1</clus>
<clus scale="  111.387">  2  6  1 -1</clus>
<clus scale="   49.288">  2  3  1 -1</clus>
</clustering>
</event>
<event>
 6    0  0.1622933E+002  0.1471393E+03  0.7546771E-02  0.1204033E+00
         21   -1    0    0  504  502  0.00000000000E+00  0.00000000000E+00  0.33730922878E+03  0.33730922878E+03  0.00000000000E+00 0.  1.
         -1   -1    0    0    0  501 -0.00000000000E+00 -0.00000000000E+00 -0.18987719171E+04  0.18987719171E+04  0.00000000000E+00 0.  1.
         21    1    1    2  503  502 -0.78017347317E+02  0.11593358641E+03  0.31590916754E+03  0.34543581904E+03  0.00000000000E+00 0.  1.
         21    1    1    2  504  501  0.37705498449E+02 -0.13674654325E+02 -0.81821133150E+02  0.91122986201E+02  0.00000000000E+00 0. -1.
         21    1    1    2  505  503  0.41800845146E+02 -0.67123688261E+02 -0.96786975509E+03  0.97109462104E+03  0.00000000000E+00 0.  1.
         -1    1    1    2    0  505 -0.14889962784E+01 -0.35135243823E+02 -0.82768096762E+03  0.82842771962E+03  0.00000000000E+00 0.  1.
<scales pt_clust_3="139.47635" pt_clust_4="40.10861" pt_clust_5="31.25316" pt_clust_6="31.25316"></scales>
<clustering>
<clus scale="   31.253">  5  6 -1 -1</clus>
<clus scale="   40.109">  2  4  1 -1</clus>
<clus scale="  139.476">  1  3  2 -1</clus>
<clus scale="  139.476">  1  3  2 -1</clus>
</clustering>
</event>
<event>
 6    0  0.1622933E+002  0.1424070E+03  0.7546771E-02  0.1210126E+00
         21   -1    0    0  503  502  0.00000000000E+00  0.00000000000E+00  0.57755773139E+03  0.57755773139E+03  0.00000000000E+00 0. -1.
          2   -1    0    0  505    0 -0.00000000000E+00 -0.00000000000E+00 -0.77145268988E+02  0.77145268988E+02  0.00000000000E+00 0. -1.
         21    1    1    2  503  501 -0.76359412749E+01  0.49288218891E+02  0.80315081689E+01  0.50518721719E+02  0.00000000000E+00 0. -1.
         21    1    1    2  504  502  0.16724892238E+02 -0.13112655030E+03  0.41313543991E+03  0.43376812460E+03  0.00000000000E+00 0. -1.
         21    1    1    2  505  504  0.46340694349E+02  0.10974122521E+01  0.32766520959E+01  0.46469352431E+02  0.00000000000E+00 0. -1.
          2    1    1    2  501    0 -0.55429645312E+02  0.80740919153E+02  0.75968862232E+02  0.12394680163E+03  0.00000000000E+00 0. -1.
<scales pt_clust_3="35.66243" pt_clust_4="133.35078" pt_clust_5="46.35369" pt_clust_6="35.66243"></scales>
<clustering>
<clus scale="   35.662">  3  6 -1 -1</clus>
<clus scale="   46.354">  2  5  1 -1</clus>
<clus scale="  133.351">  1  4  2 -1</clus>
<clus scale="  133.351">  1  3  2 -1</clus>
</clustering>
</event>
<event>
 6    0  0.1622933E+002  0.1507917E+03  0.7546771E-02  0.1199504E+00
          3   -1    0    0  505    0 -0.00000000000E+00  0.00000000000E+00  0.84391404231E+03  0.84391404231E+03  0.00000000000E+00 0.  1.
         21   -1    0    0  503  502  0.00000000000E+00 -0.00000000000E+00 -0.11404793845E+03  0.11404793845E+03  0.00000000000E+00 0.  1.
         21    1    1    2  503  501  0.58166249581E+02  0.15230261304E+03  0.22683580337E+02  0.16460237953E+03  0.00000000000E+00 0.  1.
         21    1    1    2  504  502  0.44181553599E+02 -0.51439638629E+02  0.26366348329E+02  0.72754590404E+02  0.00000000000E+00 0. -1.
         21    1    1    2  505  504 -0.14766717770E+03 -0.10493016457E+03  0.61084663020E+03  0.63714169573E+03  0.00000000000E+00 0.  1.
          3    1    1    2  501    0  0.45319374522E+02  0.40671901569E+01  0.69969544991E+02  0.83463315110E+02  0.00000000000E+00 0.  1.
<scales pt_clust_3="150.79170" pt_clust_4="69.55823" pt_clust_5="14000.00000" pt_clust_6="45.50151"></scales>
<clustering>
<clus scale="   45.502">  1  6  2 -1</clus>
<clus scale="   69.558">  2  4  1 -1</clus>
<clus scale="  150.792">  2  3  1 -1</clus>
<clus scale="   69.558">  2  3  1 -1</clus>
</clustering>
</event>
<event>
 6    0  0.1622933E+002  0.1119707E+03  0.7546771E-02  0.1256963E+00
         21   -1    0    0  503  502  0.00000000000E+00  0.00000000000E+00  0.13822322329E+03  0.13822322329E+03  0.00000000000E+00 0.  1.
         -1   -1    0    0    0  501 -0.00000000000E+00 -0.00000000000E+00 -0.52812494351E+03  0.52812494351E+03  0.00000000000E+00 0.  1.
         21    1    1    2  503  504 -0.64850258444E+02 -0.25371179945E+02  0.93817518369E+02  0.11683740645E+03  0.00000000000E+00 0.  1.
         21    1    1    2  504  501 -0.82348463234E+02  0.12820440330E+02 -0.27283275509E+03  0.28527766357E+03  0.00000000000E+00 0.  1.
         21    1    1    2  505  502  0.37646751138E+02 -0.80666602076E+01 -0.20517611004E+02  0.43627070031E+02  0.00000000000E+00 0.  1.
         -1    1    1    2    0  505  0.10955197054E+03  0.20617399823E+02 -0.19036887250E+03  0.22060602675E+03  0.00000000000E+00 0.  1.
<scales pt_clust_3="69.63658" pt_clust_4="94.95473" pt_clust_5="34.87256" pt_clust_6="34.87256"></scales>
<clustering>
<clus scale="   34.873">  5  6 -1 -1</clus>
<clus scale="   69.637">  1  3  2 -1</clus>
<clus scale="   94.955">  2  4  1 -1</clus>
<clus scale="   69.637">  1  3  2 -1</clus>
</clustering>
</event>
<event>
 6    0  0.1622933E+002  0.5966607E+02  0.7546771E-02  0.1399238E+00
          2   -1    0    0  503    0 -0.00000000000E+00  0.00000000000E+00  0.10609335439E+04  0.10609335439E+04  0.00000000000E+00 0. -1.
         21   -1    0    0  504  502  0.00000000000E+00 -0.00000000000E+00 -0.12187660708E+03  0.12187660708E+03  0.00000000000E+00 0. -1.
         21    1    1    2  503  505  0.64284650173E+00 -0.11484522121E+03  0.53815368564E+03  0.55027195772E+03  0.00000000000E+00 0. -1.
         21    1    1    2  504  501  0.46473763752E+02  0.38741226538E+02  0.16277130891E+03  0.17365250460E+03  0.00000000000E+00 0. -1.
         21    1    1    2  505  502  0.43584934696E+00  0.58855257697E+02 -0.10051635512E+03  0.11648033727E+03  0.00000000000E+00 0. -1.
          2    1    1    2  501    0 -0.47552459601E+02  0.17248736972E+02  0.33864829734E+03  0.34240535135E+03  0.00000000000E+00 0. -1.
<scales pt_clust_3="14000.00000" pt_clust_4="55.49986" pt_clust_5="59.66607" pt_clust_6="50.58414"></scales>
<clustering>
<clus scale="   50.584">  1  6  2 -1</clus>
<clus scale="   55.500">  1  4  2 -1</clus>
<clus scale="   59.666">  2  5  1 -1</clus>
<clus scale="   59.666">  2  3  1 -1</clus>
</clustering>
</event>
<event>
 6    0  0.1622933E+002  0.1075165E+03  0.7546771E-02  0.1265239E+00
          1   -1    0    0  505    0 -0.00000000000E+00  0.00000000000E+00  0.58344490717E+03  0.58344490717E+03  0.00000000000E+00 0. -1.
         21   -1    0    0  501  502  0.00000000000E+00 -0.00000000000E+00 -0.13204227385E+03  0.13204227385E+03  0.00000000000E+00 0.  1.
         21    1    1    2  503  504  0.46347558415E+01 -0.52405062161E+02  0.13864323974E+03  0.14828930989E+03  0.00000000000E+00 0.  1.
         21    1    1    2  504  502  0.90620120541E+02  0.65849726243E+02 -0.91590748593E+02  0.14469643368E+03  0.00000000000E+00 0.  1.
         21    1    1    2  505  503 -0.46466269328E+02  0.53750028266E+01  0.70666937855E+02  0.84745624940E+02  0.00000000000E+00 0. -1.
          1    1    1    2  501    0 -0.48788607054E+02 -0.18819666909E+02  0.33368320431E+03  0.33775581251E+03  0.00000000000E+00 0. -1.
<scales pt_clust_3="51.59312" pt_clust_4="14000.00000" pt_clust_5="46.77611" pt_clust_6="107.51654"></scales>
<clustering>
<clus scale="   46.776">  1  5  2 -1</clus>
<clus scale="   51.593">  1  3  2 -1</clus>
<clus scale="  107.517">  1  6  2 -1</clus>
<clus scale="  107.517">  2  3  1 -1</clus>
</clustering>
</event>
<event>
 6    0  0.1622933E+002  0.1026341E+03  0.7546771E-02  0.1274852E+00
         21   -1    0    0  504  502  0.00000000000E+00  0.00000000000E+00  0.17753624316E+03  0.17753624316E+03  0.00000000000E+00 0. -1.
          1   -1    0    0  505    0 -0.00000000000E+00 -0.00000000000E+00 -0.27410730819E+03  0.27410730819E+03  0.00000000000E+00 0. -1.
         21    1    1    2  503  502 -0.42772150753E+02 -0.62277386392E+02  0.49661556473E+02  0.90411282079E+02  0.00000000000E+00 0. -1.
         21    1    1    2  504  501  0.44590937559E+01 -0.55828727009E+02 -0.63230851718E+01  0.56362325029E+02  0.00000000000E+00 0. -1.
         21    1    1    2  505  503 -0.46441279122E+02  0.14817799570E+03 -0.22393755320E+02  0.15689165400E+03  0.00000000000E+00 0. -1.
          1    1    1    2  501    0  0.84754336119E+02 -0.30071882302E+02 -0.11751578101E+03  0.14797829024E+03  0.00000000000E+00 0. -1.
<scales pt_clust_3="102.63412" pt_clust_4="56.00652" pt_clust_5="14000.00000" pt_clust_6="92.35642"></scales>
<clustering>
<clus scale="   56.007">  1  4  2 -1</clus>
<clus scale="   92.356">  2  6  1 -1</clus>
<clus scale="  102.634">  1  3  2 -1</clus>
<clus scale="   56.007">  1  3  2 -1</clus>
</clustering>
</event>
<event>
 6    0  0.1622933E+002  0.1490604E+03  0.7546771E-02  0.1201632E+00
         21   -1    0    0  503  502  0.00000000000E+00  0.00000000000E+00  0.31771000571E+02  0.31771000571E+02  0.00000000000E+00 0.  1.
          1   -1    0    0  502    0 -0.00000000000E+00 -0.00000000000E+00 -0.77062600831E+03  0.77062600831E+03  0.00000000000E+00 0.  1.
         21    1    1    2  503  505  0.51992617036E+02  0.90247360591E+01 -0.51191462826E+02  0.73520364210E+02  0.00000000000E+00 0.  1.
         21    1    1    2  504  501 -0.79156405132E+02 -0.74771669944E+01 -0.20984874676E+03  0.22440619647E+03  0.00000000000E+00 0.  1.
         21    1    1    2  505  504  0.74366434281E+02 -0.46010077809E+02 -0.18591846588E+03  0.20545795133E+03  0.00000000000E+00 0.  1.
          1    1    1    2  501    0 -0.47202646185E+02  0.44462508744E+02 -0.29189633227E+03  0.29901249687E+03  0.00000000000E+00 0.  1.
<scales pt_clust_3="50.78042" pt_clust_4="63.11654" pt_clust_5="146.99586" pt_clust_6="63.11654"></scales>
<clustering>
<clus scale="   50.780">  3  5 -1 -1</clus>
<clus scale="   63.117">  4  6 -1 -1</clus>
<clus scale="  146.996">  1  3  2 -1</clus>
<clus scale="  146.996">  1  3  2 -1</clus>
</clustering>
</event>
<event>
 6    0  0.1622933E+002  0.7369764E+02  0.7546771E-02  0.1347952E+00
         -4   -1    0    0    0  501 -0.00000000000E+00  0.00000000000E+00  0.71023037486E+03  0.71023037486E+03  0.00000000000E+00 0. -1.
         21   -1    0    0  505  502  0.00000000000E+00 -0.00000000000E+00 -0.42840237046E+02  0.42840237046E+02  0.00000000000E+00 0. -1.
         21    1    1    2  503  501 -0.24390864846E+02  0.32352828563E+02  0.10448748170E+03  0.11206807590E+03  0.00000000000E+00 0. -1.
         21    1    1    2  504  503  0.71214975439E+02 -0.54490949672E+02  0.32009888447E+03  0.33242161808E+03  0.00000000000E+00 0. -1.
         21    1    1    2  505  504 -0.60349711924E+01  0.74944941519E+02  0.22631496217E+02  0.78519741197E+02  0.00000000000E+00 0. -1.
         -4    1    1    2    0  502 -0.40789139401E+02 -0.52806820410E+02  0.22017227543E+03  0.23006117674E+03  0.00000000000E+00 0. -1.
<scales pt_clust_3="40.51691" pt_clust_4="14000.00000" pt_clust_5="73.69764" pt_clust_6="64.40647"></scales>
<clustering>
<clus scale="   40.517">  1  3  2 -1</clus>
<clus scale="   64.406">  1  6  2 -1</clus>
<clus scale="   73.698">  2  5  1 -1</clus>
<clus scale="   73.698">  2  3  1 -1</clus>
</clustering>
</event>
<event>
 6    0  0.1622933E+002  0.9616828E+02  0.7546771E-02  0.1288566E+00
          2   -1    0    0  503    0 -0.00000000000E+00  0.00000000000E+00  0.11097991341E+04  0.11097991341E+04  0.00000000000E+00 0. -1.
         21   -1    0    0  501  502  0.00000000000E+00 -0.00000000000E+00 -0.84370078340E+02  0.84370078340E+02  0.00000000000E+00 0.  1.
         21    1    1    2  503  504  0.33557519548E+02 -0.13401217294E+01  0.92937127565E+02  0.98819090891E+02  0.00000000000E+00 0. -1.
         21    1    1    2  504  505 -0.50495425486E+02  0.10556654142E+02  0.15265190960E+03  0.16113297752E+03  0.00000000000E+00 0.  1.
         21    1    1    2  505  502 -0.49518071037E+02 -0.82401755383E+02 -0.43104099638E+02  0.10535678457E+03  0.00000000000E+00 0.  1.
          2    1    1    2  501    0  0.66455976975E+02  0.73185222971E+02  0.82294411819E+03  0.82886035941E+03  0.00000000000E+00 0. -1.
<scales pt_clust_3="33.58427" pt_clust_4="46.46989" pt_clust_5="96.16828" pt_clust_6="14000.00000"></scales>
<clustering>
<clus scale="   33.584">  1  3  2 -1</clus>
<clus scale="   46.470">  1  4  2 -1</clus>
<clus scale="   96.168">  2  5  1 -1</clus>
<clus scale="   96.168">  2  3  1 -1</clus>
</clustering>
</event>
<event>
 6    0  0.1622933E+002  0.1788079E+03  0.7546771E-02  0.1168962E+00
         21   -1    0    0  505  502  0.00000000000E+00  0.00000000000E+00  0.16532562094E+03  0.16532562094E+03  0.00000000000E+00 0. -1.
          2   -1    0    0  503    0 -0.00000000000E+00 -0.00000000000E+00 -0.16824181248E+04  0.16824181248E+04  0.00000000000E+00 0. -1.
         21    1    1    2  503  502 -0.14959277169E+03  0.10267338842E+03  0.99421803107E+02  0.20689252515E+03  0.00000000000E+00 0. -1.
         21    1    1    2  504  501  0.12802652235E+02 -0.70431886631E+02 -0.22234032657E+03  0.23358034887E+03  0.00000000000E+00 0. -1.
         21    1    1    2  505  504  0.42282644690E+02 -0.19347979924E+02 -0.10825174530E+03  0.11781598673E+03  0.00000000000E+00 0.  1.
          2    1    1    2  501    0  0.94507474766E+02 -0.12893521866E+02 -0.12859222350E+04  0.12894548849E+04  0.00000000000E+00 0. -1.
<scales pt_clust_3="169.93770" pt_clust_4="44.82599" pt_clust_5="44.82599" pt_clust_6="95.38294"></scales>
<clustering>
<clus scale="   44.826">  4  5 -1 -1</clus>
<clus scale="   95.383">  2  6  1 -1</clus>
<clus scale="  169.938">  1  3  2 -1</clus>
<clus scale="  169.938">  1  3  2 -1</clus>
</clustering>
</event>
<event>
 6    0  0.1622933E+002  0.1109755E+03  0.7546771E-02  0.1258774E+00
          2   -1    0    0  503    0 -0.00000000000E+00  0.00000000000E+00  0.31314966574E+04  0.31314966574E+04  0.00000000000E+00 0. -1.
         21   -1    0    0  505  502  0.00000000000E+00 -0.00000000000E+00 -0.32624131674E+02  0.32624131674E+02  0.00000000000E+00 0. -1.
         21    1    1    2  503  502  0.27218841992E+02 -0.70264601894E+02  0.49824486660E+03  0.50391063368E+03  0.00000000000E+00 0. -1.
         21    1    1    2  504  501 -0.11331148544E+03  0.81925686179E+02  0.12567931803E+04  0.12645475115E+04  0.00000000000E+00 0.  1.
         21    1    1    2  505  504  0.10001315816E+03 -0.42412700735E+02  0.89170932178E+02  0.14054509644E+03  0.00000000000E+00 0. -1.
          2    1    1    2  501    0 -0.13920514709E+02  0.30751616449E+02  0.12546635466E+04  0.12551175475E+04  0.00000000000E+00 0. -1.
<scales pt_clust_3="66.35495" pt_clust_4="110.97555" pt_clust_5="14000.00000" pt_clust_6="33.75563"></scales>
<clustering>
<clus scale="   33.756">  1  6  2 -1</clus>
<clus scale="   66.355">  1  3  2 -1</clus>
<clus scale="  110.976">  1  4  2 -1</clus>
<clus scale="  110.976">  2  3  1 -1</clus>
</clustering>
</event>
<event>
 6    0  0.1622933E+002  0.7396339E+02  0.7546771E-02  0.1347111E+00
          2   -1    0    0  503    0 -0.00000000000E+00  0.00000000000E+00  0.10255330897E+03  0.10255330897E+03  0.00000000000E+00 0.  1.
         21   -1    0    0  501  502  0.00000000000E+00 -0.00000000000E+00 -0.61475863791E+03  0.61475863791E+03  0.00000000000E+00 0. -1.
         21    1    1    2  503  505  0.88904128223E+01  0.51720895648E+02  0.57771453850E+02  0.78048903687E+02  0.00000000000E+00 0.  1.
         21    1    1    2  504  502 -0.19630085771E+02 -0.63113172359E+02 -0.29216131600E+03  0.29954439965E+03  0.00000000000E+00 0. -1.
         21    1    1    2  505  504 -0.89831628268E+01 -0.82607205574E+02 -0.62573420351E+02  0.10401961623E+03  0.00000000000E+00 0.  1.
          2    1    1    2  501    0  0.19722835776E+02  0.93999482285E+02 -0.21524204644E+03  0.23569902731E+03  0.00000000000E+00 0.  1.
<scales pt_clust_3="52.47943" pt_clust_4="73.96339" pt_clust_5="51.79822" pt_clust_6="14000.00000"></scales>
<clustering>
<clus scale="   52.479">  1  3  2 -1</clus>
<clus scale="   51.798">  1  5  2 -1</clus>
<clus scale="   73.963">  2  4  1 -1</clus>
<clus scale="   73.963">  2  3  1 -1</clus>
</clustering>
</event>
<event>
 6    0  0.1622933E+002  0.1163646E+03  0.7546771E-02  0.1249218E+00
          2   -1    0    0  505    0 -0.00000000000E+00  0.00000000000E+00  0.14797949120E+04  0.14797949120E+04  0.00000000000E+00 0. -1.
         21   -1    0    0  501  502  0.00000000000E+00 -0.00000000000E+00 -0.29837170198E+03  0.29837170198E+03  0.00000000000E+00 0.  1.
         21    1    1    2  503  502  0.11251117173E+03  0.34279007128E+02 -0.27080281051E+03  0.29524223321E+03  0.00000000000E+00 0.  1.
         21    1    1    2  504  503 -0.95421599720E+02 -0.40107171873E+01  0.96195508480E+03  0.96668451561E+03  0.00000000000E+00 0. -1.
         21    1    1    2  505  504  0.39737884366E+02  0.40660415119E+02  0.95503474507E+02  0.11114532133E+03  0.00000000000E+00 0. -1.
          2    1    1    2  501    0 -0.56827456374E+02 -0.70928705060E+02  0.39476746126E+03  0.40509454386E+03  0.00000000000E+00 0. -1.
<scales pt_clust_3="116.36458" pt_clust_4="71.87756" pt_clust_5="56.85393" pt_clust_6="14000.00000"></scales>
<clustering>
<clus scale="   56.854">  1  5  2 -1</clus>
<clus scale="   71.878">  1  4  2 -1</clus>
<clus scale="  116.365">  2  3  1 -1</clus>
<clus scale="  116.365">  2  3  1 -1</clus>
</clustering>
</event>
<event>
 6    0  0.1622933E+002  0.8599710E+02  0.7546771E-02  0.1312845E+00
          2   -1    0    0  503    0 -0.00000000000E+00  0.00000000000E+00  0.10229386035E+04  0.10229386035E+04  0.00000000000E+00 0.  1.
         21   -1    0    0  505  502  0.00000000000E+00 -0.00000000000E+00 -0.27217278080E+02  0.27217278080E+02  0.00000000000E+00 0.  1.
         21    1    1    2  503  504  0.20365237522E+01  0.33761034372E+02  0.25275197724E+03  0.25500493499E+03  0.00000000000E+00 0.  1.
         21    1    1    2  504  502 -0.11721422700E+03  0.30075356113E+01  0.42623257388E+03  0.44206608931E+03  0.00000000000E+00 0.  1.
         21    1    1    2  505  501  0.78523444361E+02 -0.88214605365E+01  0.82040542097E+02  0.11390522388E+03  0.00000000000E+00 0.  1.
          2    1    1    2  501    0  0.36654258890E+02 -0.27947109447E+02  0.23469623225E+03  0.23917963344E+03  0.00000000000E+00 0.  1.
<scales pt_clust_3="33.82240" pt_clust_4="14000.00000" pt_clust_5="85.99710" pt_clust_6="41.20410"></scales>
<clustering>
<clus scale="   33.822">  1  3  2 -1</clus>
<clus scale="   41.204">  1  6  2 -1</clus>
<clus scale="   85.997">  2  5  1 -1</clus>
<clus scale="   85.997">  2  3  1 -1</clus>
</clustering>
</event>
<event>
 6    0  0.1622933E+002  0.9761117E+02  0.7546771E-02  0.1285401E+00
         21   -1    0    0  501  502  0.00000000000E+00  0.00000000000E+00  0.15736115420E+02  0.15736115420E+02  0.00000000000E+00 0. -1.
          1   -1    0    0  504    0 -0.00000000000E+00 -0.00000000000E+00 -0.29795574917E+04  0.29795574917E+04  0.00000000000E+00 0.  1.
         21    1    1    2  503  505 -0.43247886572E+02  0.71116006335E+02 -0.82135162893E+03  0.82555821381E+03  0.00000000000E+00 0. -1.
         21    1    1    2  504  503 -0.70202671061E+02 -0.13941142102E+02 -0.51459772299E+03  0.51955133237E+03  0.00000000000E+00 0. -1.
         21    1    1    2  505  502  0.33634094751E+02 -0.97214246007E+02 -0.26311845612E+03  0.28251227213E+03  0.00000000000E+00 0. -1.
          1    1    1    2  501    0  0.79816462882E+02  0.40039381774E+02 -0.13647535682E+04  0.13676717888E+04  0.00000000000E+00 0.  1.
<scales pt_clust_3="97.61117" pt_clust_4="71.57353" pt_clust_5="14000.00000" pt_clust_6="52.09342"></scales>
<clustering>
<clus scale="   71.574">  2  4  1 -1</clus>
<clus scale="   52.093">  2  6  1 -1</clus>
<clus scale="   97.611">  2  3  1 -1</clus>
<clus scale="   97.611">  1  3  2 -1</clus>
</clustering>
</event>
<event>
 6    0  0.1622933E+002  0.1166539E+03  0.7546771E-02  0.1248721E+00
          2   -1    0    0  504    0 -0.00000000000E+00  0.00000000000E+00  0.13481751634E+04  0.13481751634E+04  0.00000000000E+00 0. -1.
         21   -1    0    0  503  502  0.00000000000E+00 -0.00000000000E+00 -0.66637063969E+02  0.66637063969E+02  0.00000000000E+00 0. -1.
         21    1    1    2  503  501 -0.81456227133E+02 -0.84802406837E+02  0.37621358486E+02  0.12345821868E+03  0.00000000000E+00 0. -1.
         21    1    1    2  504  505 -0.81973802090E+02  0.78938278222E+01  0.21594773700E+03  0.23111780949E+03  0.00000000000E+00 0. -1.
         21    1    1    2  505  502  0.12826008751E+01  0.92378456115E+02  0.28416309980E+03  0.29880443689E+03  0.00000000000E+00 0. -1.
          2    1    1    2  501    0  0.16214742835E+03 -0.15469877100E+02  0.74380590414E+03  0.76143176230E+03  0.00000000000E+00 0. -1.
<scales pt_clust_3="116.65387" pt_clust_4="82.35300" pt_clust_5="96.51163" pt_clust_6="14000.00000"></scales>
<clustering>
<clus scale="   82.353">  1  4  2 -1</clus>
<clus scale="   96.512">  1  5  2 -1</clus>
<clus scale="  116.654">  2  3  1 -1</clus>
<clus scale="  116.654">  2  3  1 -1</clus>
</clustering>
</event>
<event>
 6    0  0.1622933E+002  0.1164478E+03  0.7546771E-02  0.1249075E+00
         21   -1    0    0  503  502  0.00000000000E+00  0.00000000000E+00  0.76674152502E+02  0.76674152502E+02  0.00000000000E+00 0. -1.
          2   -1    0    0  505    0 -0.00000000000E+00 -0.00000000000E+00 -0.67876654692E+03  0.67876654692E+03  0.00000000000E+00 0. -1.
         21    1    1    2  503  504  0.15864818624E+02  0.81976655618E+02  0.13114244968E+02  0.84521287008E+02  0.00000000000E+00 0. -1.
         21    1    1    2  504  501 -0.19271403226E+02 -0.11923666936E+03 -0.18986548269E+03  0.22502815784E+03  0.00000000000E+00 0. -1.
         21    1    1    2  505  502  0.23970868264E+02  0.81519766880E+02 -0.27473385091E+03  0.28757392745E+03  0.00000000000E+00 0. -1.
          2    1    1    2  501    0 -0.20564283661E+02 -0.44259753136E+02 -0.15060730579E+03  0.15831732712E+03  0.00000000000E+00 0. -1.
<scales pt_clust_3="83.49769" pt_clust_4="33.11567" pt_clust_5="104.14416" pt_clust_6="33.11567"></scales>
<clustering>
<clus scale="   33.116">  4  6 -1 -1</clus>
<clus scale="   83.498">  1  3  2 -1</clus>
<clus scale="  104.144">  2  5  1 -1</clus>
<clus scale="   83.498">  1  3  2 -1</clus>
</clustering>
</event>
<event>
 6    0  0.1622933E+002  0.9965814E+02  0.7546771E-02  0.1281016E+00
          2   -1    0    0  503    0 -0.00000000000E+00  0.00000000000E+00  0.88189569266E+03  0.88189569266E+03  0.00000000000E+00 0.  1.
         21   -1    0    0  504  502  0.00000000000E+00 -0.00000000000E+00 -0.31750152350E+03  0.31750152350E+03  0.00000000000E+00 0.  1.
         21    1    1    2  503  505 -0.43374201790E+02  0.59423264571E+02  0.35772660118E+03  0.36521331704E+03  0.00000000000E+00 0.  1.
         21    1    1    2  504  501  0.46146363298E+02 -0.24383071029E+02  0.12394906541E+03  0.13448937435E+03  0.00000000000E+00 0.  1.
         21    1    1    2  505  502 -0.66126122376E+02  0.88833675073E+01 -0.30100137037E+03  0.30830731948E+03  0.00000000000E+00 0.  1.
          2    1    1    2  501    0  0.63353960868E+02 -0.43923561049E+02  0.38371987294E+03  0.39138720529E+03  0.00000000000E+00 0.  1.
<scales pt_clust_3="88.14441" pt_clust_4="38.26132" pt_clust_5="66.72015" pt_clust_6="38.26132"></scales>
<clustering>
<clus scale="   38.261">  4  6 -1 -1</clus>
<clus scale="   66.720">  2  5  1 -1</clus>
<clus scale="   88.144">  1  3  2 -1</clus>
<clus scale="   66.720">  2  3  1 -1</clus>
</clustering>
</event>
<event>
 6    0  0.1622933E+002  0.7811804E+02  0.7546771E-02  0.1334479E+00
          2   -1    0    0  504    0 -0.00000000000E+00  0.00000000000E+00  0.19237473183E+04  0.19237473183E+04  0.00000000000E+00 0.  1.
         21   -1    0    0  505  502  0.00000000000E+00 -0.00000000000E+00 -0.15983633673E+03  0.15983633673E+03  0.00000000000E+00 0. -1.
         21    1    1    2  503  502 -0.55658962781E+02 -0.25230329869E+02  0.17999170414E+03  0.19008288519E+03  0.00000000000E+00 0.  1.
         21    1    1    2  504  503 -0.59636503384E+01 -0.52300960911E+02  0.52198526547E+03  0.52463279826E+03  0.00000000000E+00 0.  1.
         21    1    1    2  505  501  0.85627417639E+01 -0.40609314808E+02 -0.14713824857E+03  0.15287936810E+03  0.00000000000E+00 0. -1.
          2    1    1    2  501    0  0.53059871355E+02  0.11814060559E+03  0.12090722605E+04  0.12159886035E+04  0.00000000000E+00 0.  1.
<scales pt_clust_3="14000.00000" pt_clust_4="57.97094" pt_clust_5="41.50225" pt_clust_6="78.11804"></scales>
<clustering>
<clus scale="   41.502">  2  5  1 -1</clus>
<clus scale="   57.971">  1  4  2 -1</clus>
<clus scale="   78.118">  1  6  2 -1</clus>
<clus scale="   41.502">  2  3  1 -1</clus>
</clustering>
</event>
<event>
 6    0  0.1622933E+002  0.1083409E+03  0.7546771E-02  0.1263673E+00
         21   -1    0    0  503  502  0.00000000000E+00  0.00000000000E+00  0.18918689353E+04  0.18918689353E+04  0.00000000000E+00 0. -1.
         -1   -1    0    0    0  501 -0.00000000000E+00 -0.00000000000E+00 -0.15916543319E+03  0.15916543319E+03  0.00000000000E+00 0.  1.
         21    1    1    2  503  504 -0.61941343985E+02 -0.90119958437E+02 -0.14591807410E+02  0.11032342384E+03  0.00000000000E+00 0.  1.
         21    1    1    2  504  501  0.35209605699E+02 -0.38228156615E+02 -0.38256841865E+02  0.64534442286E+02  0.00000000000E+00 0.  1.
         21    1    1    2  505  502 -0.65631348712E+02  0.67974885404E+02  0.17604874092E+04  0.17630212639E+04  0.00000000000E+00 0. -1.
         -1    1    1    2    0  505  0.92363086998E+02  0.60373229648E+02  0.25064742199E+02  0.11315523850E+03  0.00000000000E+00 0.  1.
<scales pt_clust_3="108.34094" pt_clust_4="51.97219" pt_clust_5="93.87760" pt_clust_6="14000.00000"></scales>
<clustering>
<clus scale="   51.972">  2  4  1 -1</clus>
<clus scale="   93.878">  1  5  2 -1</clus>
<clus scale="  108.341">  2  3  1 -1</clus>
<clus scale="   93.878">  1  3  2 -1</clus>
</clustering>
</event>
<event>
 6    0  0.1622933E+002  0.8270438E+02  0.7546771E-02  0.1321547E+00
         21   -1    0    0  503  502  0.00000000000E+00  0.00000000000E+00  0.15710034614E+02  0.15710034614E+02  0.00000000000E+00 0.  1.
          1   -1    0    0  505    0 -0.00000000000E+00 -0.00000000000E+00 -0.27533924647E+04  0.27533924647E+04  0.00000000000E+00 0.  1.
         21    1    1    2  503  501  0.80369799397E+02  0.17504278922E+01 -0.14448206056E+03  0.16534035949E+03  0.00000000000E+00 0.  1.
         21    1    1    2  504  502 -0.12031868282E+02  0.55423859099E+02 -0.39417109168E+03  0.39823035988E+03  0.00000000000E+00 0.  1.
         21    1    1    2  505  504  0.39391718471E+02  0.46525971499E+01 -0.32911643183E+03  0.33149808422E+03  0.00000000000E+00 0.  1.
          1    1    1    2  501    0 -0.10772964959E+03 -0.61826884141E+02 -0.18699128460E+04  0.18740336958E+04  0.00000000000E+00 0.  1.
<scales pt_clust_3="14000.00000" pt_clust_4="56.46210" pt_clust_5="39.66553" pt_clust_6="82.70438"></scales>
<clustering>
<clus scale="   39.666">  2  5  1 -1</clus>
<clus scale="   56.462">  2  4  1 -1</clus>
<clus scale="   82.704">  2  6  1 -1</clus>
<clus scale="   82.704">  1  3  2 -1</clus>
</clustering>
</event>
<event>
 6    0  0.1622933E+002  0.9597037E+02  0.7546771E-02  0.1289005E+00
          2   -1    0    0  504    0 -0.00000000000E+00  0.00000000000E+00  0.91234435585E+03  0.91234435585E+03  0.00000000000E+00 0.  1.
         21   -1    0    0  503  502  0.00000000000E+00 -0.00000000000E+00 -0.30979743638E+03  0.30979743638E+03  0.00000000000E+00 0. -1.
         21    1    1    2  503  501  0.23420716135E+02 -0.56519991405E+02  0.23650426197E+03  0.24428938843E+03  0.00000000000E+00 0. -1.
         21    1    1    2  504  505 -0.26043712289E+02  0.20592268836E+02  0.62890939085E+02  0.71116711852E+02  0.00000000000E+00 0.  1.
         21    1    1    2  505  502 -0.49507593814E+02  0.83564568235E+02 -0.29183447835E+03  0.30757340858E+03  0.00000000000E+00 0. -1.
          2    1    1    2  501    0  0.52130589969E+02 -0.47636845665E+02  0.59498619677E+03  0.59916228338E+03  0.00000000000E+00 0.  1.
<scales pt_clust_3="14000.00000" pt_clust_4="33.20115" pt_clust_5="95.97037" pt_clust_6="47.25664"></scales>
<clustering>
<clus scale="   33.201">  1  4  2 -1</clus>
<clus scale="   47.257">  1  6  2 -1</clus>
<clus scale="   95.970">  2  5  1 -1</clus>
<clus scale="   95.970">  2  3  1 -1</clus>
</clustering>
</event>
<event>
 6    0  0.1622933E+002  0.1781002E+03  0.7546771E-02  0.1169654E+00
         21   -1    0    0  505  502  0.00000000000E+00  0.00000000000E+00  0.34673833133E+04  0.34673833133E+04  0.00000000000E+00 0. -1.
          2   -1    0    0  503    0 -0.00000000000E+00 -0.00000000000E+00 -0.11033660448E+04  0.11033660448E+04  0.00000000000E+00 0. -1.
         21    1    1    2  503  504 -0.29882871093E+02 -0.23625236966E+02 -0.26079947039E+03  0.26356688252E+03  0.00000000000E+00 0. -1.
         21    1    1    2  504  502  0.53603741407E+02  0.14172204664E+03  0.16381805301E+02  0.15240361919E+03  0.00000000000E+00 0.  1.
         21    1    1    2  505  501 -0.17758874427E+03 -0.14766840751E+02  0.33681098834E+04  0.33728207792E+04  0.00000000000E+00 0. -1.
          2    1    1    2  501    0  0.15386787395E+03 -0.10332996893E+03 -0.75967494986E+03  0.78195807724E+03  0.00000000000E+00 0. -1.
<scales pt_clust_3="38.09380" pt_clust_4="148.88770" pt_clust_5="14000.00000" pt_clust_6="178.10015"></scales>
<clustering>
<clus scale="   38.094">  2  3  1 -1</clus>
<clus scale="  148.888">  2  4  1 -1</clus>
<clus scale="  178.100">  2  6  1 -1</clus>
<clus scale="  178.100">  1  3  2 -1</clus>
</clustering>
</event>
<event>
 6    0  0.1622933E+002  0.1727408E+03  0.7546771E-02  0.1175019E+00
          2   -1    0    0  505    0 -0.00000000000E+00  0.00000000000E+00  0.24019372860E+04  0.24019372860E+04  0.00000000000E+00 0.  1.
         21   -1    0    0  501  502  0.00000000000E+00 -0.00000000000E+00 -0.39063927217E+02  0.39063927217E+02  0.00000000000E+00 0.  1.
         21    1    1    2  503  502 -0.71655885593E+02  0.18446564777E+03  0.35740426955E+03  0.40853390684E+03  0.00000000000E+00 0.  1.
         21    1    1    2  504  503  0.30305063341E+02 -0.15922155191E+03  0.11142590713E+04  0.11259854250E+04  0.00000000000E+00 0.  1.
         21    1    1    2  505  504  0.80470825817E+02  0.23630766208E+02  0.70629742109E+03  0.71125945615E+03  0.00000000000E+00 0.  1.
          2    1    1    2  501    0 -0.39120003565E+02 -0.48874862074E+02  0.18491259694E+03  0.19522242527E+03  0.00000000000E+00 0.  1.
<scales pt_clust_3="14000.00000" pt_clust_4="172.74084" pt_clust_5="80.15783" pt_clust_6="62.60293"></scales>
<clustering>
<clus scale="   62.603">  2  6  1 -1</clus>
<clus scale="   80.158">  1  5  2 -1</clus>
<clus scale="  172.741">  1  4  2 -1</clus>
<clus scale="   62.603">  2  3  1 -1</clus>
</clustering>
</event>
<event>
 6    0  0.1622933E+002  0.2235208E+03  0.7546771E-02  0.1131285E+00
          2   -1    0    0  504    0 -0.00000000000E+00  0.00000000000E+00  0.43130051213E+03  0.43130051213E+03  0.00000000000E+00 0. -1.
         21   -1    0    0  501  502  0.00000000000E+00 -0.00000000000E+00 -0.35281067376E+03  0.35281067376E+03  0.00000000000E+00 0. -1.
         21    1    1    2  503  502  0.13309200467E+03  0.17876193200E+03 -0.25136202918E+03  0.33593478497E+03  0.00000000000E+00 0. -1.
         21    1    1    2  504  505  0.26954515633E+02  0.17937828608E+02  0.27306060759E+02  0.42354841073E+02  0.00000000000E+00 0.  1.
         21    1    1    2  505  503  0.54742710411E+01 -0.36293208290E+02  0.66174892229E+02  0.75672194186E+02  0.00000000000E+00 0.  1.
          2    1    1    2  501    0 -0.16552079134E+03 -0.16040655232E+03  0.23637091456E+03  0.33014936566E+03  0.00000000000E+00 0. -1.
<scales pt_clust_3="223.52082" pt_clust_4="32.37764" pt_clust_5="34.64945" pt_clust_6="14000.00000"></scales>
<clustering>
<clus scale="   32.378">  1  4  2 -1</clus>
<clus scale="   34.649">  1  5  2 -1</clus>
<clus scale="  223.521">  2  3  1 -1</clus>
<clus scale="  223.521">  2  3  1 -1</clus>
</clustering>
</event>
<event>
 6    0  0.1622933E+002  0.8377735E+02  0.7546771E-02  0.1318661E+00
          1   -1    0    0  505    0 -0.00000000000E+00  0.00000000000E+00  0.44938295375E+03  0.44938295375E+03  0.00000000000E+00 0.  1.
         21   -1    0    0  503  502  0.00000000000E+00 -0.00000000000E+00 -0.97722317920E+03  0.97722317920E+03  0.00000000000E+00 0.  1.
         21    1    1    2  503  501 -0.38865660802E+02  0.74353261406E+02 -0.93036730951E+03  0.93414253606E+03  0.00000000000E+00 0.  1.
         21    1    1    2  504  502  0.45176008001E+02  0.11142821737E+02  0.22437781387E+03  0.22915156018E+03  0.00000000000E+00 0.  1.
         21    1    1    2  505  504  0.35413311756E+02  0.15399732357E+02 -0.15009485005E+02  0.41431136194E+02  0.00000000000E+00 0. -1.
          1    1    1    2  501    0 -0.41723658955E+02 -0.10089581550E+03  0.19315875520E+03  0.22188090052E+03  0.00000000000E+00 0.  1.
<scales pt_clust_3="83.77735" pt_clust_4="66.40807" pt_clust_5="38.61676" pt_clust_6="14000.00000"></scales>
<clustering>
<clus scale="   38.617">  1  5  2 -1</clus>
<clus scale="   66.408">  1  4  2 -1</clus>
<clus scale="   83.777">  2  3  1 -1</clus>
<clus scale="   83.777">  2  3  1 -1</clus>
</clustering>
</event>
<event>
 6    0  0.1622933E+002  0.8797094E+02  0.7546771E-02  0.1307841E+00
         -2   -1    0    0    0  501 -0.00000000000E+00  0.00000000000E+00  0.53821996854E+03  0.53821996854E+03  0.00000000000E+00 0.  1.
         21   -1    0    0  504  502  0.00000000000E+00 -0.00000000000E+00 -0.88918927283E+02  0.88918927283E+02  0.00000000000E+00 0.  1.
         21    1    1    2  503  501  0.12951921278E+02 -0.28918001811E+02  0.12401941589E+03  0.12800319766E+03  0.00000000000E+00 0.  1.
         21    1    1    2  504  505  0.71801489155E+02  0.45229547710E+02 -0.38746658738E+02  0.93287026934E+02  0.00000000000E+00 0.  1.
         21    1    1    2  505  503  0.27094573070E+02  0.39371098024E+02  0.57085443939E+02  0.74450971512E+02  0.00000000000E+00 0.  1.
         -2    1    1    2    0  502 -0.11184798350E+03 -0.55682643923E+02  0.30694284017E+03  0.33139769972E+03  0.00000000000E+00 0.  1.
<scales pt_clust_3="31.68601" pt_clust_4="14000.00000" pt_clust_5="45.36994" pt_clust_6="87.97094"></scales>
<clustering>
<clus scale="   31.686">  1  3  2 -1</clus>
<clus scale="   45.370">  1  5  2 -1</clus>
<clus scale="   87.971">  1  6  2 -1</clus>
<clus scale="   87.971">  2  3  1 -1</clus>
</clustering>
</event>
<event>
 6    0  0.1951620E+002  0.7687201E+02  0.7546771E-02  0.1338170E+00
         21   -1    0    0  503  502  0.00000000000E+00  0.00000000000E+00  0.14300814361E+04  0.14300814361E+04  0.00000000000E+00 0. -1.
         -1   -1    0    0    0  501 -0.00000000000E+00 -0.00000000000E+00 -0.55800360447E+03  0.55800360447E+03  0.00000000000E+00 0.  1.
         21    1    1    2  503  505 -0.75694628581E+02 -0.13724029798E+02  0.13852911746E+04  0.13874255526E+04  0.00000000000E+00 0. -1.
         21    1    1    2  504  501  0.35140513433E+02  0.16798303474E+02 -0.10620104158E+02  0.40371094811E+02  0.00000000000E+00 0. -1.
         21    1    1    2  505  504 -0.23081960571E+02  0.62336673403E+02 -0.20396039815E+02  0.69531548199E+02  0.00000000000E+00 0.  1.
         -1    1    1    2    0  502  0.63636075720E+02 -0.65410947080E+02 -0.48219719897E+03  0.49075684491E+03  0.00000000000E+00 0.  1.
<scales pt_clust_3="76.87201" pt_clust_4="38.94918" pt_clust_5="66.85294" pt_clust_6="14000.00000"></scales>
<clustering>
<clus scale="   38.949">  2  4  1 -1</clus>
<clus scale="   66.853">  2  5  1 -1</clus>
<clus scale="   76.872">  1  3  2 -1</clus>
<clus scale="   76.872">  1  3  2 -1</clus>
</clustering>
</event>
<event>
 6    0  0.1622933E+002  0.1650291E+03  0.7546771E-02  0.1183133E+00
         -1   -1    0    0    0  501 -0.00000000000E+00  0.00000000000E+00  0.22730698823E+03  0.22730698823E+03  0.00000000000E+00 0. -1.
         21   -1    0    0  503  502  0.00000000000E+00 -0.00000000000E+00 -0.26326908842E+03  0.26326908842E+03  0.00000000000E+00 0. -1.
         21    1    1    2  503  505 -0.33983508008E+01 -0.33667192721E+02 -0.64546879386E+02  0.72878860394E+02  0.00000000000E+00 0. -1.
         21    1    1    2  504  502  0.70222974207E+02  0.33308489142E+02 -0.96567105357E+01  0.78319688545E+02  0.00000000000E+00 0. -1.
         21    1    1    2  505  501 -0.17116534651E+03  0.88286910153E+02  0.58843217006E+02  0.20138192207E+03  0.00000000000E+00 0. -1.
         -1    1    1    2    0  504  0.10434072310E+03 -0.87928206575E+02 -0.20601727269E+02  0.13799560564E+03  0.00000000000E+00 0. -1.
<scales pt_clust_3="33.83827" pt_clust_4="74.05576" pt_clust_5="165.02906" pt_clust_6="14000.00000"></scales>
<clustering>
<clus scale="   33.838">  2  3  1 -1</clus>
<clus scale="   74.056">  2  4  1 -1</clus>
<clus scale="  165.029">  1  5  2 -1</clus>
<clus scale="   33.838">  2  3  1 -1</clus>
</clustering>
</event>
<event>
 6    0  0.1622933E+002  0.8613971E+02  0.7546771E-02  0.1312479E+00
         21   -1    0    0  505  502  0.00000000000E+00  0.00000000000E+00  0.80209315664E+02  0.80209315664E+02  0.00000000000E+00 0. -1.
          1   -1    0    0  504    0 -0.00000000000E+00 -0.00000000000E+00 -0.34664725821E+03  0.34664725821E+03  0.00000000000E+00 0. -1.
         21    1    1    2  503  502 -0.66166766707E+02 -0.57613794930E+00 -0.23494712379E+02  0.70216625248E+02  0.00000000000E+00 0. -1.
         21    1    1    2  504  503  0.95599690210E+02  0.17895835151E+02 -0.17611242235E+03  0.20118436069E+03  0.00000000000E+00 0. -1.
         21    1    1    2  505  501  0.11976762049E+02  0.51334749971E+02 -0.26930972994E+01  0.52782119669E+02  0.00000000000E+00 0. -1.
          1    1    1    2  501    0 -0.41409685551E+02 -0.68654447172E+02 -0.64137710523E+02  0.10267346826E+03  0.00000000000E+00 0. -1.
<scales pt_clust_3="86.13971" pt_clust_4="14000.00000" pt_clust_5="52.71337" pt_clust_6="62.91873"></scales>
<clustering>
<clus scale="   52.713">  1  5  2 -1</clus>
<clus scale="   62.919">  1  6  2 -1</clus>
<clus scale="   86.140">  1  3  2 -1</clus>
<clus scale="   52.713">  1  3  2 -1</clus>
</clustering>
</event>
<event>
 6    0  0.1622933E+002  0.2151314E+03  0.7546771E-02  0.1137566E+00
          2   -1    0    0  505    0 -0.00000000000E+00  0.00000000000E+00  0.39877422753E+04  0.39877422753E+04  0.00000000000E+00 0. -1.
         21   -1    0    0  504  502  0.00000000000E+00 -0.00000000000E+00 -0.67719587159E+02  0.67719587159E+02  0.00000000000E+00 0. -1.
         21    1    1    2  503  502 -0.78484600321E+01 -0.39166142524E+02 -0.35244693992E+02  0.53270756515E+02  0.00000000000E+00 0. -1.
         21    1    1    2  504  501 -0.17297112429E+03 -0.92260766532E+02  0.64014685916E+03  0.66949164309E+03  0.00000000000E+00 0. -1.
         21    1    1    2  505  503  0.46720788553E+02 -0.73878743476E+02  0.57206475557E+03  0.57870457523E+03  0.00000000000E+00 0.  1.
          2    1    1    2  501    0  0.13409879577E+03  0.20530565253E+03  0.27430557674E+04  0.27539948876E+04  0.00000000000E+00 0. -1.
<scales pt_clust_3="39.94477" pt_clust_4="215.13136" pt_clust_5="91.58582" pt_clust_6="14000.00000"></scales>
<clustering>
<clus scale="   39.945">  2  3  1 -1</clus>
<clus scale="   91.586">  1  5  2 -1</clus>
<clus scale="  215.131">  2  4  1 -1</clus>
<clus scale="   39.945">  2  3  1 -1</clus>
</clustering>
</event>
<event>
 6    0  0.1622933E+002  0.1566349E+03  0.7546771E-02  0.1192549E+00
         -4   -1    0    0    0  501 -0.00000000000E+00  0.00000000000E+00  0.28835012431E+02  0.28835012431E+02  0.00000000000E+00 0.  1.
         21   -1    0    0  504  502  0.00000000000E+00 -0.00000000000E+00 -0.17506615233E+04  0.17506615233E+04  0.00000000000E+00 0.  1.
         21    1    1    2  503  501 -0.35648765547E+02 -0.40108672629E+02 -0.70732586196E+02  0.88784226387E+02  0.00000000000E+00 0.  1.
         21    1    1    2  504  503 -0.96934597708E+02 -0.32022661003E+02 -0.23799861035E+03  0.25896931397E+03  0.00000000000E+00 0.  1.
         21    1    1    2  505  502  0.14419619097E+03  0.31444396980E+02 -0.13331219268E+04  0.13412663282E+04  0.00000000000E+00 0.  1.
         -4    1    1    2    0  505 -0.11612827713E+02  0.40686936652E+02 -0.79973387550E+02  0.90476667146E+02  0.00000000000E+00 0.  1.
<scales pt_clust_3="38.61190" pt_clust_4="38.61190" pt_clust_5="147.30311" pt_clust_6="42.31175"></scales>
<clustering>
<clus scale="   38.612">  3  4 -1 -1</clus>
<clus scale="   42.312">  1  6  2 -1</clus>
<clus scale="  147.303">  2  5  1 -1</clus>
<clus scale="  147.303">  2  3  1 -1</clus>
</clustering>
</event>
<event>
 6    0  0.1622933E+002  0.3023172E+03  0.7546771E-02  0.1084088E+00
          2   -1    0    0  503    0 -0.00000000000E+00  0.00000000000E+00  0.11924722337E+04  0.11924722337E+04  0.00000000000E+00 0. -1.
         21   -1    0    0  501  502  0.00000000000E+00 -0.00000000000E+00 -0.76761530299E+03  0.76761530299E+03  0.00000000000E+00 0. -1.
         21    1    1    2  503  504 -0.28089307388E+03 -0.95881566675E+02  0.24809548041E+03  0.38684048545E+03  0.00000000000E+00 0. -1.
         21    1    1    2  504  505 -0.28412863837E+02 -0.31134326212E+03  0.35566118583E+03  0.47353647885E+03  0.00000000000E+00 0. -1.
         21    1    1    2  505  502  0.70548147079E+02  0.29327963250E+03 -0.55983071241E+03  0.63592484654E+03  0.00000000000E+00 0. -1.
          2    1    1    2  501    0  0.23875779064E+03  0.11394519629E+03  0.38093097693E+03  0.46378572589E+03  0.00000000000E+00 0. -1.
<scales pt_clust_3="188.90993" pt_clust_4="14000.00000" pt_clust_5="302.31723" pt_clust_6="264.55395"></scales>
<clustering>
<clus scale="  264.554">  1  6  2 -1</clus>
<clus scale="  188.910">  1  3  2 -1</clus>
<clus scale="  302.317">  2  5  1 -1</clus>
<clus scale="  302.317">  2  3  1 -1</clus>
</clustering>
</event>
<event>
 6    0  0.1622933E+002  0.8619291E+02  0.7546771E-02  0.1312342E+00
          2   -1    0    0  503    0 -0.00000000000E+00  0.00000000000E+00  0.25517144422E+03  0.25517144422E+03  0.00000000000E+00 0. -1.
         21   -1    0    0  501  502  0.00000000000E+00 -0.00000000000E+00 -0.18158916256E+03  0.18158916256E+03  0.00000000000E+00 0. -1.
         21    1    1    2  503  504  0.36794018605E+02  0.11978763152E+02  0.17518367464E+03  0.17940627199E+03  0.00000000000E+00 0. -1.
         21    1    1    2  504  505 -0.51220886262E+02  0.89090454475E+02 -0.39851955201E+01  0.10284245257E+03  0.00000000000E+00 0. -1.
         21    1    1    2  505  502  0.25756075735E+02 -0.25167658450E+02 -0.57684518767E+02  0.68002133603E+02  0.00000000000E+00 0. -1.
          2    1    1    2  501    0 -0.11329208077E+02 -0.75901559177E+02 -0.39931678686E+02  0.86509748605E+02  0.00000000000E+00 0. -1.
<scales pt_clust_3="38.99589" pt_clust_4="14000.00000" pt_clust_5="36.01092" pt_clust_6="86.19291"></scales>
<clustering>
<clus scale="   36.011">  2  5  1 -1</clus>
<clus scale="   38.996">  1  3  2 -1</clus>
<clus scale="   86.193">  2  6  1 -1</clus>
<clus scale="   36.011">  2  3  1 -1</clus>
</clustering>
</event>
<event>
 6    0  0.1622933E+002  0.9318938E+02  0.7546771E-02  0.1295307E+00
         21   -1    0    0  504  502  0.00000000000E+00  0.00000000000E+00  0.51765770020E+03  0.51765770020E+03  0.00000000000E+00 0. -1.
          2   -1    0    0  505    0 -0.00000000000E+00 -0.00000000000E+00 -0.11159688369E+03  0.11159688369E+03  0.00000000000E+00 0. -1.
         21    1    1    2  503  502  0.83452086451E+01  0.33649584154E+02  0.47246422768E+02  0.58601719134E+02  0.00000000000E+00 0. -1.
         21    1    1    2  504  501  0.80296793443E+02  0.51171388656E+01  0.37491331103E+03  0.38344980236E+03  0.00000000000E+00 0. -1.
         21    1    1    2  505  503 -0.24649071781E+02  0.56994038389E+02  0.22019392162E+02  0.65884374345E+02  0.00000000000E+00 0. -1.
          2    1    1    2  501    0 -0.63992930306E+02 -0.95760761409E+02 -0.38118309451E+02  0.12131868805E+03  0.00000000000E+00 0. -1.
<scales pt_clust_3="34.66896" pt_clust_4="93.18938" pt_clust_5="64.73402" pt_clust_6="14000.00000"></scales>
<clustering>
<clus scale="   34.669">  1  3  2 -1</clus>
<clus scale="   64.734">  2  5  1 -1</clus>
<clus scale="   93.189">  1  4  2 -1</clus>
<clus scale="   34.669">  1  3  2 -1</clus>
</clustering>
</event>
<event>
 6    0  0.1622933E+002  0.1719442E+03  0.7546771E-02  0.1175835E+00
         21   -1    0    0  505  502  0.00000000000E+00  0.00000000000E+00  0.42150187588E+03  0.42150187588E+03  0.00000000000E+00 0. -1.
          2   -1    0    0  503    0 -0.00000000000E+00 -0.00000000000E+00 -0.76988726053E+03  0.76988726053E+03  0.00000000000E+00 0.  1.
         21    1    1    2  503  504  0.35636280233E+02  0.10059621643E+02 -0.66038456417E+02  0.75711413819E+02  0.00000000000E+00 0. -1.
         21    1    1    2  504  502 -0.29003223200E+02  0.17086155022E+03  0.38099702035E+03  0.41856132862E+03  0.00000000000E+00 0. -1.
         21    1    1    2  505  501  0.20340575728E+02 -0.14523327316E+03 -0.33438689111E+03  0.36513153192E+03  0.00000000000E+00 0.  1.
          2    1    1    2  501    0 -0.26973632761E+02 -0.35687898709E+02 -0.32895705747E+03  0.33198486206E+03  0.00000000000E+00 0.  1.
<scales pt_clust_3="37.02891" pt_clust_4="171.94424" pt_clust_5="14000.00000" pt_clust_6="32.54727"></scales>
<clustering>
<clus scale="   37.029">  2  3  1 -1</clus>
<clus scale="   32.547">  2  6  1 -1</clus>
<clus scale="  171.944">  1  4  2 -1</clus>
<clus scale="  171.944">  1  3  2 -1</clus>
</clustering>
</event>
<event>
 6    0  0.1622933E+002  0.1286748E+03  0.7546771E-02  0.1229435E+00
         -3   -1    0    0    0  501 -0.00000000000E+00  0.00000000000E+00  0.80765848895E+03  0.80765848895E+03  0.00000000000E+00 0. -1.
         21   -1    0    0  504  502  0.00000000000E+00 -0.00000000000E+00 -0.18229008975E+03  0.18229008975E+03  0.00000000000E+00 0. -1.
         21    1    1    2  503  501 -0.96761099317E+02 -0.27811487699E+02  0.22418043975E+03  0.24574999239E+03  0.00000000000E+00 0. -1.
         21    1    1    2  504  503 -0.20524629546E+02 -0.31730869279E+02 -0.14885640328E+03  0.15357844016E+03  0.00000000000E+00 0. -1.
         21    1    1    2  505  502 -0.24024062689E+02 -0.19210003959E+02  0.20621447560E+02  0.37032741455E+02  0.00000000000E+00 0. -1.
         -3    1    1    2    0  505  0.14130979155E+03  0.78752360937E+02  0.52942291516E+03  0.55358740470E+03  0.00000000000E+00 0. -1.
<scales pt_clust_3="128.67478" pt_clust_4="63.69958" pt_clust_5="30.76004" pt_clust_6="14000.00000"></scales>
<clustering>
<clus scale="   30.760">  2  5  1 -1</clus>
<clus scale="   63.700">  2  4  1 -1</clus>
<clus scale="  128.675">  1  3  2 -1</clus>
<clus scale="   30.760">  2  3  1 -1</clus>
</clustering>
</event>
<event>
 6    0  0.1622933E+002  0.1016689E+03  0.7546771E-02  0.1276825E+00
          2   -1    0    0  504    0 -0.00000000000E+00  0.00000000000E+00  0.57944143498E+03  0.57944143498E+03  0.00000000000E+00 0.  1.
         21   -1    0    0  505  502  0.00000000000E+00 -0.00000000000E+00 -0.29468808268E+03  0.29468808268E+03  0.00000000000E+00 0. -1.
         21    1    1    2  503  502  0.15094189607E+02 -0.65661166224E+02  0.92464984005E+02  0.11440715265E+03  0.00000000000E+00 0. -1.
         21    1    1    2  504  503 -0.11721866746E+02 -0.41843994802E+02  0.12673562113E+03  0.13397850471E+03  0.00000000000E+00 0. -1.
         21    1    1    2  505  501 -0.63531059573E+02  0.65452997530E+02 -0.26857866903E+03  0.28364553914E+03  0.00000000000E+00 0. -1.
          2    1    1    2  501    0  0.60158736712E+02  0.42052163495E+02  0.33413141619E+03  0.34209832117E+03  0.00000000000E+00 0.  1.
<scales pt_clust_3="36.60793" pt_clust_4="36.60793" pt_clust_5="90.87776" pt_clust_6="73.39931"></scales>
<clustering>
<clus scale="   36.608">  3  4 -1 -1</clus>
<clus scale="   73.399">  1  6  2 -1</clus>
<clus scale="   90.878">  2  5  1 -1</clus>
<clus scale="   90.878">  2  3  1 -1</clus>
</clustering>
</event>
<event>
 6    0  0.1622933E+002  0.2532772E+03  0.7546771E-02  0.1111251E+00
          1   -1    0    0  505    0 -0.00000000000E+00  0.00000000000E+00  0.21126453998E+04  0.21126453998E+04  0.00000000000E+00 0. -1.
         21   -1    0    0  503  502  0.00000000000E+00 -0.00000000000E+00 -0.93368349373E+02  0.93368349373E+02  0.00000000000E+00 0.  1.
         21    1    1    2  503  501 -0.18871898871E+02  0.32631829324E+02 -0.45956215024E+02  0.59438695740E+02  0.00000000000E+00 0.  1.
         21    1    1    2  504  502  0.43141569506E+02 -0.14968806414E+02  0.87549081146E+02  0.98742603745E+02  0.00000000000E+00 0.  1.
         21    1    1    2  505  504 -0.81071299019E+02 -0.24887131955E+03  0.13775755418E+04  0.14022210462E+04  0.00000000000E+00 0.  1.
          1    1    1    2  501    0  0.56801628384E+02  0.23120829664E+03  0.60010864250E+03  0.64561140342E+03  0.00000000000E+00 0. -1.
<scales pt_clust_3="37.69595" pt_clust_4="41.87671" pt_clust_5="14000.00000" pt_clust_6="253.27721"></scales>
<clustering>
<clus scale="   37.696">  2  3  1 -1</clus>
<clus scale="   41.877">  2  4  1 -1</clus>
<clus scale="  253.277">  2  6  1 -1</clus>
<clus scale="   37.696">  2  3  1 -1</clus>
</clustering>
</event>
<event>
 6    0  0.1622933E+002  0.1449741E+03  0.7546771E-02  0.1206788E+00
          2   -1    0    0  503    0 -0.00000000000E+00  0.00000000000E+00  0.35791894893E+04  0.35791894893E+04  0.00000000000E+00 0.  1.
         21   -1    0    0  505  502  0.00000000000E+00 -0.00000000000E+00 -0.65079187912E+02  0.65079187912E+02  0.00000000000E+00 0. -1.
         21    1    1    2  503  504 -0.15287810037E+01  0.30553698462E+02  0.18263975082E+03  0.18518408204E+03  0.00000000000E+00 0. -1.
         21    1    1    2  504  502  0.43788606060E+02  0.52581637217E+01  0.84071849191E+02  0.94937696058E+02  0.00000000000E+00 0. -1.
         21    1    1    2  505  501 -0.31124275267E+02 -0.15130190690E+03  0.46740913443E+02  0.16138680408E+03  0.00000000000E+00 0. -1.
          2    1    1    2  501    0 -0.11135549789E+02  0.11549004471E+03  0.32006577880E+04  0.32027600951E+04  0.00000000000E+00 0.  1.
<scales pt_clust_3="30.59192" pt_clust_4="44.16652" pt_clust_5="14000.00000" pt_clust_6="144.97411"></scales>
<clustering>
<clus scale="   30.592">  1  3  2 -1</clus>
<clus scale="   44.167">  2  4  1 -1</clus>
<clus scale="  144.974">  1  6  2 -1</clus>
<clus scale="   44.167">  2  3  1 -1</clus>
</clustering>
</event>
<event>
 6    0  0.1622933E+002  0.6299687E+02  0.7546771E-02  0.1385669E+00
          1   -1    0    0  503    0 -0.00000000000E+00  0.00000000000E+00  0.43335311679E+03  0.43335311679E+03  0.00000000000E+00 0.  1.
         21   -1    0    0  505  502  0.00000000000E+00 -0.00000000000E+00 -0.16832600266E+03  0.16832600266E+03  0.00000000000E+00 0.  1.
         21    1    1    2  503  504 -0.93539857700E+02  0.54467384251E+02  0.88737381582E+02  0.13996686685E+03  0.00000000000E+00 0.  1.
         21    1    1    2  504  502  0.22047622972E+02  0.35594188960E+02 -0.12162294806E+03  0.12862808971E+03  0.00000000000E+00 0.  1.
         21    1    1    2  505  501  0.23299310839E+02 -0.59430644965E+02  0.57271865934E+02  0.85760865633E+02  0.00000000000E+00 0.  1.
          1    1    1    2  501    0  0.48192923889E+02 -0.30630928245E+02  0.24064081468E+03  0.24732329726E+03  0.00000000000E+00 0.  1.
<scales pt_clust_3="14000.00000" pt_clust_4="41.86937" pt_clust_5="56.64982" pt_clust_6="62.99687"></scales>
<clustering>
<clus scale="   41.869">  2  4  1 -1</clus>
<clus scale="   56.650">  2  5  1 -1</clus>
<clus scale="   62.997">  1  6  2 -1</clus>
<clus scale="   41.869">  2  3  1 -1</clus>
</clustering>
</event>
<event>
 6    0  0.1622933E+002  0.2155847E+03  0.7546771E-02  0.1137218E+00
         -4   -1    0    0    0  501 -0.00000000000E+00  0.00000000000E+00  0.43489451416E+02  0.43489451416E+02  0.00000000000E+00 0. -1.
         21   -1    0    0  505  502  0.00000000000E+00 -0.00000000000E+00 -0.31510453037E+04  0.31510453037E+04  0.00000000000E+00 0.  1.
         21    1    1    2  503  501  0.14398170203E+02 -0.28317739572E+02 -0.45386456355E+02  0.55399748195E+02  0.00000000000E+00 0.  1.
         21    1    1    2  504  502 -0.51464886331E+02 -0.67652454309E+01 -0.12760114665E+03  0.13775505688E+03  0.00000000000E+00 0.  1.
         21    1    1    2  505  503  0.15005957413E+03  0.13261793016E+03 -0.27774562699E+04  0.27846667166E+04  0.00000000000E+00 0.  1.
         -4    1    1    2    0  504 -0.11299285801E+03 -0.97534945156E+02 -0.15711197933E+03  0.21671323341E+03  0.00000000000E+00 0. -1.
<scales pt_clust_3="31.76793" pt_clust_4="46.36717" pt_clust_5="199.53803" pt_clust_6="46.36717"></scales>
<clustering>
<clus scale="   31.768">  1  3  2 -1</clus>
<clus scale="   46.367">  4  6 -1 -1</clus>
<clus scale="  199.538">  2  5  1 -1</clus>
<clus scale="  199.538">  2  3  1 -1</clus>
</clustering>
</event>
<event>
 6    0  0.1622933E+002  0.1275536E+03  0.7546771E-02  0.1231132E+00
          1   -1    0    0  503    0 -0.00000000000E+00  0.00000000000E+00  0.18560544336E+04  0.18560544336E+04  0.00000000000E+00 0. -1.
         21   -1    0    0  505  502  0.00000000000E+00 -0.00000000000E+00 -0.36375192394E+02  0.36375192394E+02  0.00000000000E+00 0.  1.
         21    1    1    2  503  504 -0.37124223868E+02  0.14086305928E+01  0.79571988301E+03  0.79658667103E+03  0.00000000000E+00 0. -1.
         21    1    1    2  504  502  0.37142939763E+02 -0.70098767680E+01  0.13618647619E+03  0.14133468309E+03  0.00000000000E+00 0.  1.
         21    1    1    2  505  501  0.12300193950E+03  0.34639357665E+02  0.11641875273E+03  0.17286609907E+03  0.00000000000E+00 0.  1.
          1    1    1    2  501    0 -0.12302065539E+03 -0.29038111490E+02  0.77135412925E+03  0.78164217279E+03  0.00000000000E+00 0. -1.
<scales pt_clust_3="37.15094" pt_clust_4="32.99635" pt_clust_5="14000.00000" pt_clust_6="127.55362"></scales>
<clustering>
<clus scale="   37.151">  1  3  2 -1</clus>
<clus scale="   32.996">  1  4  2 -1</clus>
<clus scale="  127.554">  1  6  2 -1</clus>
<clus scale="  127.554">  2  3  1 -1</clus>
</clustering>
</event>
<event>
 6    0  0.1622933E+002  0.4386627E+03  0.7546771E-02  0.1031158E+00
         -3   -1    0    0    0  501 -0.00000000000E+00  0.00000000000E+00  0.22035729466E+03  0.22035729466E+03  0.00000000000E+00 0.  1.
         21   -1    0    0  503  502  0.00000000000E+00 -0.00000000000E+00 -0.16131246539E+04  0.16131246539E+04  0.00000000000E+00 0.  1.
         21    1    1    2  503  501 -0.41924643110E+03 -0.99292012582E+02 -0.85155423028E+02  0.43917868781E+03  0.00000000000E+00 0.  1.
         21    1    1    2  504  505  0.16561547759E+03 -0.25980174953E+01 -0.41711640418E+03  0.44879987829E+03  0.00000000000E+00 0.  1.
         21    1    1    2  505  502 -0.20646077998E+02  0.24665217882E+02 -0.73006882520E+02  0.79778683902E+02  0.00000000000E+00 0.  1.
         -3    1    1    2    0  504  0.27427703151E+03  0.77224812195E+02 -0.81748864946E+03  0.86572469852E+03  0.00000000000E+00 0.  1.
<scales pt_clust_3="433.32935" pt_clust_4="51.69619" pt_clust_5="32.16572" pt_clust_6="51.69619"></scales>
<clustering>
<clus scale="   32.166">  2  5  1 -1</clus>
<clus scale="   51.696">  4  6 -1 -1</clus>
<clus scale="  433.329">  1  3  2 -1</clus>
<clus scale="   32.166">  2  3  1 -1</clus>
</clustering>
</event>
<event>
 6    0  0.1622933E+002  0.1365234E+03  0.7546771E-02  0.1218085E+00
          1   -1    0    0  503    0 -0.00000000000E+00  0.00000000000E+00  0.80945518788E+02  0.80945518788E+02  0.00000000000E+00 0. -1.
         21   -1    0    0  505  502  0.00000000000E+00 -0.00000000000E+00 -0.79971531926E+03  0.79971531926E+03  0.00000000000E+00 0. -1.
         21    1    1    2  503  502 -0.78523043598E+02 -0.63733870347E+02 -0.18900065882E+03  0.21435746696E+03  0.00000000000E+00 0. -1.
         21    1    1    2  504  501  0.42117010076E+02  0.11300158128E+02 -0.10341683911E+02  0.44816141485E+02  0.00000000000E+00 0.  1.
         21    1    1    2  505  504  0.14977255651E+01 -0.41105568824E+02 -0.52002042317E+03  0.52164466018E+03  0.00000000000E+00 0. -1.
          1    1    1    2  501    0  0.34908307956E+02  0.93539281044E+02  0.59296543653E+00  0.99842569431E+02  0.00000000000E+00 0. -1.
<scales pt_clust_3="121.37435" pt_clust_4="42.41439" pt_clust_5="41.13285" pt_clust_6="42.41439"></scales>
<clustering>
<clus scale="   41.133">  2  5  1 -1</clus>
<clus scale="   42.414">  4  6 -1 -1</clus>
<clus scale="  121.374">  2  3  1 -1</clus>
<clus scale="   41.133">  2  3  1 -1</clus>
</clustering>
</event>
<event>
 6    0  0.1622933E+002  0.1002810E+03  0.7546771E-02  0.1279706E+00
         21   -1    0    0  501  502  0.00000000000E+00  0.00000000000E+00  0.80890820773E+02  0.80890820773E+02  0.00000000000E+00 0.  1.
          2   -1    0    0  504    0 -0.00000000000E+00 -0.00000000000E+00 -0.50716302510E+03  0.50716302510E+03  0.00000000000E+00 0.  1.
         21    1    1    2  503  505  0.64422350271E+01 -0.49916192876E+02 -0.48315326194E+02  0.69767466979E+02  0.00000000000E+00 0. -1.
         21    1    1    2  504  503 -0.10622486228E+03  0.24425817681E+02 -0.31740471856E+03  0.33559811874E+03  0.00000000000E+00 0.  1.
         21    1    1    2  505  502  0.17994886546E+02 -0.45295782635E+02  0.14714392734E+02  0.50912053777E+02  0.00000000000E+00 0.  1.
          2    1    1    2  501    0  0.81787740711E+02  0.70786157830E+02 -0.75266552307E+02  0.13177620638E+03  0.00000000000E+00 0.  1.
<scales pt_clust_3="60.92572" pt_clust_4="14000.00000" pt_clust_5="48.73935" pt_clust_6="100.28101"></scales>
<clustering>
<clus scale="   48.739">  1  5  2 -1</clus>
<clus scale="   60.926">  1  3  2 -1</clus>
<clus scale="  100.281">  1  6  2 -1</clus>
<clus scale="   48.739">  1  3  2 -1</clus>
</clustering>
</event>
<event>
 6    0  0.1622933E+002  0.7680766E+02  0.7546771E-02  0.1338363E+00
          2   -1    0    0  504    0 -0.00000000000E+00  0.00000000000E+00  0.81143426697E+03  0.81143426697E+03  0.00000000000E+00 0. -1.
         21   -1    0    0  503  502  0.00000000000E+00 -0.00000000000E+00 -0.40857335437E+03  0.40857335437E+03  0.00000000000E+00 0. -1.
         21    1    1    2  503  501  0.99661403476E+02 -0.64556551927E+02  0.62969481628E+02  0.13440647066E+03  0.00000000000E+00 0. -1.
         21    1    1    2  504  505  0.87301293956E+01  0.28823890754E+02  0.68726043558E+02  0.75035331016E+02  0.00000000000E+00 0. -1.
         21    1    1    2  505  502 -0.52618633278E+02  0.79989035345E+01 -0.36625873036E+03  0.37010560735E+03  0.00000000000E+00 0. -1.
          2    1    1    2  501    0 -0.55772899594E+02  0.27733757639E+02  0.63742411777E+03  0.64046021232E+03  0.00000000000E+00 0. -1.
<scales pt_clust_3="76.80766" pt_clust_4="30.11697" pt_clust_5="53.21202" pt_clust_6="14000.00000"></scales>
<clustering>
<clus scale="   30.117">  1  4  2 -1</clus>
<clus scale="   53.212">  2  5  1 -1</clus>
<clus scale="   76.808">  2  3  1 -1</clus>
<clus scale="   53.212">  2  3  1 -1</clus>
</clustering>
</event>
<event>
 6    0  0.1622933E+002  0.1734467E+03  0.7546771E-02  0.1174300E+00
         21   -1    0    0  505  502  0.00000000000E+00  0.00000000000E+00  0.40593589888E+03  0.40593589888E+03  0.00000000000E+00 0. -1.
         -1   -1    0    0    0  501 -0.00000000000E+00 -0.00000000000E+00 -0.31892301115E+03  0.31892301115E+03  0.00000000000E+00 0. -1.
         21    1    1    2  503  502  0.87581858730E+01  0.59419460974E+02  0.44956852584E+02  0.75023308088E+02  0.00000000000E+00 0. -1.
         21    1    1    2  504  501 -0.17721530749E+03 -0.75421657150E+02 -0.14169874229E+03  0.23910714156E+03  0.00000000000E+00 0. -1.
         21    1    1    2  505  504  0.21174255598E+02 -0.27050582900E+02  0.24361088528E+03  0.24602102870E+03  0.00000000000E+00 0. -1.
         -1    1    1    2    0  503  0.14728286602E+03  0.43052779076E+02 -0.59856107841E+02  0.16470743169E+03  0.00000000000E+00 0. -1.
<scales pt_clust_3="52.07830" pt_clust_4="173.44667" pt_clust_5="34.35234" pt_clust_6="14000.00000"></scales>
<clustering>
<clus scale="   34.352">  1  5  2 -1</clus>
<clus scale="   52.078">  1  3  2 -1</clus>
<clus scale="  173.447">  2  4  1 -1</clus>
<clus scale="   34.352">  1  3  2 -1</clus>
</clustering>
</event>
<event>
 6    0  0.1622933E+002  0.7089332E+02  0.7546771E-02  0.1357081E+00
         21   -1    0    0  501  502  0.00000000000E+00  0.00000000000E+00  0.11922761802E+03  0.11922761802E+03  0.00000000000E+00 0.  1.
          2   -1    0    0  503    0 -0.00000000000E+00 -0.00000000000E+00 -0.43023099071E+03  0.43023099071E+03  0.00000000000E+00 0.  1.
         21    1    1    2  503  504 -0.53246866496E+02  0.74644150425E+01 -0.12730790411E+03  0.13819641360E+03  0.00000000000E+00 0.  1.
         21    1    1    2  504  505 -0.35736185848E+02  0.20624678844E+02 -0.10663144531E+02  0.42616370184E+02  0.00000000000E+00 0.  1.
         21    1    1    2  505  502 -0.10231955762E+02  0.38687170903E+02  0.79623927488E+02  0.89114308278E+02  0.00000000000E+00 0.  1.
          2    1    1    2  501    0  0.99215008106E+02 -0.66776264790E+02 -0.25265625153E+03  0.27953151667E+03  0.00000000000E+00 0.  1.
<scales pt_clust_3="14000.00000" pt_clust_4="55.72640" pt_clust_5="40.01737" pt_clust_6="70.89332"></scales>
<clustering>
<clus scale="   40.017">  1  5  2 -1</clus>
<clus scale="   55.726">  1  4  2 -1</clus>
<clus scale="   70.893">  1  6  2 -1</clus>
<clus scale="   40.017">  1  3  2 -1</clus>
</clustering>
</event>
<event>
 6    0  0.1622933E+002  0.1437975E+03  0.7546771E-02  0.1208309E+00
          2   -1    0    0  503    0 -0.00000000000E+00  0.00000000000E+00  0.47731805276E+03  0.47731805276E+03  0.00000000000E+00 0. -1.
         21   -1    0    0  504  502  0.00000000000E+00 -0.00000000000E+00 -0.75898417408E+03  0.75898417408E+03  0.00000000000E+00 0.  1.
         21    1    1    2  503  505 -0.19939037417E+02  0.27939944326E+02  0.67333179916E+02  0.75577528536E+02  0.00000000000E+00 0.  1.
         21    1    1    2  504  501  0.33572775910E+01 -0.14393165606E+03 -0.68727729680E+03  0.70219489860E+03  0.00000000000E+00 0.  1.
         21    1    1    2  505  502 -0.84333969828E+02 -0.21268694527E+02  0.85551688521E+01  0.87394317595E+02  0.00000000000E+00 0. -1.
          2    1    1    2  501    0  0.10091572965E+03  0.13726040626E+03  0.32972282671E+03  0.37113548210E+03  0.00000000000E+00 0. -1.
<scales pt_clust_3="34.32500" pt_clust_4="143.79749" pt_clust_5="88.53295" pt_clust_6="14000.00000"></scales>
<clustering>
<clus scale="   34.325">  1  3  2 -1</clus>
<clus scale="   88.533">  1  5  2 -1</clus>
<clus scale="  143.797">  2  4  1 -1</clus>
<clus scale="  143.797">  2  3  1 -1</clus>
</clustering>
</event>
<event>
 6    0  0.1622933E+002  0.1086226E+03  0.7546771E-02  0.1263142E+00
         21   -1    0    0  503  502  0.00000000000E+00  0.00000000000E+00  0.17012688178E+02  0.17012688178E+02  0.00000000000E+00 0. -1.
          2   -1    0    0  505    0 -0.00000000000E+00 -0.00000000000E+00 -0.37536558345E+04  0.37536558345E+04  0.00000000000E+00 0. -1.
         21    1    1    2  503  501 -0.51541062367E+02  0.15589855107E+02 -0.52525796999E+03  0.52801085191E+03  0.00000000000E+00 0. -1.
         21    1    1    2  504  502  0.27502144167E+02  0.30769551634E+02 -0.18214868718E+02  0.45110028641E+02  0.00000000000E+00 0. -1.
         21    1    1    2  505  504  0.89630169408E+02 -0.20722911512E+02 -0.21750826531E+04  0.21770272287E+04  0.00000000000E+00 0. -1.
          2    1    1    2  501    0 -0.65591251207E+02 -0.25636495229E+02 -0.10180876545E+04  0.10205204135E+04  0.00000000000E+00 0. -1.
<scales pt_clust_3="41.13014" pt_clust_4="41.26903" pt_clust_5="97.91028" pt_clust_6="41.13014"></scales>
<clustering>
<clus scale="   41.130">  3  6 -1 -1</clus>
<clus scale="   41.269">  1  4  2 -1</clus>
<clus scale="   97.910">  2  5  1 -1</clus>
<clus scale="   41.269">  1  3  2 -1</clus>
</clustering>
</event>
<event>
 6    0  0.1622933E+002  0.1065823E+03  0.7546771E-02  0.1267033E+00
          2   -1    0    0  504    0 -0.00000000000E+00  0.00000000000E+00  0.20957839766E+04  0.20957839766E+04  0.00000000000E+00 0.  1.
         21   -1    0    0  503  502  0.00000000000E+00 -0.00000000000E+00 -0.19167655896E+03  0.19167655896E+03  0.00000000000E+00 0. -1.
         21    1    1    2  503  501  0.15236914066E+02 -0.12649859769E+03  0.15288572757E+03  0.19901784961E+03  0.00000000000E+00 0. -1.
         21    1    1    2  504  505  0.26767090616E+02  0.64298177214E+02  0.30902009570E+03  0.31677145118E+03  0.00000000000E+00 0. -1.
         21    1    1    2  505  502 -0.30303940721E+02 -0.42174642690E+02 -0.15887804374E+03  0.16715041756E+03  0.00000000000E+00 0. -1.
          2    1    1    2  501    0 -0.11700063960E+02  0.10437506317E+03  0.16010796381E+04  0.16045208172E+04  0.00000000000E+00 0.  1.
<scales pt_clust_3="106.58233" pt_clust_4="62.82772" pt_clust_5="51.93293" pt_clust_6="14000.00000"></scales>
<clustering>
<clus scale="   51.933">  2  5  1 -1</clus>
<clus scale="   62.828">  2  4  1 -1</clus>
<clus scale="  106.582">  2  3  1 -1</clus>
<clus scale="   51.933">  2  3  1 -1</clus>
</clustering>
</event>
<event>
 6    0  0.1622933E+002  0.7306104E+02  0.7546771E-02  0.1349983E+00
         21   -1    0    0  505  502  0.00000000000E+00  0.00000000000E+00  0.15969269246E+03  0.15969269246E+03  0.00000000000E+00 0. -1.
          2   -1    0    0  503    0 -0.00000000000E+00 -0.00000000000E+00 -0.52100463760E+03  0.52100463760E+03  0.00000000000E+00 0.  1.
         21    1    1    2  503  504  0.27394907916E+02  0.74139196438E+02 -0.73806753484E+02  0.10814128854E+03  0.00000000000E+00 0. -1.
         21    1    1    2  504  502  0.13881898558E+02  0.69718117381E+02  0.11516971235E+03  0.13534173651E+03  0.00000000000E+00 0. -1.
         21    1    1    2  505  501 -0.16686516299E+02 -0.11411359803E+03 -0.19974927055E+03  0.23065152105E+03  0.00000000000E+00 0.  1.
          2    1    1    2  501    0 -0.24590290175E+02 -0.29743715793E+02 -0.20292563346E+03  0.20656278395E+03  0.00000000000E+00 0.  1.
<scales pt_clust_3="68.65946" pt_clust_4="73.06104" pt_clust_5="14000.00000" pt_clust_6="38.59237"></scales>
<clustering>
<clus scale="   38.592">  2  6  1 -1</clus>
<clus scale="   68.659">  2  3  1 -1</clus>
<clus scale="   73.061">  1  4  2 -1</clus>
<clus scale="   73.061">  1  3  2 -1</clus>
</clustering>
</event>
<event>
 6    0  0.1622933E+002  0.1113030E+03  0.7546771E-02  0.1258176E+00
          2   -1    0    0  504    0 -0.00000000000E+00  0.00000000000E+00  0.34269874436E+04  0.34269874436E+04  0.00000000000E+00 0.  1.
         21   -1    0    0  503  502  0.00000000000E+00 -0.00000000000E+00 -0.25336644857E+03  0.25336644857E+03  0.00000000000E+00 0.  1.
         21    1    1    2  503  505 -0.87709051469E+01  0.33969073148E+02 -0.24416776019E+03  0.24667533687E+03  0.00000000000E+00 0.  1.
         21    1    1    2  504  502  0.76371989763E+02  0.39915537080E+02  0.44637552853E+03  0.45461746930E+03  0.00000000000E+00 0. -1.
         21    1    1    2  505  501 -0.19113077441E+02  0.42174406758E+02  0.22225798753E+03  0.22702996132E+03  0.00000000000E+00 0. -1.
          2    1    1    2  501    0 -0.48488007176E+02 -0.11605901699E+03  0.27491552392E+04  0.27520311247E+04  0.00000000000E+00 0.  1.
<scales pt_clust_3="35.08314" pt_clust_4="14000.00000" pt_clust_5="56.71130" pt_clust_6="111.30301"></scales>
<clustering>
<clus scale="   35.083">  2  3  1 -1</clus>
<clus scale="   56.711">  2  5  1 -1</clus>
<clus scale="  111.303">  1  6  2 -1</clus>
<clus scale="   35.083">  2  3  1 -1</clus>
</clustering>
</event>
<event>
 6    0  0.1622933E+002  0.6913044E+02  0.7546771E-02  0.1363075E+00
          2   -1    0    0  503    0 -0.00000000000E+00  0.00000000000E+00  0.27088117328E+04  0.27088117328E+04  0.00000000000E+00 0.  1.
         21   -1    0    0  505  502  0.00000000000E+00 -0.00000000000E+00 -0.32830955893E+02  0.32830955893E+02  0.00000000000E+00 0. -1.
         21    1    1    2  503  504 -0.53097888149E+02 -0.44728599702E+01  0.10750148763E+04  0.10763346953E+04  0.00000000000E+00 0.  1.
         21    1    1    2  504  502 -0.33242403311E+02 -0.61698345888E+01 -0.17374245893E+02  0.38013006420E+02  0.00000000000E+00 0. -1.
         21    1    1    2  505  501  0.13094349293E+02  0.70129592693E+02  0.51339045917E+03  0.51832362991E+03  0.00000000000E+00 0.  1.
          2    1    1    2  501    0  0.73245942167E+02 -0.59486898134E+02  0.11049496874E+04  0.11089713571E+04  0.00000000000E+00 0.  1.
<scales pt_clust_3="57.60913" pt_clust_4="33.81012" pt_clust_5="69.13044" pt_clust_6="14000.00000"></scales>
<clustering>
<clus scale="   33.810">  2  4  1 -1</clus>
<clus scale="   57.609">  1  3  2 -1</clus>
<clus scale="   69.130">  2  5  1 -1</clus>
<clus scale="   33.810">  2  3  1 -1</clus>
</clustering>
</event>
<event>
 6    0  0.1622933E+002  0.1351212E+03  0.7546771E-02  0.1220049E+00
          2   -1    0    0  503    0 -0.00000000000E+00  0.00000000000E+00  0.98484122234E+03  0.98484122234E+03  0.00000000000E+00 0. -1.
         21   -1    0    0  504  502  0.00000000000E+00 -0.00000000000E+00 -0.49348127375E+03  0.49348127375E+03  0.00000000000E+00 0.  1.
         21    1    1    2  503  502 -0.17099615512E+03 -0.76756475683E+02  0.14883990169E+03  0.23934192687E+03  0.00000000000E+00 0.  1.
         21    1    1    2  504  505 -0.27811845242E+02 -0.17415534000E+02 -0.41771954608E+03  0.41900646623E+03  0.00000000000E+00 0.  1.
         21    1    1    2  505  501  0.78417168810E+02  0.49626247130E+02  0.65779454923E+02  0.11374952070E+03  0.00000000000E+00 0. -1.
          2    1    1    2  501    0  0.12039083155E+03  0.44545762553E+02  0.69446013806E+03  0.70622458229E+03  0.00000000000E+00 0. -1.
<scales pt_clust_3="14000.00000" pt_clust_4="32.81462" pt_clust_5="82.32348" pt_clust_6="135.12116"></scales>
<clustering>
<clus scale="   32.815">  2  4  1 -1</clus>
<clus scale="   82.323">  2  5  1 -1</clus>
<clus scale="  135.121">  1  6  2 -1</clus>
<clus scale="   32.815">  2  3  1 -1</clus>
</clustering>
</event>
<event>
 6    0  0.1622933E+002  0.1269167E+03  0.7546771E-02  0.1232104E+00
         -2   -1    0    0    0  501 -0.00000000000E+00  0.00000000000E+00  0.46613416547E+03  0.46613416547E+03  0.00000000000E+00 0. -1.
         21   -1    0    0  503  502  0.00000000000E+00 -0.00000000000E+00 -0.14951199660E+03  0.14951199660E+03  0.00000000000E+00 0.  1.
         21    1    1    2  503  505  0.35468661618E+02  0.66434162877E+02 -0.77553835919E+02  0.10810236547E+03  0.00000000000E+00 0.  1.
         21    1    1    2  504  501 -0.19765473929E+02  0.29864542886E+02  0.40087893369E+02  0.53755037682E+02  0.00000000000E+00 0. -1.
         21    1    1    2  505  504  0.49829480340E+02  0.63971375524E+02  0.30213219134E+02  0.86534112394E+02  0.00000000000E+00 0.  1.
         -2    1    1    2    0  502 -0.65532668029E+02 -0.16027008129E+03  0.32387489229E+03  0.36725464652E+03  0.00000000000E+00 0. -1.
<scales pt_clust_3="75.93891" pt_clust_4="35.81292" pt_clust_5="14000.00000" pt_clust_6="126.91669"></scales>
<clustering>
<clus scale="   35.813">  1  4  2 -1</clus>
<clus scale="   75.939">  2  3  1 -1</clus>
<clus scale="  126.917">  1  6  2 -1</clus>
<clus scale="   75.939">  2  3  1 -1</clus>
</clustering>
</event>
<event>
 6    0  0.1622933E+002  0.7819638E+02  0.7546771E-02  0.1334249E+00
         -2   -1    0    0    0  501 -0.00000000000E+00  0.00000000000E+00  0.29044917856E+04  0.29044917856E+04  0.00000000000E+00 0. -1.
         21   -1    0    0  503  502  0.00000000000E+00 -0.00000000000E+00 -0.20268871040E+02  0.20268871040E+02  0.00000000000E+00 0. -1.
         21    1    1    2  503  505  0.24966616597E+02  0.68779901950E+02  0.11289625460E+03  0.13453464669E+03  0.00000000000E+00 0. -1.
         21    1    1    2  504  501  0.36061188079E+02  0.37596340272E+02  0.16538188983E+04  0.16546391880E+04  0.00000000000E+00 0. -1.
         21    1    1    2  505  504  0.55077482211E+02 -0.39805517024E+02  0.36651287388E+03  0.37275956721E+03  0.00000000000E+00 0. -1.
         -2    1    1    2    0  502 -0.11610528689E+03 -0.66570725198E+02  0.75099488774E+03  0.76282725470E+03  0.00000000000E+00 0. -1.
<scales pt_clust_3="78.19638" pt_clust_4="52.09505" pt_clust_5="71.72677" pt_clust_6="14000.00000"></scales>
<clustering>
<clus scale="   52.095">  1  4  2 -1</clus>
<clus scale="   71.727">  1  5  2 -1</clus>
<clus scale="   78.196">  2  3  1 -1</clus>
<clus scale="   78.196">  2  3  1 -1</clus>
</clustering>
</event>
<event>
 6    0  0.1622933E+002  0.1603475E+03  0.7546771E-02  0.1188305E+00
          1   -1    0    0  503    0 -0.00000000000E+00  0.00000000000E+00  0.13826739363E+04  0.13826739363E+04  0.00000000000E+00 0. -1.
         21   -1    0    0  505  502  0.00000000000E+00 -0.00000000000E+00 -0.31443496680E+03  0.31443496680E+03  0.00000000000E+00 0.  1.
         21    1    1    2  503  502 -0.10643558658E+03 -0.58522073216E+02  0.29445221838E+03  0.31852076236E+03  0.00000000000E+00 0.  1.
         21    1    1    2  504  501  0.24046745119E+02  0.57138238808E+02  0.28418693119E+03  0.29086979242E+03  0.00000000000E+00 0. -1.
         21    1    1    2  505  504 -0.42390516972E+01 -0.84519498277E+02 -0.28822110187E+03  0.30038794701E+03  0.00000000000E+00 0.  1.
          1    1    1    2  501    0  0.86627893156E+02  0.85903332685E+02  0.77782092179E+03  0.78733040130E+03  0.00000000000E+00 0. -1.
<scales pt_clust_3="154.16259" pt_clust_4="31.43934" pt_clust_5="84.62574" pt_clust_6="31.43934"></scales>
<clustering>
<clus scale="   31.439">  4  6 -1 -1</clus>
<clus scale="   84.626">  2  5  1 -1</clus>
<clus scale="  154.163">  2  3  1 -1</clus>
<clus scale="   84.626">  2  3  1 -1</clus>
</clustering>
</event>
<event>
 6    0  0.1622933E+002  0.9174786E+02  0.7546771E-02  0.1298673E+00
         21   -1    0    0  505  502  0.00000000000E+00  0.00000000000E+00  0.87890369072E+03  0.87890369072E+03  0.00000000000E+00 0. -1.
         -2   -1    0    0    0  501 -0.00000000000E+00 -0.00000000000E+00 -0.40475510240E+03  0.40475510240E+03  0.00000000000E+00 0. -1.
         21    1    1    2  503  501  0.18044207323E+02  0.25174747777E+02 -0.11070260780E+02  0.32892431003E+02  0.00000000000E+00 0.  1.
         21    1    1    2  504  502  0.58632100313E+02 -0.12810510988E+02 -0.23456113615E+02  0.64436182730E+02  0.00000000000E+00 0. -1.
         21    1    1    2  505  503  0.53550731207E+02  0.69219733004E+01  0.83380875800E+03  0.83555528808E+03  0.00000000000E+00 0. -1.
         -2    1    1    2    0  504 -0.13022703884E+03 -0.19286210089E+02 -0.32513379528E+03  0.35077489131E+03  0.00000000000E+00 0. -1.
<scales pt_clust_3="30.97356" pt_clust_4="14000.00000" pt_clust_5="54.04446" pt_clust_6="91.74786"></scales>
<clustering>
<clus scale="   30.974">  2  3  1 -1</clus>
<clus scale="   54.044">  1  5  2 -1</clus>
<clus scale="   91.748">  2  6  1 -1</clus>
<clus scale="   54.044">  1  3  2 -1</clus>
</clustering>
</event>
<event>
 6    0  0.1622933E+002  0.1032173E+03  0.7546771E-02  0.1273672E+00
         21   -1    0    0  501  502  0.00000000000E+00  0.00000000000E+00  0.60298815907E+02  0.60298815907E+02  0.00000000000E+00 0. -1.
          2   -1    0    0  505    0 -0.00000000000E+00 -0.00000000000E+00 -0.10509282229E+04  0.10509282229E+04  0.00000000000E+00 0.  1.
         21    1    1    2  503  502 -0.60772551214E+02  0.82907824245E+02 -0.51116864240E+01  0.10292297917E+03  0.00000000000E+00 0. -1.
         21    1    1    2  504  503  0.37892903127E+02 -0.99380134464E+01 -0.83797022371E+02  0.92501768507E+02  0.00000000000E+00 0.  1.
         21    1    1    2  505  504 -0.13783295367E+02  0.35259319355E+02 -0.12159549874E+03  0.12735251920E+03  0.00000000000E+00 0. -1.
          2    1    1    2  501    0  0.36662943454E+02 -0.10822913015E+03 -0.78012519951E+03  0.78844977199E+03  0.00000000000E+00 0.  1.
<scales pt_clust_3="103.21729" pt_clust_4="37.16910" pt_clust_5="37.85761" pt_clust_6="14000.00000"></scales>
<clustering>
<clus scale="   37.858">  2  5  1 -1</clus>
<clus scale="   37.169">  2  4  1 -1</clus>
<clus scale="  103.217">  1  3  2 -1</clus>
<clus scale="  103.217">  1  3  2 -1</clus>
</clustering>
</event>
<event>
 6    0  0.1622933E+002  0.8596148E+02  0.7546771E-02  0.1312937E+00
         21   -1    0    0  503  502  0.00000000000E+00  0.00000000000E+00  0.43807571086E+03  0.43807571086E+03  0.00000000000E+00 0. -1.
          2   -1    0    0  505    0 -0.00000000000E+00 -0.00000000000E+00 -0.28136280455E+03  0.28136280455E+03  0.00000000000E+00 0. -1.
         21    1    1    2  503  504 -0.25995846328E+02 -0.60577734321E+02  0.31890641231E+03  0.32564819320E+03  0.00000000000E+00 0. -1.
         21    1    1    2  504  501 -0.65351683144E+02  0.36491690369E+02  0.47996369515E+02  0.88916463281E+02  0.00000000000E+00 0. -1.
         21    1    1    2  505  502 -0.25221772494E+02 -0.60320415621E+02 -0.24228284061E+02  0.69725892587E+02  0.00000000000E+00 0. -1.
          2    1    1    2  501    0  0.11656930197E+03  0.84406459574E+02 -0.18596159145E+03  0.23514796634E+03  0.00000000000E+00 0. -1.
<scales pt_clust_3="66.86025" pt_clust_4="85.96148" pt_clust_5="65.38112" pt_clust_6="14000.00000"></scales>
<clustering>
<clus scale="   65.381">  2  5  1 -1</clus>
<clus scale="   66.860">  1  3  2 -1</clus>
<clus scale="   85.961">  1  4  2 -1</clus>
<clus scale="   66.860">  1  3  2 -1</clus>
</clustering>
</event>
<event>
 6    0  0.1622933E+002  0.9773921E+02  0.7546771E-02  0.1285123E+00
         21   -1    0    0  501  502  0.00000000000E+00  0.00000000000E+00  0.29707457069E+02  0.29707457069E+02  0.00000000000E+00 0.  1.
          2   -1    0    0  503    0 -0.00000000000E+00 -0.00000000000E+00 -0.97484621900E+03  0.97484621900E+03  0.00000000000E+00 0.  1.
         21    1    1    2  503  504 -0.21205994111E+02  0.31619632787E+02 -0.19382639098E+03  0.19753016277E+03  0.00000000000E+00 0.  1.
         21    1    1    2  504  505 -0.96599884258E+02 -0.14370427516E+02 -0.16449863297E+03  0.19130563786E+03  0.00000000000E+00 0.  1.
         21    1    1    2  505  502  0.80501858421E+01  0.31796147208E+02 -0.25146754717E+02  0.41329889210E+02  0.00000000000E+00 0.  1.
          2    1    1    2  501    0  0.10975569253E+03 -0.49045352479E+02 -0.56166698326E+03  0.57438798623E+03  0.00000000000E+00 0.  1.
<scales pt_clust_3="40.00510" pt_clust_4="14000.00000" pt_clust_5="32.79940" pt_clust_6="97.73921"></scales>
<clustering>
<clus scale="   32.799">  1  5  2 -1</clus>
<clus scale="   40.005">  2  3  1 -1</clus>
<clus scale="   97.739">  2  6  1 -1</clus>
<clus scale="   32.799">  1  3  2 -1</clus>
</clustering>
</event>
<event>
 6    0  0.1622933E+002  0.7623134E+02  0.7546771E-02  0.1340100E+00
         21   -1    0    0  505  502  0.00000000000E+00  0.00000000000E+00  0.32207100148E+02  0.32207100148E+02  0.00000000000E+00 0.  1.
          1   -1    0    0  504    0 -0.00000000000E+00 -0.00000000000E+00 -0.94883864458E+03  0.94883864458E+03  0.00000000000E+00 0.  1.
         21    1    1    2  503  502  0.59033299534E+02  0.78479554344E+02 -0.29162070165E+03  0.30771188560E+03  0.00000000000E+00 0.  1.
         21    1    1    2  504  503 -0.36162220826E+02  0.27420715629E+01 -0.20775704303E+03  0.21089858724E+03  0.00000000000E+00 0.  1.
         21    1    1    2  505  501 -0.67366622474E+02 -0.29232556254E+02 -0.49954577253E+02  0.88815899237E+02  0.00000000000E+00 0.  1.
          1    1    1    2  501    0  0.44495543765E+02 -0.51989069653E+02 -0.36729922249E+03  0.37361937265E+03  0.00000000000E+00 0.  1.
<scales pt_clust_3="76.23134" pt_clust_4="36.26603" pt_clust_5="14000.00000" pt_clust_6="57.07737"></scales>
<clustering>
<clus scale="   36.266">  2  4  1 -1</clus>
<clus scale="   57.077">  2  6  1 -1</clus>
<clus scale="   76.231">  2  3  1 -1</clus>
<clus scale="   76.231">  1  3  2 -1</clus>
</clustering>
</event>
<event>
 6    0  0.1622933E+002  0.7462731E+02  0.7546771E-02  0.1345029E+00
         21   -1    0    0  505  502  0.00000000000E+00  0.00000000000E+00  0.11506256811E+03  0.11506256811E+03  0.00000000000E+00 0.  1.
         -1   -1    0    0    0  501 -0.00000000000E+00 -0.00000000000E+00 -0.10395770472E+04  0.10395770472E+04  0.00000000000E+00 0.  1.
         21    1    1    2  503  504 -0.40690587469E+02 -0.36677734910E+02 -0.85982919185E+02  0.10195117723E+03  0.00000000000E+00 0.  1.
         21    1    1    2  504  501  0.25320371224E+02  0.32891352834E+02 -0.42018633874E+03  0.42223159706E+03  0.00000000000E+00 0.  1.
         21    1    1    2  505  503 -0.36447513224E+02  0.64996063886E+02  0.89418735676E+02  0.11639853878E+03  0.00000000000E+00 0.  1.
         -1    1    1    2    0  502  0.51817729468E+02 -0.61209681811E+02 -0.50776395683E+03  0.51405830222E+03  0.00000000000E+00 0.  1.
<scales pt_clust_3="48.59008" pt_clust_4="41.50858" pt_clust_5="74.62731" pt_clust_6="14000.00000"></scales>
<clustering>
<clus scale="   41.509">  2  4  1 -1</clus>
<clus scale="   48.590">  2  3  1 -1</clus>
<clus scale="   74.627">  1  5  2 -1</clus>
<clus scale="   74.627">  1  3  2 -1</clus>
</clustering>
</event>
<event>
 6    0  0.1622933E+002  0.9362827E+02  0.7546771E-02  0.1294296E+00
          2   -1    0    0  505    0 -0.00000000000E+00  0.00000000000E+00  0.33595494122E+04  0.33595494122E+04  0.00000000000E+00 0.  1.
         21   -1    0    0  504  502  0.00000000000E+00 -0.00000000000E+00 -0.18759793510E+02  0.18759793510E+02  0.00000000000E+00 0. -1.
         21    1    1    2  503  501  0.60593798633E+02  0.80775063856E+02  0.11470139763E+04  0.11514500776E+04  0.00000000000E+00 0. -1.
         21    1    1    2  504  503  0.18147854356E+02 -0.92139943679E+02  0.13711530828E+03  0.16619182171E+03  0.00000000000E+00 0. -1.
         21    1    1    2  505  502 -0.37251940559E+02 -0.18345793910E+01  0.19712724810E+03  0.20062458648E+03  0.00000000000E+00 0. -1.
          2    1    1    2  501    0 -0.41489712430E+02  0.13199459215E+02  0.18595330860E+04  0.18600427200E+04  0.00000000000E+00 0.  1.
<scales pt_clust_3="93.62827" pt_clust_4="14000.00000" pt_clust_5="37.29709" pt_clust_6="44.06259"></scales>
<clustering>
<clus scale="   37.297">  2  5  1 -1</clus>
<clus scale="   44.063">  1  6  2 -1</clus>
<clus scale="   93.628">  1  3  2 -1</clus>
<clus scale="   37.297">  2  3  1 -1</clus>
</clustering>
</event>
<event>
 6    0  0.1881407E+002  0.8777493E+02  0.7546771E-02  0.1308331E+00
          1   -1    0    0  505    0 -0.00000000000E+00  0.00000000000E+00  0.13790495844E+04  0.13790495844E+04  0.00000000000E+00 0.  1.
         21   -1    0    0  503  502  0.00000000000E+00 -0.00000000000E+00 -0.10858024564E+04  0.10858024564E+04  0.00000000000E+00 0. -1.
         21    1    1    2  503  504  0.45714330273E+02  0.50380474526E+01 -0.10647879520E+04  0.10657807301E+04  0.00000000000E+00 0. -1.
         21    1    1    2  504  501  0.58417390102E+02 -0.28908061975E+02  0.97518584920E+02  0.11729510611E+03  0.00000000000E+00 0.  1.
         21    1    1    2  505  502  0.16388389590E+02  0.42734496959E+02  0.61979458913E+02  0.77047192492E+02  0.00000000000E+00 0.  1.
          1    1    1    2  501    0 -0.12052010996E+03 -0.18864482436E+02  0.11985370362E+04  0.12047290121E+04  0.00000000000E+00 0.  1.
<scales pt_clust_3="45.99906" pt_clust_4="14000.00000" pt_clust_5="45.76917" pt_clust_6="87.77493"></scales>
<clustering>
<clus scale="   45.769">  1  5  2 -1</clus>
<clus scale="   45.999">  2  3  1 -1</clus>
<clus scale="   87.775">  1  6  2 -1</clus>
<clus scale="   45.999">  2  3  1 -1</clus>
</clustering>
</event>
<event>
 6    0  0.1622933E+002  0.1249410E+03  0.7546771E-02  0.1235162E+00
          1   -1    0    0  505    0 -0.00000000000E+00  0.00000000000E+00  0.36896444937E+04  0.36896444937E+04  0.00000000000E+00 0. -1.
         21   -1    0    0  503  502  0.00000000000E+00 -0.00000000000E+00 -0.48768292797E+02  0.48768292797E+02  0.00000000000E+00 0.  1.
         21    1    1    2  503  501  0.15541858757E+02  0.71563503105E+02 -0.10727977285E+02  0.74013335601E+02  0.00000000000E+00 0.  1.
         21    1    1    2  504  502  0.25877188518E+02  0.59582408285E+02  0.23360664654E+03  0.24247011686E+03  0.00000000000E+00 0.  1.
         21    1    1    2  505  504 -0.65202883181E+02 -0.62104230544E+02  0.17052295989E+04  0.17076054393E+04  0.00000000000E+00 0. -1.
          1    1    1    2  501    0  0.23783835906E+02 -0.69041680845E+02  0.17127679327E+04  0.17143238947E+04  0.00000000000E+00 0. -1.
<scales pt_clust_3="14000.00000" pt_clust_4="64.95916" pt_clust_5="124.94097" pt_clust_6="72.18695"></scales>
<clustering>
<clus scale="   64.959">  2  4  1 -1</clus>
<clus scale="   72.187">  1  6  2 -1</clus>
<clus scale="  124.941">  1  5  2 -1</clus>
<clus scale="   64.959">  2  3  1 -1</clus>
</clustering>
</event>
<event>
 6    0  0.1622933E+002  0.9495051E+02  0.7546771E-02  0.1291288E+00
         21   -1    0    0  504  502  0.00000000000E+00  0.00000000000E+00  0.13767860607E+03  0.13767860607E+03  0.00000000000E+00 0.  1.
          2   -1    0    0  503    0 -0.00000000000E+00 -0.00000000000E+00 -0.11187004253E+04  0.11187004253E+04  0.00000000000E+00 0. -1.
         21    1    1    2  503  502 -0.20693622161E+01 -0.36493442139E+02 -0.22263672451E+03  0.22561729694E+03  0.00000000000E+00 0. -1.
         21    1    1    2  504  505 -0.27641947807E+02 -0.22206943252E+02  0.11977876411E+03  0.12491668399E+03  0.00000000000E+00 0.  1.
         21    1    1    2  505  501 -0.38070177616E+02  0.10130056173E+03 -0.24755952440E+03  0.27017931148E+03  0.00000000000E+00 0.  1.
          2    1    1    2  501    0  0.67781487640E+02 -0.42600176341E+02 -0.63060433442E+03  0.63566573896E+03  0.00000000000E+00 0. -1.
<scales pt_clust_3="38.94369" pt_clust_4="35.45738" pt_clust_5="94.95051" pt_clust_6="14000.00000"></scales>
<clustering>
<clus scale="   35.457">  1  4  2 -1</clus>
<clus scale="   38.944">  2  3  1 -1</clus>
<clus scale="   94.951">  1  5  2 -1</clus>
<clus scale="   35.457">  1  3  2 -1</clus>
</clustering>
</event>
<event>
 6    0  0.1622933E+002  0.1218771E+03  0.7546771E-02  0.1240032E+00
         -4   -1    0    0    0  501 -0.00000000000E+00  0.00000000000E+00  0.26052836993E+03  0.26052836993E+03  0.00000000000E+00 0. -1.
         21   -1    0    0  504  502  0.00000000000E+00 -0.00000000000E+00 -0.15889407888E+03  0.15889407888E+03  0.00000000000E+00 0. -1.
         21    1    1    2  503  502  0.87098191275E+02  0.40213362151E+02  0.34245138019E+02  0.10186235270E+03  0.00000000000E+00 0. -1.
         21    1    1    2  504  505 -0.12422669379E+03 -0.63074007153E+02 -0.60551568555E+02  0.15191146857E+03  0.00000000000E+00 0. -1.
         21    1    1    2  505  501  0.17287904390E+02 -0.37697220663E+02  0.52004913877E+02  0.66516638154E+02  0.00000000000E+00 0.  1.
         -4    1    1    2    0  503  0.19840598124E+02  0.60557865665E+02  0.75935807714E+02  0.99131989393E+02  0.00000000000E+00 0. -1.
<scales pt_clust_3="121.87706" pt_clust_4="14000.00000" pt_clust_5="41.47231" pt_clust_6="51.95085"></scales>
<clustering>
<clus scale="   41.472">  1  5  2 -1</clus>
<clus scale="   51.951">  1  6  2 -1</clus>
<clus scale="  121.877">  1  3  2 -1</clus>
<clus scale="  121.877">  2  3  1 -1</clus>
</clustering>
</event>
<event>
 6    0  0.1622933E+002  0.1657716E+03  0.7546771E-02  0.1182331E+00
          2   -1    0    0  505    0 -0.00000000000E+00  0.00000000000E+00  0.37122466986E+03  0.37122466986E+03  0.00000000000E+00 0.  1.
         21   -1    0    0  504  502  0.00000000000E+00 -0.00000000000E+00 -0.19827188776E+03  0.19827188776E+03  0.00000000000E+00 0.  1.
         21    1    1    2  503  501  0.62807765515E+02 -0.61702991742E+02  0.62030382505E+02  0.10770256707E+03  0.00000000000E+00 0.  1.
         21    1    1    2  504  503  0.37749117624E+02  0.97217304207E+02 -0.92592821822E+02  0.13946193306E+03  0.00000000000E+00 0.  1.
         21    1    1    2  505  502 -0.12482931065E+03  0.67945186668E+02  0.98427436960E+02  0.17287818120E+03  0.00000000000E+00 0. -1.
          2    1    1    2  501    0  0.24272427516E+02 -0.10345949913E+03  0.10508778446E+03  0.14945387630E+03  0.00000000000E+00 0.  1.
<scales pt_clust_3="52.59963" pt_clust_4="104.28902" pt_clust_5="155.37336" pt_clust_6="52.59963"></scales>
<clustering>
<clus scale="   52.600">  3  6 -1 -1</clus>
<clus scale="  104.289">  2  4  1 -1</clus>
<clus scale="  155.373">  1  5  2 -1</clus>
<clus scale="  104.289">  2  3  1 -1</clus>
</clustering>
</event>
<event>
 6    0  0.1622933E+002  0.1338909E+03  0.7546771E-02  0.1221794E+00
          2   -1    0    0  503    0 -0.00000000000E+00  0.00000000000E+00  0.25595705743E+04  0.25595705743E+04  0.00000000000E+00 0. -1.
         21   -1    0    0  504  502  0.00000000000E+00 -0.00000000000E+00 -0.70971933809E+01  0.70971933809E+01  0.00000000000E+00 0. -1.
         21    1    1    2  503  505 -0.16760006510E+02  0.54487249206E+02  0.84971658772E+03  0.85162670084E+03  0.00000000000E+00 0.  1.
         21    1    1    2  504  501  0.64730882079E+02 -0.59951793407E+02  0.80875743237E+03  0.81355570740E+03  0.00000000000E+00 0. -1.
         21    1    1    2  505  502 -0.51806062591E+02  0.47195222934E+02  0.66506262252E+03  0.66874475629E+03  0.00000000000E+00 0. -1.
          2    1    1    2  501    0  0.38351870215E+01 -0.41730678733E+02  0.22893673829E+03  0.23274060313E+03  0.00000000000E+00 0. -1.
<scales pt_clust_3="39.65013" pt_clust_4="37.02501" pt_clust_5="130.28166" pt_clust_6="37.02501"></scales>
<clustering>
<clus scale="   37.025">  4  6 -1 -1</clus>
<clus scale="   39.650">  3  5 -1 -1</clus>
<clus scale="  130.282">  1  3  2 -1</clus>
<clus scale="  133.891">  2  3  1 -1</clus>
</clustering>
</event>
<event>
 6    0  0.1622933E+002  0.1533273E+03  0.7546771E-02  0.1196443E+00
         -2   -1    0    0    0  501 -0.00000000000E+00  0.00000000000E+00  0.17248306974E+03  0.17248306974E+03  0.00000000000E+00 0.  1.
         21   -1    0    0  504  502  0.00000000000E+00 -0.00000000000E+00 -0.26531464066E+03  0.26531464066E+03  0.00000000000E+00 0.  1.
         21    1    1    2  503  502 -0.22372212641E+02  0.15102291438E+03 -0.14023147595E+03  0.20730003235E+03  0.00000000000E+00 0.  1.
         21    1    1    2  504  501  0.31362474997E+02 -0.68552517099E+01  0.72755726786E+02  0.79523550562E+02  0.00000000000E+00 0.  1.
         21    1    1    2  505  503 -0.18941345777E+02 -0.58092102689E+02 -0.15801346140E+01  0.61122531034E+02  0.00000000000E+00 0.  1.
         -2    1    1    2    0  505  0.99510834209E+01 -0.86075559980E+02 -0.23775687143E+02  0.89851596460E+02  0.00000000000E+00 0.  1.
<scales pt_clust_3="149.07762" pt_clust_4="32.10295" pt_clust_5="30.10372" pt_clust_6="30.10372"></scales>
<clustering>
<clus scale="   30.104">  5  6 -1 -1</clus>
<clus scale="   32.103">  1  4  2 -1</clus>
<clus scale="  149.078">  2  3  1 -1</clus>
<clus scale="  149.078">  2  3  1 -1</clus>
</clustering>
</event>
<event>
 6    0  0.1622933E+002  0.1136116E+03  0.7546771E-02  0.1254024E+00
          4   -1    0    0  503    0 -0.00000000000E+00  0.00000000000E+00  0.45879081431E+03  0.45879081431E+03  0.00000000000E+00 0.  1.
         21   -1    0    0  504  502  0.00000000000E+00 -0.00000000000E+00 -0.25080956075E+03  0.25080956075E+03  0.00000000000E+00 0. -1.
         21    1    1    2  503  505 -0.41210578070E+02  0.56699467078E+01  0.48238511355E+02  0.63697833702E+02  0.00000000000E+00 0.  1.
         21    1    1    2  504  501 -0.16909705813E+02  0.11464776569E+03 -0.21192256546E+03  0.24153927647E+03  0.00000000000E+00 0. -1.
         21    1    1    2  505  502 -0.11557306124E+02 -0.60284551189E+02  0.97802189873E+02  0.11546889963E+03  0.00000000000E+00 0.  1.
          4    1    1    2  501    0  0.69677590007E+02 -0.60033161208E+02  0.27386311779E+03  0.28889436526E+03  0.00000000000E+00 0.  1.
<scales pt_clust_3="41.59880" pt_clust_4="14000.00000" pt_clust_5="62.93059" pt_clust_6="113.61155"></scales>
<clustering>
<clus scale="   41.599">  1  3  2 -1</clus>
<clus scale="   62.931">  1  5  2 -1</clus>
<clus scale="  113.612">  1  6  2 -1</clus>
<clus scale="  113.612">  2  3  1 -1</clus>
</clustering>
</event>
<event>
 6    0  0.1622933E+002  0.1562407E+03  0.7546771E-02  0.1193008E+00
          2   -1    0    0  503    0 -0.00000000000E+00  0.00000000000E+00  0.77567472125E+03  0.77567472125E+03  0.00000000000E+00 0.  1.
         21   -1    0    0  505  502  0.00000000000E+00 -0.00000000000E+00 -0.52379899534E+02  0.52379899534E+02  0.00000000000E+00 0. -1.
         21    1    1    2  503  502  0.75276544617E+02 -0.10666107800E+03  0.20524165552E+03  0.24324325457E+03  0.00000000000E+00 0. -1.
         21    1    1    2  504  501 -0.70404966908E+02  0.51628419295E+02  0.23743604985E+03  0.25297871612E+03  0.00000000000E+00 0.  1.
         21    1    1    2  505  504  0.31145982536E+02 -0.17435654943E+02 -0.40155683251E+01  0.35919341314E+02  0.00000000000E+00 0. -1.
          2    1    1    2  501    0 -0.36017560245E+02  0.72468313652E+02  0.28463268467E+03  0.29591330877E+03  0.00000000000E+00 0.  1.
<scales pt_clust_3="149.70046" pt_clust_4="43.88913" pt_clust_5="35.69418" pt_clust_6="43.88913"></scales>
<clustering>
<clus scale="   35.694">  2  5  1 -1</clus>
<clus scale="   43.889">  4  6 -1 -1</clus>
<clus scale="  149.700">  2  3  1 -1</clus>
<clus scale="   35.694">  2  3  1 -1</clus>
</clustering>
</event>
<event>
 6    0  0.1622933E+002  0.1519094E+03  0.7546771E-02  0.1198146E+00
         21   -1    0    0  505  502  0.00000000000E+00  0.00000000000E+00  0.38218407196E+03  0.38218407196E+03  0.00000000000E+00 0.  1.
          1   -1    0    0  502    0 -0.00000000000E+00 -0.00000000000E+00 -0.43452142491E+03  0.43452142491E+03  0.00000000000E+00 0. -1.
         21    1    1    2  503  504 -0.58747247649E+02 -0.51172679757E+02 -0.38765859033E+02  0.87021112878E+02  0.00000000000E+00 0. -1.
         21    1    1    2  504  501 -0.15038243891E+02 -0.40817435976E+02  0.10246211844E+02  0.44690006894E+02  0.00000000000E+00 0.  1.
         21    1    1    2  505  503  0.19690184607E+02 -0.50596583970E+02  0.31172682678E+03  0.31641955094E+03  0.00000000000E+00 0.  1.
          1    1    1    2  501    0  0.54095306934E+02  0.14258669970E+03 -0.33554453254E+03  0.36857482617E+03  0.00000000000E+00 0. -1.
<scales pt_clust_3="38.30518" pt_clust_4="38.30518" pt_clust_5="54.29289" pt_clust_6="142.99826"></scales>
<clustering>
<clus scale="   38.305">  3  4 -1 -1</clus>
<clus scale="   54.293">  1  5  2 -1</clus>
<clus scale="  142.998">  2  6  1 -1</clus>
<clus scale="   54.293">  1  3  2 -1</clus>
</clustering>
</event>
<event>
 6    0  0.1622933E+002  0.2469038E+03  0.7546771E-02  0.1115277E+00
          2   -1    0    0  503    0 -0.00000000000E+00  0.00000000000E+00  0.15743690718E+04  0.15743690718E+04  0.00000000000E+00 0. -1.
         21   -1    0    0  505  502  0.00000000000E+00 -0.00000000000E+00 -0.16968685495E+04  0.16968685495E+04  0.00000000000E+00 0. -1.
         21    1    1    2  503  504 -0.58157206907E+01 -0.13074235615E+03  0.38786482608E+03  0.40934888495E+03  0.00000000000E+00 0. -1.
         21    1    1    2  504  502 -0.18825236814E+03  0.12982945876E+03  0.97187594939E+02  0.24847549393E+03  0.00000000000E+00 0.  1.
         21    1    1    2  505  501 -0.28876117534E+02  0.27131244441E+02 -0.15976728038E+04  0.15981640475E+04  0.00000000000E+00 0. -1.
          2    1    1    2  501    0  0.22294420636E+03 -0.26218347055E+02  0.99012090512E+03  0.10152491948E+04  0.00000000000E+00 0. -1.
<scales pt_clust_3="128.11004" pt_clust_4="246.90376" pt_clust_5="39.62240" pt_clust_6="14000.00000"></scales>
<clustering>
<clus scale="   39.622">  2  5  1 -1</clus>
<clus scale="  128.110">  1  3  2 -1</clus>
<clus scale="  246.904">  2  4  1 -1</clus>
<clus scale="   39.622">  2  3  1 -1</clus>
</clustering>
</event>
<event>
 6    0  0.1622933E+002  0.1824901E+03  0.7546771E-02  0.1165415E+00
         21   -1    0    0  501  502  0.00000000000E+00  0.00000000000E+00  0.84609104915E+02  0.84609104915E+02  0.00000000000E+00 0.  1.
          1   -1    0    0  505    0 -0.00000000000E+00 -0.00000000000E+00 -0.76650603480E+03  0.76650603480E+03  0.00000000000E+00 0.  1.
         21    1    1    2  503  502 -0.18086590990E+02 -0.58374277389E+02 -0.48665415222E+02  0.78121723439E+02  0.00000000000E+00 0. -1.
         21    1    1    2  504  503  0.22209359373E+02 -0.77775470195E+02 -0.63583345612E+02  0.10288401842E+03  0.00000000000E+00 0.  1.
         21    1    1    2  505  504  0.10052413716E+03  0.19078939549E+03 -0.46408453886E+03  0.51174227380E+03  0.00000000000E+00 0.  1.
          1    1    1    2  501    0 -0.10464690554E+03 -0.54639647908E+02 -0.10556363020E+03  0.15836712406E+03  0.00000000000E+00 0.  1.
<scales pt_clust_3="34.87245" pt_clust_4="34.87245" pt_clust_5="178.02553" pt_clust_6="118.05281"></scales>
<clustering>
<clus scale="   34.872">  3  4 -1 -1</clus>
<clus scale="  118.053">  1  6  2 -1</clus>
<clus scale="  178.026">  2  5  1 -1</clus>
<clus scale="  118.053">  1  3  2 -1</clus>
</clustering>
</event>
<event>
 6    0  0.1622933E+002  0.7634253E+02  0.7546771E-02  0.1339763E+00
         21   -1    0    0  503  502  0.00000000000E+00  0.00000000000E+00  0.16642523500E+03  0.16642523500E+03  0.00000000000E+00 0.  1.
          2   -1    0    0  505    0 -0.00000000000E+00 -0.00000000000E+00 -0.22632907832E+03  0.22632907832E+03  0.00000000000E+00 0.  1.
         21    1    1    2  503  501  0.36147972206E+02  0.60860224335E+02  0.34773115477E+01  0.70871252962E+02  0.00000000000E+00 0.  1.
         21    1    1    2  504  502  0.53942237937E+02 -0.48306146583E+02  0.99382030091E+02  0.12296355857E+03  0.00000000000E+00 0.  1.
         21    1    1    2  505  504 -0.20647887118E+02  0.25862784239E+02 -0.32489055226E+02  0.46376260743E+02  0.00000000000E+00 0. -1.
          2    1    1    2  501    0 -0.69442323025E+02 -0.38416861991E+02 -0.13027412973E+03  0.15254324105E+03  0.00000000000E+00 0.  1.
<scales pt_clust_3="14000.00000" pt_clust_4="70.35227" pt_clust_5="33.09409" pt_clust_6="76.34253"></scales>
<clustering>
<clus scale="   33.094">  2  5  1 -1</clus>
<clus scale="   70.352">  1  4  2 -1</clus>
<clus scale="   76.343">  2  6  1 -1</clus>
<clus scale="   70.352">  1  3  2 -1</clus>
</clustering>
</event>
<event>
 6    0  0.1622933E+002  0.1084102E+03  0.7546771E-02  0.1263543E+00
          1   -1    0    0  503    0 -0.00000000000E+00  0.00000000000E+00  0.25007816451E+04  0.25007816451E+04  0.00000000000E+00 0. -1.
         21   -1    0    0  504  502  0.00000000000E+00 -0.00000000000E+00 -0.11240667077E+03  0.11240667077E+03  0.00000000000E+00 0. -1.
         21    1    1    2  503  502 -0.67373194127E+02 -0.69011458351E+02 -0.81264299244E+02  0.12611746510E+03  0.00000000000E+00 0. -1.
         21    1    1    2  504  505 -0.30317356002E+02  0.56076488130E+02  0.12880820350E+03  0.14371940678E+03  0.00000000000E+00 0.  1.
         21    1    1    2  505  501  0.29579144471E+02  0.10216250434E+02  0.36310785818E+03  0.36445385748E+03  0.00000000000E+00 0. -1.
          1    1    1    2  501    0  0.68111405657E+02  0.27187197877E+01  0.19777232119E+04  0.19788975865E+04  0.00000000000E+00 0. -1.
<scales pt_clust_3="98.27328" pt_clust_4="63.74727" pt_clust_5="31.01358" pt_clust_6="31.01358"></scales>
<clustering>
<clus scale="   31.014">  5  6 -1 -1</clus>
<clus scale="   63.747">  2  4  1 -1</clus>
<clus scale="   98.273">  2  3  1 -1</clus>
<clus scale="   63.747">  2  3  1 -1</clus>
</clustering>
</event>
<event>
 6    0  0.1622933E+002  0.1296223E+03  0.7546771E-02  0.1228017E+00
          1   -1    0    0  504    0 -0.00000000000E+00  0.00000000000E+00  0.37949411399E+03  0.37949411399E+03  0.00000000000E+00 0. -1.
         21   -1    0    0  505  502  0.00000000000E+00 -0.00000000000E+00 -0.18168808261E+03  0.18168808261E+03  0.00000000000E+00 0.  1.
         21    1    1    2  503  502  0.58358188679E+02  0.17229314985E+02  0.32797364823E+02  0.69124486400E+02  0.00000000000E+00 0.  1.
         21    1    1    2  504  503 -0.30928739649E+02 -0.33538119620E+02  0.18261408381E+02  0.49141341455E+02  0.00000000000E+00 0. -1.
         21    1    1    2  505  501 -0.27735704591E+02 -0.12546544293E+03 -0.96959017063E+02  0.16097172941E+03  0.00000000000E+00 0.  1.
          1    1    1    2  501    0  0.30625556129E+00  0.14177424756E+03  0.24370627524E+03  0.28194463935E+03  0.00000000000E+00 0. -1.
<scales pt_clust_3="55.18525" pt_clust_4="45.62228" pt_clust_5="129.62227" pt_clust_6="14000.00000"></scales>
<clustering>
<clus scale="   45.622">  1  4  2 -1</clus>
<clus scale="   55.185">  1  3  2 -1</clus>
<clus scale="  129.622">  2  5  1 -1</clus>
<clus scale="  129.622">  2  3  1 -1</clus>
</clustering>
</event>
<event>
 6    0  0.1622933E+002  0.1115186E+03  0.7546771E-02  0.1257783E+00
          1   -1    0    0  505    0 -0.00000000000E+00  0.00000000000E+00  0.10353851193E+04  0.10353851193E+04  0.00000000000E+00 0.  1.
         21   -1    0    0  504  502  0.00000000000E+00 -0.00000000000E+00 -0.35754619340E+03  0.35754619340E+03  0.00000000000E+00 0. -1.
         21    1    1    2  503  502 -0.32996186148E+02  0.34478684832E+02 -0.32879174925E+03  0.33223717791E+03  0.00000000000E+00 0. -1.
         21    1    1    2  504  501 -0.15657722350E+02 -0.13582871632E+03  0.22143587338E+03  0.26024690289E+03  0.00000000000E+00 0. -1.
         21    1    1    2  505  503  0.20556728534E+02  0.22264228078E+02  0.38235464464E+02  0.48787556638E+02  0.00000000000E+00 0. -1.
          1    1    1    2  501    0  0.28097179964E+02  0.79085803408E+02  0.74695933731E+03  0.75165967527E+03  0.00000000000E+00 0.  1.
<scales pt_clust_3="47.72673" pt_clust_4="14000.00000" pt_clust_5="30.30305" pt_clust_6="111.51856"></scales>
<clustering>
<clus scale="   30.303">  1  5  2 -1</clus>
<clus scale="   47.727">  2  3  1 -1</clus>
<clus scale="  111.519">  1  6  2 -1</clus>
<clus scale="   47.727">  2  3  1 -1</clus>
</clustering>
</event>
<event>
 6    0  0.1622933E+002  0.2235966E+03  0.7546771E-02  0.1131230E+00
         -4   -1    0    0    0  501 -0.00000000000E+00  0.00000000000E+00  0.21950388310E+03  0.21950388310E+03  0.00000000000E+00 0. -1.
         21   -1    0    0  505  502  0.00000000000E+00 -0.00000000000E+00 -0.84458183709E+03  0.84458183709E+03  0.00000000000E+00 0.  1.
         21    1    1    2  503  502 -0.12223041178E+03 -0.35715956627E+02  0.13072962930E+02  0.12801095844E+03  0.00000000000E+00 0. -1.
         21    1    1    2  504  501  0.92992839489E+01  0.36330631815E+02  0.11575673497E+02  0.39247773273E+02  0.00000000000E+00 0. -1.
         21    1    1    2  505  504  0.19789237595E+03  0.56563934693E+02 -0.73518063573E+03  0.76344707631E+03  0.00000000000E+00 0.  1.
         -4    1    1    2    0  503 -0.84961248120E+02 -0.57178609881E+02  0.85454045320E+02  0.13337991217E+03  0.00000000000E+00 0. -1.
<scales pt_clust_3="71.56781" pt_clust_4="37.50189" pt_clust_5="207.20910" pt_clust_6="71.56781"></scales>
<clustering>
<clus scale="   37.502">  1  4  2 -1</clus>
<clus scale="   71.568">  3  6 -1 -1</clus>
<clus scale="  207.209">  2  5  1 -1</clus>
<clus scale="  207.209">  2  3  1 -1</clus>
</clustering>
</event>
<event>
 6    0  0.1622933E+002  0.1054686E+03  0.7546771E-02  0.1269199E+00
         21   -1    0    0  504  502  0.00000000000E+00  0.00000000000E+00  0.10984762440E+04  0.10984762440E+04  0.00000000000E+00 0.  1.
          1   -1    0    0  503    0 -0.00000000000E+00 -0.00000000000E+00 -0.54789327734E+03  0.54789327734E+03  0.00000000000E+00 0. -1.
         21    1    1    2  503  502 -0.15317012427E+02 -0.40751402588E+02 -0.59932429554E+02  0.74075527638E+02  0.00000000000E+00 0.  1.
         21    1    1    2  504  505 -0.57731515634E+01  0.87609141351E+02  0.10588879529E+04  0.10625217117E+04  0.00000000000E+00 0.  1.
         21    1    1    2  505  501  0.90656275691E+02  0.16338455181E+02 -0.59403556178E+02  0.10960970726E+03  0.00000000000E+00 0. -1.
          1    1    1    2  501    0 -0.69566111700E+02 -0.63196193944E+02 -0.38896900056E+03  0.40016257474E+03  0.00000000000E+00 0. -1.
<scales pt_clust_3="43.53490" pt_clust_4="87.64935" pt_clust_5="14000.00000" pt_clust_6="105.46856"></scales>
<clustering>
<clus scale="   43.535">  2  3  1 -1</clus>
<clus scale="   87.649">  1  4  2 -1</clus>
<clus scale="  105.469">  2  6  1 -1</clus>
<clus scale="   87.649">  1  3  2 -1</clus>
</clustering>
</event>
<event>
 6    0  0.1622933E+002  0.9060088E+02  0.7546771E-02  0.1301403E+00
         -2   -1    0    0    0  501 -0.00000000000E+00  0.00000000000E+00  0.14339497837E+03  0.14339497837E+03  0.00000000000E+00 0. -1.
         21   -1    0    0  505  502  0.00000000000E+00 -0.00000000000E+00 -0.27798061280E+03  0.27798061280E+03  0.00000000000E+00 0. -1.
         21    1    1    2  503  504  0.55295427228E+02  0.28524730349E+02  0.44257139163E+02  0.76354036440E+02  0.00000000000E+00 0. -1.
         21    1    1    2  504  501 -0.68626528410E+01  0.54256949437E+02  0.41131545079E+02  0.68430377515E+02  0.00000000000E+00 0. -1.
         21    1    1    2  505  503  0.36019737106E+02  0.11441133726E+02 -0.76271280454E+02  0.85121261881E+02  0.00000000000E+00 0. -1.
         -2    1    1    2    0  502 -0.84452511493E+02 -0.94222813513E+02 -0.14370303822E+03  0.19146991533E+03  0.00000000000E+00 0. -1.
<scales pt_clust_3="90.60088" pt_clust_4="55.22175" pt_clust_5="37.79313" pt_clust_6="14000.00000"></scales>
<clustering>
<clus scale="   37.793">  2  5  1 -1</clus>
<clus scale="   55.222">  1  4  2 -1</clus>
<clus scale="   90.601">  1  3  2 -1</clus>
<clus scale="   37.793">  2  3  1 -1</clus>
</clustering>
</event>
<event>
 6    0  0.1622933E+002  0.1088231E+03  0.7546771E-02  0.1262765E+00
         21   -1    0    0  505  502  0.00000000000E+00  0.00000000000E+00  0.51966408225E+03  0.51966408225E+03  0.00000000000E+00 0. -1.
          2   -1    0    0  504    0 -0.00000000000E+00 -0.00000000000E+00 -0.17852570424E+03  0.17852570424E+03  0.00000000000E+00 0. -1.
         21    1    1    2  503  502  0.11170681012E+03  0.13779138547E+01  0.45356773075E+03  0.46712310632E+03  0.00000000000E+00 0. -1.
         21    1    1    2  504  503 -0.45803629539E+02 -0.20770025274E+02  0.51677580550E+01  0.50557612208E+02  0.00000000000E+00 0. -1.
         21    1    1    2  505  501 -0.53082369275E+02 -0.22699260857E+02 -0.12329403656E+03  0.13614115404E+03  0.00000000000E+00 0. -1.
          2    1    1    2  501    0 -0.12820811310E+02  0.42091372276E+02  0.56969257682E+01  0.44367913924E+02  0.00000000000E+00 0. -1.
<scales pt_clust_3="14000.00000" pt_clust_4="49.86867" pt_clust_5="108.82309" pt_clust_6="44.00065"></scales>
<clustering>
<clus scale="   44.001">  2  6  1 -1</clus>
<clus scale="   49.869">  2  4  1 -1</clus>
<clus scale="  108.823">  2  5  1 -1</clus>
<clus scale="  108.823">  1  3  2 -1</clus>
</clustering>
</event>
<event>
 6    0  0.1622933E+002  0.7550765E+02  0.7546771E-02  0.1342306E+00
         21   -1    0    0  504  502  0.00000000000E+00  0.00000000000E+00  0.29695558978E+02  0.29695558978E+02  0.00000000000E+00 0. -1.
          2   -1    0    0  505    0 -0.00000000000E+00 -0.00000000000E+00 -0.13730425480E+04  0.13730425480E+04  0.00000000000E+00 0. -1.
         21    1    1    2  503  502  0.56832750270E+01  0.40399855795E+02 -0.12090419141E+03  0.12760200415E+03  0.00000000000E+00 0. -1.
         21    1    1    2  504  501 -0.69012302355E+02 -0.17467832233E+01 -0.23552767353E+03  0.24543641565E+03  0.00000000000E+00 0. -1.
         21    1    1    2  505  503  0.63948209064E+02 -0.82860080324E+02 -0.11061652284E+03  0.15228651115E+03  0.00000000000E+00 0. -1.
          2    1    1    2  501    0 -0.61918173586E+00  0.44207007752E+02 -0.87629860129E+03  0.87741317607E+03  0.00000000000E+00 0. -1.
<scales pt_clust_3="40.79765" pt_clust_4="14000.00000" pt_clust_5="75.50765" pt_clust_6="45.06431"></scales>
<clustering>
<clus scale="   40.798">  1  3  2 -1</clus>
<clus scale="   45.064">  2  6  1 -1</clus>
<clus scale="   75.508">  1  5  2 -1</clus>
<clus scale="   40.798">  1  3  2 -1</clus>
</clustering>
</event>
<event>
 6    0  0.1622933E+002  0.1052014E+03  0.7546771E-02  0.1269723E+00
         21   -1    0    0  503  502  0.00000000000E+00  0.00000000000E+00  0.33293063465E+03  0.33293063465E+03  0.00000000000E+00 0. -1.
         -1   -1    0    0    0  501 -0.00000000000E+00 -0.00000000000E+00 -0.12474625252E+04  0.12474625252E+04  0.00000000000E+00 0.  1.
         21    1    1    2  503  504 -0.41455885359E+02 -0.22776595226E+02  0.30286004467E+03  0.30653151613E+03  0.00000000000E+00 0. -1.
         21    1    1    2  504  505 -0.79095223228E+02  0.80130713239E+01 -0.48615977468E+02  0.93186785086E+02  0.00000000000E+00 0.  1.
         21    1    1    2  505  501  0.46158790173E+02 -0.50368113097E+02 -0.48209181809E+03  0.48690872019E+03  0.00000000000E+00 0.  1.
         -1    1    1    2    0  502  0.74392318414E+02  0.65131636998E+02 -0.68668413964E+03  0.69376613841E+03  0.00000000000E+00 0.  1.
<scales pt_clust_3="47.30078" pt_clust_4="14000.00000" pt_clust_5="67.47682" pt_clust_6="105.20135"></scales>
<clustering>
<clus scale="   47.301">  1  3  2 -1</clus>
<clus scale="   67.477">  2  5  1 -1</clus>
<clus scale="  105.201">  2  6  1 -1</clus>
<clus scale="   47.301">  1  3  2 -1</clus>
</clustering>
</event>
<event>
 6    0  0.1622933E+002  0.7950899E+02  0.7546771E-02  0.1330451E+00
         21   -1    0    0  505  502  0.00000000000E+00  0.00000000000E+00  0.55274301584E+02  0.55274301584E+02  0.00000000000E+00 0.  1.
          2   -1    0    0  504    0 -0.00000000000E+00 -0.00000000000E+00 -0.10228505983E+04  0.10228505983E+04  0.00000000000E+00 0. -1.
         21    1    1    2  503  501 -0.83712126614E+02 -0.37804773765E+01 -0.88310879140E+02  0.12174080469E+03  0.00000000000E+00 0.  1.
         21    1    1    2  504  502  0.25702632991E+02 -0.40498827683E+02 -0.85023727408E+02  0.97620769352E+02  0.00000000000E+00 0.  1.
         21    1    1    2  505  503 -0.20389662873E+02  0.34189439678E+02  0.17283258798E+02  0.43397778426E+02  0.00000000000E+00 0.  1.
          2    1    1    2  501    0  0.78399156497E+02  0.10089865382E+02 -0.81152494895E+03  0.81536554740E+03  0.00000000000E+00 0. -1.
<scales pt_clust_3="14000.00000" pt_clust_4="37.91552" pt_clust_5="39.80774" pt_clust_6="79.50899"></scales>
<clustering>
<clus scale="   39.808">  1  5  2 -1</clus>
<clus scale="   37.916">  1  4  2 -1</clus>
<clus scale="   79.509">  2  6  1 -1</clus>
<clus scale="   39.808">  1  3  2 -1</clus>
</clustering>
</event>
<event>
 6    0  0.1622933E+002  0.1629314E+03  0.7546771E-02  0.1185426E+00
          2   -1    0    0  504    0 -0.00000000000E+00  0.00000000000E+00  0.14254984851E+04  0.14254984851E+04  0.00000000000E+00 0.  1.
         21   -1    0    0  503  502  0.00000000000E+00 -0.00000000000E+00 -0.53278585285E+02  0.53278585285E+02  0.00000000000E+00 0. -1.
         21    1    1    2  503  505  0.14113425396E+02 -0.31425982357E+02  0.34779390985E+02  0.48952907787E+02  0.00000000000E+00 0.  1.
         21    1    1    2  504  502 -0.13350931315E+03 -0.64097165532E+02  0.93502225451E+02  0.17514522400E+03  0.00000000000E+00 0. -1.
         21    1    1    2  505  501  0.16773622897E+02  0.34721529520E+02  0.18057114148E+03  0.18464256327E+03  0.00000000000E+00 0.  1.
          2    1    1    2  501    0  0.10262226485E+03  0.60801618369E+02  0.10633671419E+04  0.10700363753E+04  0.00000000000E+00 0.  1.
<scales pt_clust_3="34.44969" pt_clust_4="151.95361" pt_clust_5="33.42868" pt_clust_6="33.42868"></scales>
<clustering>
<clus scale="   33.429">  5  6 -1 -1</clus>
<clus scale="   34.450">  2  3  1 -1</clus>
<clus scale="  151.954">  2  4  1 -1</clus>
<clus scale="   34.450">  2  3  1 -1</clus>
</clustering>
</event>
<event>
 6    0  0.1622933E+002  0.1960421E+03  0.7546771E-02  0.1153122E+00
         -4   -1    0    0    0  501 -0.00000000000E+00  0.00000000000E+00  0.30303494425E+03  0.30303494425E+03  0.00000000000E+00 0. -1.
         21   -1    0    0  505  502  0.00000000000E+00 -0.00000000000E+00 -0.22236631336E+04  0.22236631336E+04  0.00000000000E+00 0. -1.
         21    1    1    2  503  501 -0.11842773671E+03 -0.37534580927E+02 -0.41958381892E+01  0.12430437902E+03  0.00000000000E+00 0. -1.
         21    1    1    2  504  502  0.35613338194E+02 -0.21372173941E+03 -0.10873013671E+03  0.24242016085E+03  0.00000000000E+00 0. -1.
         21    1    1    2  505  503 -0.80449049396E+02  0.53116655852E+02 -0.18883945474E+04  0.18908536155E+04  0.00000000000E+00 0. -1.
         -4    1    1    2    0  504  0.16326344791E+03  0.19813966449E+03  0.80692332946E+02  0.26911992246E+03  0.00000000000E+00 0. -1.
<scales pt_clust_3="136.65979" pt_clust_4="196.04210" pt_clust_5="96.40243" pt_clust_6="14000.00000"></scales>
<clustering>
<clus scale="   96.402">  2  5  1 -1</clus>
<clus scale="  136.660">  1  3  2 -1</clus>
<clus scale="  196.042">  2  4  1 -1</clus>
<clus scale="   96.402">  2  3  1 -1</clus>
</clustering>
</event>
<event>
 6    0  0.1622933E+002  0.9450430E+02  0.7546771E-02  0.1292296E+00
          4   -1    0    0  505    0 -0.00000000000E+00  0.00000000000E+00  0.11238900806E+03  0.11238900806E+03  0.00000000000E+00 0. -1.
         21   -1    0    0  501  502  0.00000000000E+00 -0.00000000000E+00 -0.86278922135E+03  0.86278922135E+03  0.00000000000E+00 0.  1.
         21    1    1    2  503  504  0.72461828065E+02  0.19164296630E+02  0.39406195759E+02  0.84680783275E+02  0.00000000000E+00 0. -1.
         21    1    1    2  504  502 -0.83646423549E+01 -0.96669952069E+02 -0.74695927133E+03  0.75323515578E+03  0.00000000000E+00 0.  1.
         21    1    1    2  505  503 -0.48671265624E+02  0.11002010748E+02 -0.47423439480E+02  0.68839806436E+02  0.00000000000E+00 0. -1.
          4    1    1    2  501    0 -0.15425920086E+02  0.66503644690E+02  0.45763017651E+01  0.68422483918E+02  0.00000000000E+00 0. -1.
<scales pt_clust_3="49.98374" pt_clust_4="94.50430" pt_clust_5="49.89926" pt_clust_6="14000.00000"></scales>
<clustering>
<clus scale="   49.899">  1  5  2 -1</clus>
<clus scale="   49.984">  1  3  2 -1</clus>
<clus scale="   94.504">  2  4  1 -1</clus>
<clus scale="   94.504">  2  3  1 -1</clus>
</clustering>
</event>
<event>
 6    0  0.1622933E+002  0.2179384E+03  0.7546771E-02  0.1135429E+00
          2   -1    0    0  504    0 -0.00000000000E+00  0.00000000000E+00  0.36616937371E+04  0.36616937371E+04  0.00000000000E+00 0. -1.
         21   -1    0    0  503  502  0.00000000000E+00 -0.00000000000E+00 -0.30640942015E+03  0.30640942015E+03  0.00000000000E+00 0. -1.
         21    1    1    2  503  501 -0.49052808465E+02  0.77160212441E+02  0.31408720138E+03  0.32712481788E+03  0.00000000000E+00 0. -1.
         21    1    1    2  504  505  0.21886690933E+03  0.10052891427E+03  0.19965144648E+04  0.20109895064E+04  0.00000000000E+00 0. -1.
         21    1    1    2  505  502 -0.16584847893E+02 -0.51908196892E+02 -0.28268988904E+03  0.28789423657E+03  0.00000000000E+00 0. -1.
          2    1    1    2  501    0 -0.15322925298E+03 -0.12578092982E+03  0.13273725398E+04  0.13420945964E+04  0.00000000000E+00 0. -1.
<scales pt_clust_3="81.68427" pt_clust_4="217.93842" pt_clust_5="54.49328" pt_clust_6="14000.00000"></scales>
<clustering>
<clus scale="   54.493">  2  5  1 -1</clus>
<clus scale="   81.684">  2  3  1 -1</clus>
<clus scale="  217.938">  1  4  2 -1</clus>
<clus scale="   54.493">  2  3  1 -1</clus>
</clustering>
</event>
<event>
 6    0  0.1622933E+002  0.8594990E+02  0.7546771E-02  0.1312967E+00
         21   -1    0    0  504  502  0.00000000000E+00  0.00000000000E+00  0.39338037854E+02  0.39338037854E+02  0.00000000000E+00 0. -1.
          2   -1    0    0  503    0 -0.00000000000E+00 -0.00000000000E+00 -0.13841875359E+04  0.13841875359E+04  0.00000000000E+00 0. -1.
         21    1    1    2  503  502 -0.79475780886E+02 -0.67552549890E+02 -0.41123239365E+03  0.42425443819E+03  0.00000000000E+00 0. -1.
         21    1    1    2  504  505  0.65873926569E+02  0.51131320172E+02 -0.28860140985E+02  0.88242245221E+02  0.00000000000E+00 0. -1.
         21    1    1    2  505  501  0.86543692113E+01  0.60968651919E+02 -0.55778417831E+03  0.56117311429E+03  0.00000000000E+00 0. -1.
          2    1    1    2  501    0  0.49474851065E+01 -0.44547422200E+02 -0.34697278505E+03  0.34985577600E+03  0.00000000000E+00 0. -1.
<scales pt_clust_3="85.94990" pt_clust_4="14000.00000" pt_clust_5="38.60515" pt_clust_6="44.82132"></scales>
<clustering>
<clus scale="   44.821">  2  6  1 -1</clus>
<clus scale="   38.605">  2  5  1 -1</clus>
<clus scale="   85.950">  2  3  1 -1</clus>
<clus scale="   85.950">  1  3  2 -1</clus>
</clustering>
</event>
<event>
 6    0  0.1622933E+002  0.9990399E+02  0.7546771E-02  0.1280498E+00
          2   -1    0    0  504    0 -0.00000000000E+00  0.00000000000E+00  0.79351419113E+03  0.79351419113E+03  0.00000000000E+00 0.  1.
         21   -1    0    0  501  502  0.00000000000E+00 -0.00000000000E+00 -0.11736969594E+03  0.11736969594E+03  0.00000000000E+00 0.  1.
         21    1    1    2  503  502  0.42401126892E+02  0.49319674905E+02 -0.78483563291E+02  0.10193113166E+03  0.00000000000E+00 0.  1.
         21    1    1    2  504  505 -0.21680964293E+02 -0.27939731065E+02  0.11324409778E+03  0.11863776155E+03  0.00000000000E+00 0.  1.
         21    1    1    2  505  503  0.68536428572E+02 -0.10920933055E+02  0.35783706221E+02  0.78083176492E+02  0.00000000000E+00 0.  1.
          2    1    1    2  501    0 -0.89256591171E+02 -0.10459010785E+02  0.60560025448E+03  0.61223181737E+03  0.00000000000E+00 0.  1.
<scales pt_clust_3="64.42952" pt_clust_4="35.36514" pt_clust_5="99.90399" pt_clust_6="14000.00000"></scales>
<clustering>
<clus scale="   35.365">  1  4  2 -1</clus>
<clus scale="   64.430">  2  3  1 -1</clus>
<clus scale="   99.904">  2  5  1 -1</clus>
<clus scale="   64.430">  2  3  1 -1</clus>
</clustering>
</event>
<event>
 6    0  0.1622933E+002  0.1066639E+03  0.7546771E-02  0.1266876E+00
         21   -1    0    0  501  502  0.00000000000E+00  0.00000000000E+00  0.24958248178E+03  0.24958248178E+03  0.00000000000E+00 0.  1.
          2   -1    0    0  504    0 -0.00000000000E+00 -0.00000000000E+00 -0.21668946725E+03  0.21668946725E+03  0.00000000000E+00 0. -1.
         21    1    1    2  503  505  0.51513909896E+02  0.31628994986E+02 -0.71142208542E+01  0.60866151308E+02  0.00000000000E+00 0.  1.
         21    1    1    2  504  503  0.62588351893E+02 -0.10437447842E+03 -0.34075125494E+02  0.12638214951E+03  0.00000000000E+00 0.  1.
         21    1    1    2  505  502 -0.34856507717E+01  0.50779382587E+02  0.13960517854E+03  0.14859441892E+03  0.00000000000E+00 0.  1.
          2    1    1    2  501    0 -0.11061661102E+03  0.21966100843E+02 -0.65522817668E+02  0.13042922929E+03  0.00000000000E+00 0. -1.
<scales pt_clust_3="67.44774" pt_clust_4="14000.00000" pt_clust_5="50.89887" pt_clust_6="106.66391"></scales>
<clustering>
<clus scale="   50.899">  1  5  2 -1</clus>
<clus scale="   67.448">  1  3  2 -1</clus>
<clus scale="  106.664">  2  6  1 -1</clus>
<clus scale="   50.899">  1  3  2 -1</clus>
</clustering>
</event>
<event>
 6    0  0.1622933E+002  0.8235913E+02  0.7546771E-02  0.1322487E+00
         21   -1    0    0  503  502  0.00000000000E+00  0.00000000000E+00  0.39809583386E+03  0.39809583386E+03  0.00000000000E+00 0. -1.
          2   -1    0    0  505    0 -0.00000000000E+00 -0.00000000000E+00 -0.75592010014E+03  0.75592010014E+03  0.00000000000E+00 0. -1.
         21    1    1    2  503  501  0.11766338985E+03  0.73628331126E+02 -0.37281625931E+03  0.39781624861E+03  0.00000000000E+00 0. -1.
         21    1    1    2  504  502 -0.78482404421E+02 -0.22955730860E+02  0.37411843303E+03  0.38295046066E+03  0.00000000000E+00 0. -1.
         21    1    1    2  505  504  0.70904210827E+01 -0.29279902252E+02 -0.39994419395E+02  0.50071352386E+02  0.00000000000E+00 0. -1.
          2    1    1    2  501    0 -0.46271406515E+02 -0.21392698014E+02 -0.31913202062E+03  0.32317787234E+03  0.00000000000E+00 0. -1.
<scales pt_clust_3="14000.00000" pt_clust_4="82.35913" pt_clust_5="30.12618" pt_clust_6="55.25794"></scales>
<clustering>
<clus scale="   30.126">  2  5  1 -1</clus>
<clus scale="   55.258">  2  6  1 -1</clus>
<clus scale="   82.359">  1  4  2 -1</clus>
<clus scale="   82.359">  1  3  2 -1</clus>
</clustering>
</event>
<event>
 6    0  0.1622933E+002  0.9532181E+02  0.7546771E-02  0.1290453E+00
         21   -1    0    0  504  502  0.00000000000E+00  0.00000000000E+00  0.99359142548E+02  0.99359142548E+02  0.00000000000E+00 0.  1.
          2   -1    0    0  505    0 -0.00000000000E+00 -0.00000000000E+00 -0.28580008460E+03  0.28580008460E+03  0.00000000000E+00 0.  1.
         21    1    1    2  503  502  0.13162934407E+02 -0.40573309362E+02 -0.63956842693E+02  0.76876095127E+02  0.00000000000E+00 0.  1.
         21    1    1    2  504  501 -0.50500801376E+02 -0.99006027552E+01  0.38055445239E+02  0.64004451305E+02  0.00000000000E+00 0.  1.
         21    1    1    2  505  503 -0.16794405824E+02 -0.43999971384E+02 -0.11857980671E+03  0.12759004706E+03  0.00000000000E+00 0.  1.
          2    1    1    2  501    0  0.54132272793E+02  0.94473883500E+02 -0.41959737889E+02  0.11668863366E+03  0.00000000000E+00 0.  1.
<scales pt_clust_3="34.58879" pt_clust_4="51.46215" pt_clust_5="34.58879" pt_clust_6="88.12094"></scales>
<clustering>
<clus scale="   34.589">  3  5 -1 -1</clus>
<clus scale="   51.462">  1  4  2 -1</clus>
<clus scale="   88.121">  1  6  2 -1</clus>
<clus scale="   51.462">  1  3  2 -1</clus>
</clustering>
</event>
<event>
 6    0  0.1622933E+002  0.1057254E+03  0.7546771E-02  0.1268697E+00
          2   -1    0    0  503    0 -0.00000000000E+00  0.00000000000E+00  0.83758353537E+03  0.83758353537E+03  0.00000000000E+00 0.  1.
         21   -1    0    0  501  502  0.00000000000E+00 -0.00000000000E+00 -0.42755309070E+02  0.42755309070E+02  0.00000000000E+00 0.  1.
         21    1    1    2  503  505 -0.54527413599E+01 -0.91859503541E+02  0.26416411575E+03  0.27973305280E+03  0.00000000000E+00 0. -1.
         21    1    1    2  504  502  0.26141596598E+02  0.15791151276E+02  0.17464853362E+02  0.35181879345E+02  0.00000000000E+00 0. -1.
         21    1    1    2  505  504  0.64577111150E+02 -0.38640380669E+02  0.82683449260E+02  0.11180266135E+03  0.00000000000E+00 0.  1.
          2    1    1    2  501    0 -0.85265966388E+02  0.11470873293E+03  0.43051580794E+03  0.45362125096E+03  0.00000000000E+00 0.  1.
<scales pt_clust_3="105.72541" pt_clust_4="30.54085" pt_clust_5="82.22777" pt_clust_6="14000.00000"></scales>
<clustering>
<clus scale="   30.541">  2  4  1 -1</clus>
<clus scale="   82.228">  2  5  1 -1</clus>
<clus scale="  105.725">  1  3  2 -1</clus>
<clus scale="   30.541">  2  3  1 -1</clus>
</clustering>
</event>
<event>
 6    0  0.1622933E+002  0.3608087E+03  0.7546771E-02  0.1058264E+00
         21   -1    0    0  503  502  0.00000000000E+00  0.00000000000E+00  0.17133749885E+03  0.17133749885E+03  0.00000000000E+00 0. -1.
          2   -1    0    0  505    0 -0.00000000000E+00 -0.00000000000E+00 -0.12528908617E+04  0.12528908617E+04  0.00000000000E+00 0.  1.
         21    1    1    2  503  501 -0.19919087277E+01  0.15808920442E+03 -0.27257992283E+03  0.31511264428E+03  0.00000000000E+00 0. -1.
         21    1    1    2  504  502 -0.32691723770E+02 -0.26093013564E+03 -0.13882297993E+02  0.26333629200E+03  0.00000000000E+00 0. -1.
         21    1    1    2  505  504 -0.38073123407E+02 -0.53345794561E+02 -0.53992673606E+02  0.84914929939E+02  0.00000000000E+00 0.  1.
          2    1    1    2  501    0  0.72756755905E+02  0.15618672578E+03 -0.74109846843E+03  0.76086449434E+03  0.00000000000E+00 0.  1.
<scales pt_clust_3="155.65898" pt_clust_4="341.57269" pt_clust_5="56.68977" pt_clust_6="155.65898"></scales>
<clustering>
<clus scale="   56.690">  4  5 -1 -1</clus>
<clus scale="  155.659">  3  6 -1 -1</clus>
<clus scale="  341.573">  1  4  2 -1</clus>
<clus scale="  341.573">  1  3  2 -1</clus>
</clustering>
</event>
<event>
 6    0  0.1622933E+002  0.1356419E+03  0.7546771E-02  0.1219316E+00
          1   -1    0    0  503    0 -0.00000000000E+00  0.00000000000E+00  0.16488456105E+04  0.16488456105E+04  0.00000000000E+00 0. -1.
         21   -1    0    0  504  502  0.00000000000E+00 -0.00000000000E+00 -0.79590829078E+02  0.79590829078E+02  0.00000000000E+00 0. -1.
         21    1    1    2  503  505 -0.17409707762E+02  0.29000842711E+02  0.20241940933E+03  0.20522612912E+03  0.00000000000E+00 0. -1.
         21    1    1    2  504  501 -0.14521749061E+02 -0.11341288082E+03  0.64686886812E+03  0.65689625914E+03  0.00000000000E+00 0. -1.
         21    1    1    2  505  502  0.10081442880E+03  0.97639834519E+02 -0.25809828933E+01  0.14037003887E+03  0.00000000000E+00 0. -1.
          1    1    1    2  501    0 -0.68882971976E+02 -0.13227796412E+02  0.72254748684E+03  0.72594401242E+03  0.00000000000E+00 0. -1.
<scales pt_clust_3="33.82524" pt_clust_4="135.64194" pt_clust_5="14000.00000" pt_clust_6="77.61973"></scales>
<clustering>
<clus scale="   33.825">  1  3  2 -1</clus>
<clus scale="   77.620">  1  6  2 -1</clus>
<clus scale="  135.642">  1  4  2 -1</clus>
<clus scale="  135.642">  2  3  1 -1</clus>
</clustering>
</event>
<event>
 6    0  0.1622933E+002  0.9468616E+02  0.7546771E-02  0.1291884E+00
          2   -1    0    0  505    0 -0.00000000000E+00  0.00000000000E+00  0.29859521921E+03  0.29859521921E+03  0.00000000000E+00 0. -1.
         21   -1    0    0  501  502  0.00000000000E+00 -0.00000000000E+00 -0.16202694734E+03  0.16202694734E+03  0.00000000000E+00 0. -1.
         21    1    1    2  503  504  0.16426895789E+02 -0.85043361940E+02 -0.29999793679E+02  0.91663536568E+02  0.00000000000E+00 0. -1.
         21    1    1    2  504  502 -0.53799515752E+02 -0.11310022969E+02 -0.26395538310E+02  0.60983841773E+02  0.00000000000E+00 0.  1.
         21    1    1    2  505  503  0.48170150700E+02 -0.72849532825E+01  0.19775287445E+03  0.20366549368E+03  0.00000000000E+00 0. -1.
          2    1    1    2  501    0 -0.10797530737E+02  0.10363833819E+03 -0.47892705900E+01  0.10430929453E+03  0.00000000000E+00 0. -1.
<scales pt_clust_3="14000.00000" pt_clust_4="47.00829" pt_clust_5="48.71790" pt_clust_6="94.68616"></scales>
<clustering>
<clus scale="   48.718">  1  5  2 -1</clus>
<clus scale="   47.008">  2  4  1 -1</clus>
<clus scale="   94.686">  1  6  2 -1</clus>
<clus scale="   47.008">  2  3  1 -1</clus>
</clustering>
</event>
<event>
 6    0  0.1622933E+002  0.3114588E+03  0.7546771E-02  0.1079649E+00
         21   -1    0    0  501  502  0.00000000000E+00  0.00000000000E+00  0.62079369990E+03  0.62079369990E+03  0.00000000000E+00 0. -1.
          1   -1    0    0  503    0 -0.00000000000E+00 -0.00000000000E+00 -0.49260980239E+03  0.49260980239E+03  0.00000000000E+00 0. -1.
         21    1    1    2  503  505 -0.24280426006E+02  0.56113645555E+02 -0.43194678710E+02  0.74860273666E+02  0.00000000000E+00 0.  1.
         21    1    1    2  504  502  0.38989991042E+02  0.25596169988E+02  0.36666979416E+03  0.36962429745E+03  0.00000000000E+00 0. -1.
         21    1    1    2  505  504 -0.27861238172E+03 -0.20149221460E+03 -0.59808439284E+02  0.34900003037E+03  0.00000000000E+00 0. -1.
          1    1    1    2  501    0  0.26390281668E+03  0.11978239906E+03 -0.13548277865E+03  0.31991890080E+03  0.00000000000E+00 0. -1.
<scales pt_clust_3="61.71052" pt_clust_4="46.64100" pt_clust_5="311.45883" pt_clust_6="14000.00000"></scales>
<clustering>
<clus scale="   46.641">  1  4  2 -1</clus>
<clus scale="   61.711">  2  3  1 -1</clus>
<clus scale="  311.459">  1  5  2 -1</clus>
<clus scale="   46.641">  1  3  2 -1</clus>
</clustering>
</event>
<event>
 6    0  0.1622933E+002  0.8300975E+02  0.7546771E-02  0.1320721E+00
         21   -1    0    0  501  502  0.00000000000E+00  0.00000000000E+00  0.14001123426E+04  0.14001123426E+04  0.00000000000E+00 0. -1.
          1   -1    0    0  504    0 -0.00000000000E+00 -0.00000000000E+00 -0.25253162188E+04  0.25253162188E+04  0.00000000000E+00 0. -1.
         21    1    1    2  503  505  0.25821405228E+02 -0.30173312875E+02 -0.20720433922E+02  0.44794086213E+02  0.00000000000E+00 0. -1.
         21    1    1    2  504  503 -0.29015212290E+02  0.76928153042E+01 -0.16592375107E+04  0.16595090174E+04  0.00000000000E+00 0. -1.
         21    1    1    2  505  502  0.19917186689E+02 -0.80552529242E+02  0.13834225031E+04  0.13859088088E+04  0.00000000000E+00 0. -1.
          1    1    1    2  501    0 -0.16723379626E+02  0.10303302681E+03 -0.82866843466E+03  0.83521664893E+03  0.00000000000E+00 0. -1.
<scales pt_clust_3="38.78426" pt_clust_4="30.01769" pt_clust_5="83.00975" pt_clust_6="14000.00000"></scales>
<clustering>
<clus scale="   30.018">  2  4  1 -1</clus>
<clus scale="   38.784">  2  3  1 -1</clus>
<clus scale="   83.010">  1  5  2 -1</clus>
<clus scale="   83.010">  1  3  2 -1</clus>
</clustering>
</event>
<event>
 6    0  0.1622933E+002  0.1262688E+03  0.7546771E-02  0.1233100E+00
         -2   -1    0    0    0  501 -0.00000000000E+00  0.00000000000E+00  0.27426043152E+03  0.27426043152E+03  0.00000000000E+00 0.  1.
         21   -1    0    0  504  502  0.00000000000E+00 -0.00000000000E+00 -0.28646924042E+04  0.28646924042E+04  0.00000000000E+00 0. -1.
         21    1    1    2  503  505  0.94049280536E+02  0.69842565833E+02  0.31981039879E+02  0.12143326597E+03  0.00000000000E+00 0.  1.
         21    1    1    2  504  501 -0.92651477893E+02 -0.10149197580E+03  0.42660265612E+02  0.14389168068E+03  0.00000000000E+00 0.  1.
         21    1    1    2  505  502 -0.32733822372E+02  0.49097324073E+02 -0.27659425324E+04  0.27665719118E+04  0.00000000000E+00 0. -1.
         -2    1    1    2    0  503  0.31336019728E+02 -0.17447914105E+02  0.10086925421E+03  0.10705597734E+03  0.00000000000E+00 0.  1.
<scales pt_clust_3="14000.00000" pt_clust_4="126.26879" pt_clust_5="58.94996" pt_clust_6="35.86608"></scales>
<clustering>
<clus scale="   35.866">  1  6  2 -1</clus>
<clus scale="   58.950">  2  5  1 -1</clus>
<clus scale="  126.269">  1  4  2 -1</clus>
<clus scale="   58.950">  2  3  1 -1</clus>
</clustering>
</event>
<event>
 6    0  0.1622933E+002  0.1268684E+03  0.7546771E-02  0.1232178E+00
          1   -1    0    0  505    0 -0.00000000000E+00  0.00000000000E+00  0.88832083882E+03  0.88832083882E+03  0.00000000000E+00 0. -1.
         21   -1    0    0  501  502  0.00000000000E+00 -0.00000000000E+00 -0.13005006125E+04  0.13005006125E+04  0.00000000000E+00 0.  1.
         21    1    1    2  503  504 -0.42732963993E+02 -0.65998530500E+02  0.38802561718E+03  0.39591134339E+03  0.00000000000E+00 0.  1.
         21    1    1    2  504  502  0.12689090913E+03  0.87750877932E+01 -0.12836101871E+04  0.12898966693E+04  0.00000000000E+00 0.  1.
         21    1    1    2  505  503 -0.23115071630E-01  0.37899534663E+02  0.60520315091E+02  0.71407869319E+02  0.00000000000E+00 0. -1.
          1    1    1    2  501    0 -0.84134830070E+02  0.19323908044E+02  0.42288448117E+03  0.43160556932E+03  0.00000000000E+00 0. -1.
<scales pt_clust_3="64.22401" pt_clust_4="126.86843" pt_clust_5="37.89954" pt_clust_6="14000.00000"></scales>
<clustering>
<clus scale="   37.900">  1  5  2 -1</clus>
<clus scale="   64.224">  1  3  2 -1</clus>
<clus scale="  126.868">  2  4  1 -1</clus>
<clus scale="  126.868">  2  3  1 -1</clus>
</clustering>
</event>
<event>
 6    0  0.1622933E+002  0.1285079E+03  0.7546771E-02  0.1229687E+00
          1   -1    0    0  504    0 -0.00000000000E+00  0.00000000000E+00  0.17087106137E+04  0.17087106137E+04  0.00000000000E+00 0.  1.
         21   -1    0    0  501  502  0.00000000000E+00 -0.00000000000E+00 -0.87887082586E+03  0.87887082586E+03  0.00000000000E+00 0.  1.
         21    1    1    2  503  502 -0.12444349296E+02  0.69936785458E+02 -0.76041849119E+03  0.76372920432E+03  0.00000000000E+00 0.  1.
         21    1    1    2  504  505  0.17192790790E+02 -0.24792603150E+02  0.17294430326E+03  0.17555625098E+03  0.00000000000E+00 0.  1.
         21    1    1    2  505  503 -0.10570013766E+03 -0.11955029642E+03 -0.56403805116E+02  0.16925182926E+03  0.00000000000E+00 0.  1.
          1    1    1    2  501    0  0.10095169616E+03  0.74406114114E+02  0.14737177809E+04  0.14790441550E+04  0.00000000000E+00 0.  1.
<scales pt_clust_3="71.00573" pt_clust_4="30.17060" pt_clust_5="128.50787" pt_clust_6="14000.00000"></scales>
<clustering>
<clus scale="   30.171">  1  4  2 -1</clus>
<clus scale="   71.006">  2  3  1 -1</clus>
<clus scale="  128.508">  2  5  1 -1</clus>
<clus scale="   71.006">  2  3  1 -1</clus>
</clustering>
</event>
<event>
 6    0  0.1622933E+002  0.6642988E+02  0.7546771E-02  0.1372672E+00
         21   -1    0    0  504  502  0.00000000000E+00  0.00000000000E+00  0.49642424638E+03  0.49642424638E+03  0.00000000000E+00 0.  1.
          2   -1    0    0  505    0 -0.00000000000E+00 -0.00000000000E+00 -0.10400962902E+04  0.10400962902E+04  0.00000000000E+00 0.  1.
         21    1    1    2  503  502 -0.13009027497E+02 -0.29804616811E+02  0.47526150425E+03  0.47637280297E+03  0.00000000000E+00 0.  1.
         21    1    1    2  504  501 -0.41590365815E+02 -0.32291976746E+02 -0.15033443035E+03  0.15928895517E+03  0.00000000000E+00 0.  1.
         21    1    1    2  505  503  0.10761180729E+03  0.87853800477E+02 -0.31679156580E+03  0.34591254312E+03  0.00000000000E+00 0.  1.
          2    1    1    2  501    0 -0.53012413981E+02 -0.25757206919E+02 -0.55180755188E+03  0.55494623528E+03  0.00000000000E+00 0.  1.
<scales pt_clust_3="32.51999" pt_clust_4="58.95572" pt_clust_5="66.42988" pt_clust_6="14000.00000"></scales>
<clustering>
<clus scale="   32.520">  1  3  2 -1</clus>
<clus scale="   58.956">  1  4  2 -1</clus>
<clus scale="   66.430">  1  5  2 -1</clus>
<clus scale="   32.520">  1  3  2 -1</clus>
</clustering>
</event>
<event>
 6    0  0.1622933E+002  0.1143719E+03  0.7546771E-02  0.1252681E+00
         21   -1    0    0  505  502  0.00000000000E+00  0.00000000000E+00  0.66451985351E+02  0.66451985351E+02  0.00000000000E+00 0.  1.
         -2   -1    0    0    0  501 -0.00000000000E+00 -0.00000000000E+00 -0.32405897781E+03  0.32405897781E+03  0.00000000000E+00 0.  1.
         21    1    1    2  503  502 -0.88075008361E+01  0.63680944887E+02 -0.35787876324E+02  0.73577217292E+02  0.00000000000E+00 0. -1.
         21    1    1    2  504  501  0.79233883520E+02 -0.70014411143E+02 -0.15432415390E+03  0.18707209985E+03  0.00000000000E+00 0.  1.
         21    1    1    2  505  504 -0.28884291978E+02 -0.39502916172E+02 -0.33135273163E+02  0.59099315028E+02  0.00000000000E+00 0.  1.
         -2    1    1    2    0  503 -0.41542090706E+02  0.45836382428E+02 -0.34359689074E+02  0.70762330993E+02  0.00000000000E+00 0.  1.
<scales pt_clust_3="36.49455" pt_clust_4="108.15191" pt_clust_5="48.93652" pt_clust_6="36.49455"></scales>
<clustering>
<clus scale="   36.495">  3  6 -1 -1</clus>
<clus scale="   48.937">  1  5  2 -1</clus>
<clus scale="  108.152">  2  4  1 -1</clus>
<clus scale="   48.937">  1  3  2 -1</clus>
</clustering>
</event>
<event>
 6    0  0.1622933E+002  0.1651900E+03  0.7546771E-02  0.1182959E+00
         21   -1    0    0  505  502  0.00000000000E+00  0.00000000000E+00  0.31383898491E+03  0.31383898491E+03  0.00000000000E+00 0. -1.
          2   -1    0    0  503    0 -0.00000000000E+00 -0.00000000000E+00 -0.16746782586E+03  0.16746782586E+03  0.00000000000E+00 0.  1.
         21    1    1    2  503  504  0.87626568124E+02  0.68987795537E+02  0.13391150417E+02  0.11232566173E+03  0.00000000000E+00 0. -1.
         21    1    1    2  504  502 -0.67970017465E+02 -0.18858048875E+03  0.13291288768E+03  0.24051685954E+03  0.00000000000E+00 0. -1.
         21    1    1    2  505  501 -0.92611012184E+01  0.66428378237E+02 -0.21089508210E+02  0.70308355034E+02  0.00000000000E+00 0.  1.
          2    1    1    2  501    0 -0.10395449440E+02  0.53164314975E+02  0.21156629170E+02  0.58155934467E+02  0.00000000000E+00 0.  1.
<scales pt_clust_3="111.52458" pt_clust_4="159.60402" pt_clust_5="38.27972" pt_clust_6="38.27972"></scales>
<clustering>
<clus scale="   38.280">  5  6 -1 -1</clus>
<clus scale="  111.525">  2  3  1 -1</clus>
<clus scale="  159.604">  1  4  2 -1</clus>
<clus scale="  159.604">  1  3  2 -1</clus>
</clustering>
</event>
<event>
 6    0  0.1622933E+002  0.1017061E+03  0.7546771E-02  0.1276749E+00
          2   -1    0    0  503    0 -0.00000000000E+00  0.00000000000E+00  0.68042442016E+03  0.68042442016E+03  0.00000000000E+00 0.  1.
         21   -1    0    0  504  502  0.00000000000E+00 -0.00000000000E+00 -0.57638442189E+02  0.57638442189E+02  0.00000000000E+00 0. -1.
         21    1    1    2  503  502  0.29362855181E+02 -0.27975893314E+02  0.74655102226E+02  0.84960062144E+02  0.00000000000E+00 0.  1.
         21    1    1    2  504  505  0.10074668622E+03  0.34157755629E+02  0.56944483818E+02  0.12066201263E+03  0.00000000000E+00 0. -1.
         21    1    1    2  505  501 -0.10292035315E+03  0.69282640393E+02  0.26943098100E+03  0.29662389801E+03  0.00000000000E+00 0. -1.
          2    1    1    2  501    0 -0.27189188254E+02 -0.75464502708E+02  0.22175541093E+03  0.23581688956E+03  0.00000000000E+00 0.  1.
<scales pt_clust_3="40.55648" pt_clust_4="101.70611" pt_clust_5="14000.00000" pt_clust_6="87.59550"></scales>
<clustering>
<clus scale="   40.556">  1  3  2 -1</clus>
<clus scale="   87.596">  1  6  2 -1</clus>
<clus scale="  101.706">  2  4  1 -1</clus>
<clus scale="  101.706">  2  3  1 -1</clus>
</clustering>
</event>
<event>
 6    0  0.1622933E+002  0.1078003E+03  0.7546771E-02  0.1264699E+00
         21   -1    0    0  503  502  0.00000000000E+00  0.00000000000E+00  0.12295676204E+04  0.12295676204E+04  0.00000000000E+00 0.  1.
         -1   -1    0    0    0  501 -0.00000000000E+00 -0.00000000000E+00 -0.41660330328E+03  0.41660330328E+03  0.00000000000E+00 0. -1.
         21    1    1    2  503  501 -0.96264767556E+01  0.46432530132E+02 -0.14673838865E+02  0.49638396995E+02  0.00000000000E+00 0.  1.
         21    1    1    2  504  502 -0.10335945361E+02 -0.41450639689E+02  0.11429723291E+04  0.11437704019E+04  0.00000000000E+00 0.  1.
         21    1    1    2  505  504 -0.29374603413E+02 -0.10145779404E+03  0.13546961288E+02  0.10648977161E+03  0.00000000000E+00 0.  1.
         -1    1    1    2    0  505  0.49337025530E+02  0.96475903597E+02 -0.32888113433E+03  0.34627235319E+03  0.00000000000E+00 0. -1.
<scales pt_clust_3="39.79152" pt_clust_4="42.71987" pt_clust_5="107.80026" pt_clust_6="14000.00000"></scales>
<clustering>
<clus scale="   42.720">  1  4  2 -1</clus>
<clus scale="   39.792">  1  3  2 -1</clus>
<clus scale="  107.800">  1  5  2 -1</clus>
<clus scale="   42.720">  1  3  2 -1</clus>
</clustering>
</event>
<event>
 6    0  0.1622933E+002  0.9516208E+02  0.7546771E-02  0.1290811E+00
          2   -1    0    0  505    0 -0.00000000000E+00  0.00000000000E+00  0.20623706305E+03  0.20623706305E+03  0.00000000000E+00 0. -1.
         21   -1    0    0  504  502  0.00000000000E+00 -0.00000000000E+00 -0.42060451205E+03  0.42060451205E+03  0.00000000000E+00 0.  1.
         21    1    1    2  503  501  0.25254822597E+02 -0.95373554362E+02 -0.48223019764E+01  0.98778416329E+02  0.00000000000E+00 0.  1.
         21    1    1    2  504  503  0.37539954673E+02  0.66473405331E+01 -0.29114235922E+03  0.29362784041E+03  0.00000000000E+00 0.  1.
         21    1    1    2  505  502  0.54421917354E+02  0.86870760674E+02  0.40167719690E+02  0.11009868234E+03  0.00000000000E+00 0. -1.
          2    1    1    2  501    0 -0.11721669462E+03  0.18554531557E+01  0.41429492505E+02  0.12433663601E+03  0.00000000000E+00 0. -1.
<scales pt_clust_3="101.11835" pt_clust_4="38.12395" pt_clust_5="95.16208" pt_clust_6="14000.00000"></scales>
<clustering>
<clus scale="   38.124">  2  4  1 -1</clus>
<clus scale="  101.118">  2  3  1 -1</clus>
<clus scale="   95.162">  1  5  2 -1</clus>
<clus scale="   38.124">  2  3  1 -1</clus>
</clustering>
</event>
<event>
 6    0  0.1622933E+002  0.9130166E+02  0.7546771E-02  0.1299730E+00
         -4   -1    0    0    0  501 -0.00000000000E+00  0.00000000000E+00  0.68335412939E+03  0.68335412939E+03  0.00000000000E+00 0.  1.
         21   -1    0    0  504  502  0.00000000000E+00 -0.00000000000E+00 -0.17243704370E+04  0.17243704370E+04  0.00000000000E+00 0.  1.
         21    1    1    2  503  501  0.37449765950E+02 -0.86931852971E+02  0.64438374473E+02  0.11450736280E+03  0.00000000000E+00 0.  1.
         21    1    1    2  504  503  0.23762402366E+02  0.19053177201E+02 -0.16810461304E+04  0.16813220298E+04  0.00000000000E+00 0.  1.
         21    1    1    2  505  502 -0.11461522228E+03 -0.69364576928E+01  0.29135549326E+03  0.31316575017E+03  0.00000000000E+00 0. -1.
         -4    1    1    2    0  505  0.53403053964E+02  0.74815133462E+02  0.28423595508E+03  0.29872942360E+03  0.00000000000E+00 0.  1.
<scales pt_clust_3="91.55755" pt_clust_4="30.45776" pt_clust_5="14000.00000" pt_clust_6="91.30166"></scales>
<clustering>
<clus scale="   30.458">  2  4  1 -1</clus>
<clus scale="   91.558">  2  3  1 -1</clus>
<clus scale="   91.302">  1  6  2 -1</clus>
<clus scale="   30.458">  2  3  1 -1</clus>
</clustering>
</event>
<event>
 6    0  0.1622933E+002  0.1435387E+03  0.7546771E-02  0.1208645E+00
         21   -1    0    0  504  502  0.00000000000E+00  0.00000000000E+00  0.30947915704E+03  0.30947915704E+03  0.00000000000E+00 0. -1.
          2   -1    0    0  505    0 -0.00000000000E+00 -0.00000000000E+00 -0.95633760282E+03  0.95633760282E+03  0.00000000000E+00 0. -1.
         21    1    1    2  503  502 -0.11763562001E+03  0.37535534696E+02  0.27582971117E+03  0.30220702345E+03  0.00000000000E+00 0. -1.
         21    1    1    2  504  501  0.73679809650E+02  0.10318554644E+02 -0.21930237967E+03  0.23157875691E+03  0.00000000000E+00 0. -1.
         21    1    1    2  505  503 -0.19487728813E+02 -0.89686853680E+02 -0.16940321587E+03  0.19266798604E+03  0.00000000000E+00 0. -1.
          2    1    1    2  501    0  0.63443539168E+02  0.41832764341E+02 -0.53398256140E+03  0.53936299346E+03  0.00000000000E+00 0. -1.
<scales pt_clust_3="123.34080" pt_clust_4="72.64482" pt_clust_5="91.77965" pt_clust_6="72.64482"></scales>
<clustering>
<clus scale="   72.645">  4  6 -1 -1</clus>
<clus scale="   91.780">  2  5  1 -1</clus>
<clus scale="  123.341">  1  3  2 -1</clus>
<clus scale="  123.341">  1  3  2 -1</clus>
</clustering>
</event>
<event>
 6    0  0.1622933E+002  0.8202506E+02  0.7546771E-02  0.1323401E+00
         21   -1    0    0  503  502  0.00000000000E+00  0.00000000000E+00  0.31807860343E+02  0.31807860343E+02  0.00000000000E+00 0.  1.
          2   -1    0    0  505    0 -0.00000000000E+00 -0.00000000000E+00 -0.42480661125E+04  0.42480661125E+04  0.00000000000E+00 0.  1.
         21    1    1    2  503  501  0.43836360929E+02 -0.67454893786E+02 -0.40200223619E+02  0.89932459180E+02  0.00000000000E+00 0.  1.
         21    1    1    2  504  502  0.70740422587E+02  0.38157056999E+02 -0.66202320815E+03  0.66688447014E+03  0.00000000000E+00 0.  1.
         21    1    1    2  505  504  0.31580285142E+02 -0.58831173337E+02 -0.53721506637E+03  0.54134873132E+03  0.00000000000E+00 0.  1.
          2    1    1    2  501    0 -0.14615706866E+03  0.88129010124E+02 -0.29768197540E+04  0.29817083121E+04  0.00000000000E+00 0.  1.
<scales pt_clust_3="82.02506" pt_clust_4="81.23665" pt_clust_5="66.77141" pt_clust_6="14000.00000"></scales>
<clustering>
<clus scale="   66.771">  2  5  1 -1</clus>
<clus scale="   81.237">  2  4  1 -1</clus>
<clus scale="   82.025">  1  3  2 -1</clus>
<clus scale="   82.025">  1  3  2 -1</clus>
</clustering>
</event>
<event>
 6    0  0.1622933E+002  0.9931306E+02  0.7546771E-02  0.1281747E+00
         -1   -1    0    0    0  501 -0.00000000000E+00  0.00000000000E+00  0.85232579331E+03  0.85232579331E+03  0.00000000000E+00 0.  1.
         21   -1    0    0  505  502  0.00000000000E+00 -0.00000000000E+00 -0.13139730948E+03  0.13139730948E+03  0.00000000000E+00 0.  1.
         21    1    1    2  503  501  0.39222944385E+02  0.65544760153E+01  0.54548518711E+02  0.67505121403E+02  0.00000000000E+00 0. -1.
         21    1    1    2  504  502 -0.10134438650E+03 -0.66593127028E+00 -0.93084810701E+02  0.13760781272E+03  0.00000000000E+00 0.  1.
         21    1    1    2  505  503  0.15023234769E+02  0.68977669062E+02  0.19772136072E+03  0.20994607140E+03  0.00000000000E+00 0. -1.
         -1    1    1    2    0  504  0.47098207346E+02 -0.74866213807E+02  0.56174341510E+03  0.56866409726E+03  0.00000000000E+00 0.  1.
<scales pt_clust_3="39.76683" pt_clust_4="14000.00000" pt_clust_5="75.00033" pt_clust_6="99.31306"></scales>
<clustering>
<clus scale="   39.767">  1  3  2 -1</clus>
<clus scale="   75.000">  1  5  2 -1</clus>
<clus scale="   99.313">  1  6  2 -1</clus>
<clus scale="   99.313">  2  3  1 -1</clus>
</clustering>
</event>
<event>
 6    0  0.1622933E+002  0.8794240E+02  0.7546771E-02  0.1307912E+00
          2   -1    0    0  504    0 -0.00000000000E+00  0.00000000000E+00  0.23349425437E+04  0.23349425437E+04  0.00000000000E+00 0. -1.
         21   -1    0    0  503  502  0.00000000000E+00 -0.00000000000E+00 -0.38386595729E+02  0.38386595729E+02  0.00000000000E+00 0.  1.
         21    1    1    2  503  505  0.13670326408E+02 -0.27019676637E+02 -0.19019914821E+02  0.35758885741E+02  0.00000000000E+00 0.  1.
         21    1    1    2  504  502 -0.11856583579E+03  0.35483474838E+01  0.49748335530E+03  0.51142950344E+03  0.00000000000E+00 0. -1.
         21    1    1    2  505  501  0.62115717125E+02 -0.24445510777E+02  0.33112661243E+03  0.33778806784E+03  0.00000000000E+00 0.  1.
          2    1    1    2  501    0  0.42779792259E+02  0.47916839930E+02  0.14869658951E+04  0.14883526824E+04  0.00000000000E+00 0. -1.
<scales pt_clust_3="30.28103" pt_clust_4="14000.00000" pt_clust_5="87.94240" pt_clust_6="63.56304"></scales>
<clustering>
<clus scale="   30.281">  2  3  1 -1</clus>
<clus scale="   63.563">  1  6  2 -1</clus>
<clus scale="   87.942">  2  5  1 -1</clus>
<clus scale="   30.281">  2  3  1 -1</clus>
</clustering>
</event>
<event>
 6    0  0.1622933E+002  0.1266545E+03  0.7546771E-02  0.1232506E+00
         21   -1    0    0  504  502  0.00000000000E+00  0.00000000000E+00  0.38748819645E+02  0.38748819645E+02  0.00000000000E+00 0. -1.
          2   -1    0    0  505    0 -0.00000000000E+00 -0.00000000000E+00 -0.15013201719E+04  0.15013201719E+04  0.00000000000E+00 0. -1.
         21    1    1    2  503  502  0.47083434431E+02 -0.96011302919E+02 -0.61870196128E+02  0.12354327685E+03  0.00000000000E+00 0. -1.
         21    1    1    2  504  501 -0.84595255122E+01  0.34020864232E+02 -0.13675661797E+03  0.14117845208E+03  0.00000000000E+00 0.  1.
         21    1    1    2  505  503  0.41109247373E+02 -0.22139765459E+02 -0.21462481334E+03  0.21964505443E+03  0.00000000000E+00 0. -1.
          2    1    1    2  501    0 -0.79733156292E+02  0.84130204147E+02 -0.10493197249E+04  0.10557022082E+04  0.00000000000E+00 0. -1.
<scales pt_clust_3="109.69390" pt_clust_4="34.81940" pt_clust_5="46.69196" pt_clust_6="34.81940"></scales>
<clustering>
<clus scale="   34.819">  4  6 -1 -1</clus>
<clus scale="   46.692">  2  5  1 -1</clus>
<clus scale="  109.694">  1  3  2 -1</clus>
<clus scale="  109.694">  1  3  2 -1</clus>
</clustering>
</event>
<event>
 6    0  0.1622933E+002  0.1458741E+03  0.7546771E-02  0.1205636E+00
          2   -1    0    0  505    0 -0.00000000000E+00  0.00000000000E+00  0.13565643126E+04  0.13565643126E+04  0.00000000000E+00 0.  1.
         21   -1    0    0  503  502  0.00000000000E+00 -0.00000000000E+00 -0.10109408365E+04  0.10109408365E+04  0.00000000000E+00 0.  1.
         21    1    1    2  503  504  0.33927876985E+02  0.57636407029E+02 -0.93668541423E+03  0.93907008338E+03  0.00000000000E+00 0.  1.
         21    1    1    2  504  501 -0.99945029515E+02  0.77584882162E+02  0.52395628558E+02  0.13694423959E+03  0.00000000000E+00 0.  1.
         21    1    1    2  505  502  0.16614079228E+03 -0.16287344526E+02  0.25851562940E+03  0.30773100445E+03  0.00000000000E+00 0.  1.
          2    1    1    2  501    0 -0.10012363975E+03 -0.11893394466E+03  0.97139763241E+03  0.98375982164E+03  0.00000000000E+00 0.  1.
<scales pt_clust_3="66.88091" pt_clust_4="136.95472" pt_clust_5="14000.00000" pt_clust_6="145.87411"></scales>
<clustering>
<clus scale="   66.881">  2  3  1 -1</clus>
<clus scale="  136.955">  2  4  1 -1</clus>
<clus scale="  145.874">  1  6  2 -1</clus>
<clus scale="   66.881">  2  3  1 -1</clus>
</clustering>
</event>
<event>
 6    0  0.1622933E+002  0.1746548E+03  0.7546771E-02  0.1173079E+00
         21   -1    0    0  505  502  0.00000000000E+00  0.00000000000E+00  0.78885782760E+02  0.78885782760E+02  0.00000000000E+00 0. -1.
         -2   -1    0    0    0  501 -0.00000000000E+00 -0.00000000000E+00 -0.79133225861E+03  0.79133225861E+03  0.00000000000E+00 0. -1.
         21    1    1    2  503  504  0.76066518224E+01  0.51647910716E+02 -0.68496295143E+02  0.86122646740E+02  0.00000000000E+00 0. -1.
         21    1    1    2  504  502  0.50099570518E+02 -0.13954131132E+03 -0.52347075358E+02  0.15723218764E+03  0.00000000000E+00 0. -1.
         21    1    1    2  505  501 -0.76317519318E+01 -0.55025051556E+02 -0.14453396919E+03  0.15484207498E+03  0.00000000000E+00 0. -1.
         -2    1    1    2    0  503 -0.50074470408E+02  0.14291845216E+03 -0.44706913616E+03  0.47202113201E+03  0.00000000000E+00 0. -1.
<scales pt_clust_3="45.69573" pt_clust_4="156.35571" pt_clust_5="55.55178" pt_clust_6="45.69573"></scales>
<clustering>
<clus scale="   45.696">  3  6 -1 -1</clus>
<clus scale="   55.552">  2  5  1 -1</clus>
<clus scale="  156.356">  1  4  2 -1</clus>
<clus scale="  156.356">  1  3  2 -1</clus>
</clustering>
</event>
<event>
 6    0  0.1622933E+002  0.1254091E+03  0.7546771E-02  0.1234431E+00
         21   -1    0    0  505  502  0.00000000000E+00  0.00000000000E+00  0.35232314959E+03  0.35232314959E+03  0.00000000000E+00 0.  1.
         -3   -1    0    0    0  501 -0.00000000000E+00 -0.00000000000E+00 -0.69328651965E+03  0.69328651965E+03  0.00000000000E+00 0. -1.
         21    1    1    2  503  501 -0.31000688312E+02 -0.19612921274E+02 -0.66119548657E+02  0.75614179036E+02  0.00000000000E+00 0. -1.
         21    1    1    2  504  503 -0.72176885567E+02 -0.13682545757E+03 -0.12103578364E+03  0.19641886256E+03  0.00000000000E+00 0. -1.
         21    1    1    2  505  504  0.41927215104E+02  0.78538950348E+02  0.29800722685E+03  0.31102180847E+03  0.00000000000E+00 0.  1.
         -3    1    1    2    0  502  0.61250358775E+02  0.77899428493E+02 -0.45181526461E+03  0.46255481918E+03  0.00000000000E+00 0. -1.
<scales pt_clust_3="30.24010" pt_clust_4="30.24010" pt_clust_5="89.02953" pt_clust_6="108.95483"></scales>
<clustering>
<clus scale="   30.240">  3  4 -1 -1</clus>
<clus scale="   89.030">  1  5  2 -1</clus>
<clus scale="  108.955">  2  6  1 -1</clus>
<clus scale="   89.030">  1  3  2 -1</clus>
</clustering>
</event>
<event>
 6    0  0.1622933E+002  0.8741388E+02  0.7546771E-02  0.1309238E+00
         21   -1    0    0  505  502  0.00000000000E+00  0.00000000000E+00  0.33624601117E+03  0.33624601117E+03  0.00000000000E+00 0.  1.
         -1   -1    0    0    0  501 -0.00000000000E+00 -0.00000000000E+00 -0.57373125682E+03  0.57373125682E+03  0.00000000000E+00 0. -1.
         21    1    1    2  503  502 -0.15764477582E+02  0.10169707489E+03  0.29353508557E+03  0.31105250402E+03  0.00000000000E+00 0.  1.
         21    1    1    2  504  501 -0.40205089667E+02 -0.53124483917E+01 -0.12909889916E+03  0.13531887195E+03  0.00000000000E+00 0. -1.
         21    1    1    2  505  504  0.52656817112E+02 -0.20487531413E+02 -0.20048643987E+01  0.56537587613E+02  0.00000000000E+00 0. -1.
         -1    1    1    2    0  503  0.33127501364E+01 -0.75897095085E+02 -0.39991656767E+03  0.40706830440E+03  0.00000000000E+00 0. -1.
<scales pt_clust_3="87.41388" pt_clust_4="40.55455" pt_clust_5="54.16116" pt_clust_6="14000.00000"></scales>
<clustering>
<clus scale="   40.555">  2  4  1 -1</clus>
<clus scale="   54.161">  1  5  2 -1</clus>
<clus scale="   87.414">  1  3  2 -1</clus>
<clus scale="   54.161">  1  3  2 -1</clus>
</clustering>
</event>
<event>
 6    0  0.1622933E+002  0.9526911E+02  0.7546771E-02  0.1290571E+00
          2   -1    0    0  505    0 -0.00000000000E+00  0.00000000000E+00  0.10582383910E+04  0.10582383910E+04  0.00000000000E+00 0. -1.
         21   -1    0    0  501  502  0.00000000000E+00 -0.00000000000E+00 -0.31221299273E+03  0.31221299273E+03  0.00000000000E+00 0. -1.
         21    1    1    2  503  502  0.74581131362E+02 -0.60016575229E+02 -0.29189204639E+03  0.30718935724E+03  0.00000000000E+00 0. -1.
         21    1    1    2  504  503 -0.49449428059E+02 -0.58264847062E+01  0.61725979556E+02  0.79305046571E+02  0.00000000000E+00 0.  1.
         21    1    1    2  505  504 -0.31399062689E+02 -0.13295710828E+02  0.14375258147E+03  0.14774126622E+03  0.00000000000E+00 0. -1.
          2    1    1    2  501    0  0.62673593856E+01  0.79138770763E+02  0.83243888368E+03  0.83621571373E+03  0.00000000000E+00 0. -1.
<scales pt_clust_3="14000.00000" pt_clust_4="52.32671" pt_clust_5="34.09805" pt_clust_6="95.26911"></scales>
<clustering>
<clus scale="   34.098">  1  5  2 -1</clus>
<clus scale="   52.327">  1  4  2 -1</clus>
<clus scale="   95.269">  1  6  2 -1</clus>
<clus scale="   95.269">  2  3  1 -1</clus>
</clustering>
</event>
<event>
 6    0  0.1622933E+002  0.2898940E+03  0.7546771E-02  0.1090404E+00
          1   -1    0    0  503    0 -0.00000000000E+00  0.00000000000E+00  0.10479825732E+04  0.10479825732E+04  0.00000000000E+00 0. -1.
         21   -1    0    0  505  502  0.00000000000E+00 -0.00000000000E+00 -0.24338909760E+03  0.24338909760E+03  0.00000000000E+00 0.  1.
         21    1    1    2  503  502 -0.53849108177E+02 -0.82356130006E+01  0.14078676852E+03  0.15095849086E+03  0.00000000000E+00 0. -1.
         21    1    1    2  504  501  0.63759226838E+02  0.16159546138E+03  0.35355661673E+03  0.39392970614E+03  0.00000000000E+00 0.  1.
         21    1    1    2  505  504 -0.56348944117E+02 -0.27425949204E+03 -0.11444863554E+03  0.30247638363E+03  0.00000000000E+00 0.  1.
          1    1    1    2  501    0  0.46438825455E+02  0.12089964366E+03  0.42469872585E+03  0.44400709013E+03  0.00000000000E+00 0. -1.
<scales pt_clust_3="54.47524" pt_clust_4="57.21892" pt_clust_5="282.00875" pt_clust_6="57.21892"></scales>
<clustering>
<clus scale="   54.475">  1  3  2 -1</clus>
<clus scale="   57.219">  4  6 -1 -1</clus>
<clus scale="  282.009">  2  5  1 -1</clus>
<clus scale="  282.009">  2  3  1 -1</clus>
</clustering>
</event>
<event>
 6    0  0.1622933E+002  0.2555079E+03  0.7546771E-02  0.1109873E+00
         -3   -1    0    0    0  501 -0.00000000000E+00  0.00000000000E+00  0.23584903048E+03  0.23584903048E+03  0.00000000000E+00 0.  1.
         21   -1    0    0  505  502  0.00000000000E+00 -0.00000000000E+00 -0.61252098298E+03  0.61252098298E+03  0.00000000000E+00 0.  1.
         21    1    1    2  503  501 -0.10670066279E+03  0.57921827660E+01 -0.34631368887E+02  0.11232948202E+03  0.00000000000E+00 0. -1.
         21    1    1    2  504  502  0.10903756021E+03  0.10431074454E+03 -0.35533846835E+02  0.15502443431E+03  0.00000000000E+00 0.  1.
         21    1    1    2  505  503 -0.14082360398E+03 -0.17692603742E+03 -0.35402039858E+03  0.42007684151E+03  0.00000000000E+00 0.  1.
         -3    1    1    2    0  504  0.13848670657E+03  0.66823110116E+02  0.47513661803E+02  0.16093925562E+03  0.00000000000E+00 0.  1.
<scales pt_clust_3="106.85776" pt_clust_4="94.67875" pt_clust_5="236.95956" pt_clust_6="94.67875"></scales>
<clustering>
<clus scale="   94.679">  4  6 -1 -1</clus>
<clus scale="  106.858">  1  3  2 -1</clus>
<clus scale="  236.960">  2  5  1 -1</clus>
<clus scale="  236.960">  2  3  1 -1</clus>
</clustering>
</event>
<event>
 6    0  0.1622933E+002  0.7871136E+02  0.7546771E-02  0.1332749E+00
          1   -1    0    0  505    0 -0.00000000000E+00  0.00000000000E+00  0.10860318170E+04  0.10860318170E+04  0.00000000000E+00 0.  1.
         21   -1    0    0  503  502  0.00000000000E+00 -0.00000000000E+00 -0.19204512765E+03  0.19204512765E+03  0.00000000000E+00 0. -1.
         21    1    1    2  503  501  0.51016743804E+02  0.29661635746E+02 -0.17188762741E+03  0.18173573463E+03  0.00000000000E+00 0. -1.
         21    1    1    2  504  502 -0.29293180882E+02 -0.94347383620E+02  0.29108077890E+03  0.30738825463E+03  0.00000000000E+00 0.  1.
         21    1    1    2  505  504  0.36943225742E+02 -0.60542417445E+01  0.82627883331E+02  0.90712859480E+02  0.00000000000E+00 0.  1.
          1    1    1    2  501    0 -0.58666788664E+02  0.70739989619E+02  0.69216565454E+03  0.69824009592E+03  0.00000000000E+00 0.  1.
<scales pt_clust_3="59.15537" pt_clust_4="14000.00000" pt_clust_5="37.43602" pt_clust_6="78.71136"></scales>
<clustering>
<clus scale="   37.436">  1  5  2 -1</clus>
<clus scale="   59.155">  2  3  1 -1</clus>
<clus scale="   78.711">  1  6  2 -1</clus>
<clus scale="   59.155">  2  3  1 -1</clus>
</clustering>
</event>
<event>
 6    0  0.1622933E+002  0.3371594E+03  0.7546771E-02  0.1068012E+00
          1   -1    0    0  503    0 -0.00000000000E+00  0.00000000000E+00  0.10861426869E+04  0.10861426869E+04  0.00000000000E+00 0. -1.
         21   -1    0    0  505  502  0.00000000000E+00 -0.00000000000E+00 -0.23449915184E+03  0.23449915184E+03  0.00000000000E+00 0. -1.
         21    1    1    2  503  504 -0.27256547770E+03  0.20587712786E+03  0.20540135432E+03  0.39858129380E+03  0.00000000000E+00 0. -1.
         21    1    1    2  504  502  0.13327506501E+02 -0.37049242679E+02 -0.99416651259E+02  0.10692960002E+03  0.00000000000E+00 0. -1.
         21    1    1    2  505  501  0.66382835116E+02  0.80764913901E+00  0.22462859642E+03  0.23423351473E+03  0.00000000000E+00 0. -1.
          1    1    1    2  501    0  0.19285513608E+03 -0.16963553432E+03  0.52103023555E+03  0.58089743017E+03  0.00000000000E+00 0. -1.
<scales pt_clust_3="317.72983" pt_clust_4="39.37345" pt_clust_5="56.69304" pt_clust_6="56.69304"></scales>
<clustering>
<clus scale="   39.373">  2  4  1 -1</clus>
<clus scale="   56.693">  5  6 -1 -1</clus>
<clus scale="  317.730">  2  3  1 -1</clus>
<clus scale="   39.373">  2  3  1 -1</clus>
</clustering>
</event>
<event>
 6    0  0.1622933E+002  0.1221173E+03  0.7546771E-02  0.1239644E+00
         -1   -1    0    0    0  501 -0.00000000000E+00  0.00000000000E+00  0.23635087047E+03  0.23635087047E+03  0.00000000000E+00 0.  1.
         21   -1    0    0  503  502  0.00000000000E+00 -0.00000000000E+00 -0.10397716161E+03  0.10397716161E+03  0.00000000000E+00 0.  1.
         21    1    1    2  503  505  0.51238978478E+02  0.25535055410E+02  0.19806989245E+02  0.60578781708E+02  0.00000000000E+00 0.  1.
         21    1    1    2  504  502 -0.35278679301E+02 -0.54116037543E+02 -0.11668226963E+01  0.64610310383E+02  0.00000000000E+00 0.  1.
         21    1    1    2  505  501  0.11276685148E+02  0.10272279874E+03  0.70463789948E+02  0.12507710703E+03  0.00000000000E+00 0.  1.
         -1    1    1    2    0  504 -0.27236984325E+02 -0.74141816608E+02  0.43269752363E+02  0.90061832952E+02  0.00000000000E+00 0.  1.
<scales pt_clust_3="57.24921" pt_clust_4="38.28885" pt_clust_5="114.54306" pt_clust_6="38.28885"></scales>
<clustering>
<clus scale="   38.289">  4  6 -1 -1</clus>
<clus scale="   57.249">  2  3  1 -1</clus>
<clus scale="  114.543">  1  5  2 -1</clus>
<clus scale="   57.249">  2  3  1 -1</clus>
</clustering>
</event>
<event>
 6    0  0.1622933E+002  0.1443757E+03  0.7546771E-02  0.1207560E+00
          2   -1    0    0  504    0 -0.00000000000E+00  0.00000000000E+00  0.29782373841E+04  0.29782373841E+04  0.00000000000E+00 0.  1.
         21   -1    0    0  503  502  0.00000000000E+00 -0.00000000000E+00 -0.77755548540E+02  0.77755548540E+02  0.00000000000E+00 0. -1.
         21    1    1    2  503  505  0.38639785906E+01  0.30456982824E+02 -0.56883632523E+02  0.64639815766E+02  0.00000000000E+00 0. -1.
         21    1    1    2  504  502  0.13354987193E+03  0.54827238190E+02  0.22996685938E+04  0.23041955723E+04  0.00000000000E+00 0.  1.
         21    1    1    2  505  501 -0.25940626952E+02  0.18303840179E+02  0.40406874513E+02  0.51387373934E+02  0.00000000000E+00 0. -1.
          2    1    1    2  501    0 -0.11147322357E+03 -0.10358806119E+03  0.61728999983E+03  0.63577017065E+03  0.00000000000E+00 0.  1.
<scales pt_clust_3="30.70111" pt_clust_4="14000.00000" pt_clust_5="37.44029" pt_clust_6="144.37566"></scales>
<clustering>
<clus scale="   30.701">  2  3  1 -1</clus>
<clus scale="   37.440">  2  5  1 -1</clus>
<clus scale="  144.376">  2  6  1 -1</clus>
<clus scale="   30.701">  2  3  1 -1</clus>
</clustering>
</event>
<event>
 6    0  0.1622933E+002  0.1892270E+03  0.7546771E-02  0.1159160E+00
          1   -1    0    0  505    0 -0.00000000000E+00  0.00000000000E+00  0.36922781171E+02  0.36922781171E+02  0.00000000000E+00 0. -1.
         21   -1    0    0  501  502  0.00000000000E+00 -0.00000000000E+00 -0.18025516208E+04  0.18025516208E+04  0.00000000000E+00 0.  1.
         21    1    1    2  503  504 -0.12434940155E+03  0.97282191007E+02 -0.34231438063E+03  0.37696914136E+03  0.00000000000E+00 0. -1.
         21    1    1    2  504  502  0.19920591993E+03 -0.10872557226E+03 -0.96295184868E+03  0.98933336721E+03  0.00000000000E+00 0.  1.
         21    1    1    2  505  503 -0.54650047972E+02 -0.26824327107E+02 -0.19433257243E+03  0.20364508581E+03  0.00000000000E+00 0. -1.
          1    1    1    2  501    0 -0.20206470413E+02  0.38267708360E+02 -0.26603003788E+03  0.26952680758E+03  0.00000000000E+00 0. -1.
<scales pt_clust_3="14000.00000" pt_clust_4="189.22696" pt_clust_5="61.30107" pt_clust_6="43.27492"></scales>
<clustering>
<clus scale="   43.275">  2  6  1 -1</clus>
<clus scale="   61.301">  1  5  2 -1</clus>
<clus scale="  189.227">  2  4  1 -1</clus>
<clus scale="   43.275">  2  3  1 -1</clus>
</clustering>
</event>
<event>
 6    0  0.1622933E+002  0.2526969E+03  0.7546771E-02  0.1111612E+00
         21   -1    0    0  505  502  0.00000000000E+00  0.00000000000E+00  0.62554926892E+02  0.62554926892E+02  0.00000000000E+00 0.  1.
          1   -1    0    0  503    0 -0.00000000000E+00 -0.00000000000E+00 -0.16451146224E+04  0.16451146224E+04  0.00000000000E+00 0.  1.
         21    1    1    2  503  504  0.36605622506E+02 -0.57292719596E+02 -0.36251246384E+03  0.36883290764E+03  0.00000000000E+00 0.  1.
         21    1    1    2  504  502 -0.46920478191E+02 -0.22678987013E+03 -0.33333491620E+03  0.40589080160E+03  0.00000000000E+00 0.  1.
         21    1    1    2  505  501 -0.40329546548E+01  0.12690028376E+03 -0.48487247853E+03  0.50121977931E+03  0.00000000000E+00 0.  1.
          1    1    1    2  501    0  0.14347810340E+02  0.15718230596E+03 -0.40183983694E+03  0.43172606074E+03  0.00000000000E+00 0.  1.
<scales pt_clust_3="67.98844" pt_clust_4="246.04027" pt_clust_5="51.67737" pt_clust_6="51.67737"></scales>
<clustering>
<clus scale="   51.677">  5  6 -1 -1</clus>
<clus scale="   67.988">  2  3  1 -1</clus>
<clus scale="  246.040">  1  4  2 -1</clus>
<clus scale="  246.040">  1  3  2 -1</clus>
</clustering>
</event>
<event>
 6    0  0.1622933E+002  0.9043056E+02  0.7546771E-02  0.1301812E+00
          1   -1    0    0  505    0 -0.00000000000E+00  0.00000000000E+00  0.20244588897E+03  0.20244588897E+03  0.00000000000E+00 0. -1.
         21   -1    0    0  504  502  0.00000000000E+00 -0.00000000000E+00 -0.13421131001E+03  0.13421131001E+03  0.00000000000E+00 0. -1.
         21    1    1    2  503  502 -0.82357150566E+02 -0.56602841536E+02 -0.12455433472E+01  0.99940648875E+02  0.00000000000E+00 0. -1.
         21    1    1    2  504  501  0.24099553104E+01  0.39815427543E+02 -0.40359845257E+02  0.56744984485E+02  0.00000000000E+00 0. -1.
         21    1    1    2  505  503 -0.23055894461E+02  0.24725595827E+02  0.76539996653E+01  0.34662848545E+02  0.00000000000E+00 0. -1.
          1    1    1    2  501    0  0.10300308972E+03 -0.79381818332E+01  0.10218596790E+03  0.14530871707E+03  0.00000000000E+00 0. -1.
<scales pt_clust_3="90.43056" pt_clust_4="40.95566" pt_clust_5="33.80724" pt_clust_6="14000.00000"></scales>
<clustering>
<clus scale="   33.807">  1  5  2 -1</clus>
<clus scale="   40.956">  2  4  1 -1</clus>
<clus scale="   90.431">  2  3  1 -1</clus>
<clus scale="   40.956">  2  3  1 -1</clus>
</clustering>
</event>
<event>
 6    0  0.1622933E+002  0.1229388E+03  0.7546771E-02  0.1238326E+00
         21   -1    0    0  503  502  0.00000000000E+00  0.00000000000E+00  0.26102055666E+03  0.26102055666E+03  0.00000000000E+00 0.  1.
          1   -1    0    0  505    0 -0.00000000000E+00 -0.00000000000E+00 -0.37932481534E+03  0.37932481534E+03  0.00000000000E+00 0.  1.
         21    1    1    2  503  501  0.49411211962E+02 -0.31258842219E+02 -0.88145574434E+02  0.10577440795E+03  0.00000000000E+00 0. -1.
         21    1    1    2  504  502 -0.43289714573E+02  0.27176244816E+02  0.20877328388E+03  0.21493913495E+03  0.00000000000E+00 0.  1.
         21    1    1    2  505  504 -0.54215006857E+02  0.53499925262E+02 -0.56559831453E+01  0.76377346884E+02  0.00000000000E+00 0. -1.
          1    1    1    2  501    0  0.48093509469E+02 -0.49417327859E+02 -0.23327598499E+03  0.24325448222E+03  0.00000000000E+00 0.  1.
<scales pt_clust_3="45.98118" pt_clust_4="51.11309" pt_clust_5="112.34064" pt_clust_6="45.98118"></scales>
<clustering>
<clus scale="   45.981">  3  6 -1 -1</clus>
<clus scale="   51.113">  1  4  2 -1</clus>
<clus scale="  112.341">  1  5  2 -1</clus>
<clus scale="   51.113">  1  3  2 -1</clus>
</clustering>
</event>
<event>
 6    0  0.1622933E+002  0.7700083E+02  0.7546771E-02  0.1337785E+00
         -3   -1    0    0    0  501 -0.00000000000E+00  0.00000000000E+00  0.67609329025E+03  0.67609329025E+03  0.00000000000E+00 0. -1.
         21   -1    0    0  505  502  0.00000000000E+00 -0.00000000000E+00 -0.17400016305E+03  0.17400016305E+03  0.00000000000E+00 0. -1.
         21    1    1    2  503  504 -0.56258849564E+02  0.11522868247E+02  0.19365759631E+02  0.60604185441E+02  0.00000000000E+00 0. -1.
         21    1    1    2  504  501 -0.41144587121E+02  0.14883109204E+02  0.12457245415E+03  0.13203287591E+03  0.00000000000E+00 0.  1.
         21    1    1    2  505  503 -0.19846458512E+02 -0.42081685975E+02 -0.13891759653E+03  0.14650204379E+03  0.00000000000E+00 0. -1.
         -3    1    1    2    0  502  0.11724989520E+03  0.15675708524E+02  0.49707250995E+03  0.51095434816E+03  0.00000000000E+00 0. -1.
<scales pt_clust_3="14000.00000" pt_clust_4="43.75367" pt_clust_5="46.55616" pt_clust_6="77.00083"></scales>
<clustering>
<clus scale="   43.754">  1  4  2 -1</clus>
<clus scale="   46.556">  2  5  1 -1</clus>
<clus scale="   77.001">  1  6  2 -1</clus>
<clus scale="   46.556">  2  3  1 -1</clus>
</clustering>
</event>
<event>
 6    0  0.1622933E+002  0.1971218E+03  0.7546771E-02  0.1152190E+00
          1   -1    0    0  505    0 -0.00000000000E+00  0.00000000000E+00  0.64017728535E+03  0.64017728535E+03  0.00000000000E+00 0.  1.
         21   -1    0    0  501  502  0.00000000000E+00 -0.00000000000E+00 -0.44703874735E+03  0.44703874735E+03  0.00000000000E+00 0.  1.
         21    1    1    2  503  504 -0.19893176760E+03 -0.35992586180E+02  0.33342536623E+03  0.38992536371E+03  0.00000000000E+00 0.  1.
         21    1    1    2  504  502 -0.14485938731E+03  0.91146507711E+01 -0.20971916335E+03  0.25504792966E+03  0.00000000000E+00 0.  1.
         21    1    1    2  505  503  0.40006586566E+02 -0.30578762856E+02  0.11891549339E+03  0.12913745497E+03  0.00000000000E+00 0.  1.
          1    1    1    2  501    0  0.30378456834E+03  0.57456698265E+02 -0.49483158286E+02  0.31310528436E+03  0.00000000000E+00 0.  1.
<scales pt_clust_3="14000.00000" pt_clust_4="143.31357" pt_clust_5="50.35462" pt_clust_6="197.12182"></scales>
<clustering>
<clus scale="   50.355">  1  5  2 -1</clus>
<clus scale="  143.314">  2  4  1 -1</clus>
<clus scale="  197.122">  2  6  1 -1</clus>
<clus scale="  143.314">  2  3  1 -1</clus>
</clustering>
</event>
<event>
 6    0  0.1622933E+002  0.1073442E+03  0.7546771E-02  0.1265569E+00
         21   -1    0    0  504  502  0.00000000000E+00  0.00000000000E+00  0.11809187425E+04  0.11809187425E+04  0.00000000000E+00 0.  1.
          1   -1    0    0  503    0 -0.00000000000E+00 -0.00000000000E+00 -0.65044040318E+03  0.65044040318E+03  0.00000000000E+00 0.  1.
         21    1    1    2  503  502  0.76660573358E+02  0.10773784351E+02 -0.33274683554E+02  0.84262224647E+02  0.00000000000E+00 0.  1.
         21    1    1    2  504  505  0.52921824747E+02 -0.35445835052E+01  0.10910988783E+04  0.10923873149E+04  0.00000000000E+00 0.  1.
         21    1    1    2  505  501 -0.16358501809E+03  0.90283237552E+02 -0.93865740529E+02  0.20909782010E+03  0.00000000000E+00 0.  1.
          1    1    1    2  501    0  0.34002619981E+02 -0.97512438398E+02 -0.43348011490E+03  0.44561178600E+03  0.00000000000E+00 0.  1.
<scales pt_clust_3="92.30748" pt_clust_4="53.04040" pt_clust_5="107.34418" pt_clust_6="14000.00000"></scales>
<clustering>
<clus scale="   53.040">  1  4  2 -1</clus>
<clus scale="   92.307">  1  3  2 -1</clus>
<clus scale="  107.344">  1  5  2 -1</clus>
<clus scale="   53.040">  1  3  2 -1</clus>
</clustering>
</event>
<event>
 6    0  0.1622933E+002  0.1271049E+03  0.7546771E-02  0.1231816E+00
         21   -1    0    0  501  502  0.00000000000E+00  0.00000000000E+00  0.22466873089E+02  0.22466873089E+02  0.00000000000E+00 0. -1.
          2   -1    0    0  503    0 -0.00000000000E+00 -0.00000000000E+00 -0.27225991030E+04  0.27225991030E+04  0.00000000000E+00 0. -1.
         21    1    1    2  503  505  0.51815566190E+02  0.29103865301E+02 -0.46426247945E+03  0.46805078538E+03  0.00000000000E+00 0. -1.
         21    1    1    2  504  502 -0.89495611910E+01  0.10391262309E+03 -0.28576525112E+03  0.30420339681E+03  0.00000000000E+00 0. -1.
         21    1    1    2  505  504  0.10611269157E+03 -0.98584614127E+02 -0.88059451894E+03  0.89242676800E+03  0.00000000000E+00 0. -1.
          2    1    1    2  501    0 -0.14897869657E+03 -0.34431874267E+02 -0.10695099804E+04  0.10803850259E+04  0.00000000000E+00 0. -1.
<scales pt_clust_3="59.42969" pt_clust_4="107.73934" pt_clust_5="127.10491" pt_clust_6="14000.00000"></scales>
<clustering>
<clus scale="   59.430">  2  3  1 -1</clus>
<clus scale="  107.739">  1  4  2 -1</clus>
<clus scale="  127.105">  1  5  2 -1</clus>
<clus scale="  107.739">  1  3  2 -1</clus>
</clustering>
</event>
<event>
 6    0  0.1622933E+002  0.6983272E+02  0.7546771E-02  0.1360663E+00
         21   -1    0    0  504  502  0.00000000000E+00  0.00000000000E+00  0.66713669039E+03  0.66713669039E+03  0.00000000000E+00 0.  1.
         -1   -1    0    0    0  501 -0.00000000000E+00 -0.00000000000E+00 -0.15139449017E+03  0.15139449017E+03  0.00000000000E+00 0.  1.
         21    1    1    2  503  505  0.73602419178E+02  0.57274757382E+02  0.32733060449E+02  0.98839097468E+02  0.00000000000E+00 0.  1.
         21    1    1    2  504  503 -0.37283803205E+02  0.21409263328E+02  0.56355251880E+03  0.56519012729E+03  0.00000000000E+00 0.  1.
         21    1    1    2  505  501 -0.60888712640E+02 -0.24428135585E+02 -0.66278068524E+02  0.93257447436E+02  0.00000000000E+00 0. -1.
         -1    1    1    2    0  502  0.24570096667E+02 -0.54255885124E+02 -0.14265310502E+02  0.61244508362E+02  0.00000000000E+00 0.  1.
<scales pt_clust_3="69.83272" pt_clust_4="42.99347" pt_clust_5="14000.00000" pt_clust_6="51.90539"></scales>
<clustering>
<clus scale="   42.993">  1  4  2 -1</clus>
<clus scale="   51.905">  1  6  2 -1</clus>
<clus scale="   69.833">  1  3  2 -1</clus>
<clus scale="   42.993">  1  3  2 -1</clus>
</clustering>
</event>
<event>
 6    0  0.1622933E+002  0.1889977E+03  0.7546771E-02  0.1159368E+00
         21   -1    0    0  504  502  0.00000000000E+00  0.00000000000E+00  0.52379365535E+03  0.52379365535E+03  0.00000000000E+00 0. -1.
          1   -1    0    0  503    0 -0.00000000000E+00 -0.00000000000E+00 -0.50228027034E+03  0.50228027034E+03  0.00000000000E+00 0. -1.
         21    1    1    2  503  505  0.24638044286E+02  0.19952626197E+02 -0.15802197170E+03  0.16117097772E+03  0.00000000000E+00 0. -1.
         21    1    1    2  504  501  0.45663620868E+02 -0.19388661485E+02 -0.77800687247E+02  0.92271519989E+02  0.00000000000E+00 0. -1.
         21    1    1    2  505  502 -0.12622271440E+03  0.12681881750E+03  0.47877606899E+03  0.51111809823E+03  0.00000000000E+00 0. -1.
          1    1    1    2  501    0  0.55921049244E+02 -0.12738278221E+03 -0.22144002503E+03  0.26151332975E+03  0.00000000000E+00 0. -1.
<scales pt_clust_3="31.70395" pt_clust_4="38.68589" pt_clust_5="178.78124" pt_clust_6="38.68589"></scales>
<clustering>
<clus scale="   31.704">  2  3  1 -1</clus>
<clus scale="   38.686">  4  6 -1 -1</clus>
<clus scale="  178.781">  1  5  2 -1</clus>
<clus scale="  178.781">  1  3  2 -1</clus>
</clustering>
</event>
<event>
 6    0  0.1622933E+002  0.1376418E+03  0.7546771E-02  0.1216538E+00
         21   -1    0    0  503  502  0.00000000000E+00  0.00000000000E+00  0.24292494569E+03  0.24292494569E+03  0.00000000000E+00 0.  1.
          1   -1    0    0  504    0 -0.00000000000E+00 -0.00000000000E+00 -0.99171671643E+03  0.99171671643E+03  0.00000000000E+00 0.  1.
         21    1    1    2  503  501 -0.54857212513E+02 -0.86766099126E+02  0.17607237940E+03  0.20381156128E+03  0.00000000000E+00 0.  1.
         21    1    1    2  504  505  0.51928122195E+02  0.67422722464E+02 -0.42452254145E+03  0.43296852262E+03  0.00000000000E+00 0.  1.
         21    1    1    2  505  502  0.13197646939E+03  0.10605141713E+03 -0.22398237705E+03  0.28077178772E+03  0.00000000000E+00 0.  1.
          1    1    1    2  501    0 -0.12904737907E+03 -0.86708040470E+02 -0.27635923164E+03  0.31708979050E+03  0.00000000000E+00 0.  1.
<scales pt_clust_3="100.56569" pt_clust_4="85.10202" pt_clust_5="137.64182" pt_clust_6="14000.00000"></scales>
<clustering>
<clus scale="   85.102">  2  4  1 -1</clus>
<clus scale="  100.566">  1  3  2 -1</clus>
<clus scale="  137.642">  1  5  2 -1</clus>
<clus scale="  100.566">  1  3  2 -1</clus>
</clustering>
</event>
<event>
 6    0  0.1622933E+002  0.1672740E+03  0.7546771E-02  0.1180721E+00
          2   -1    0    0  505    0 -0.00000000000E+00  0.00000000000E+00  0.18090698160E+04  0.18090698160E+04  0.00000000000E+00 0. -1.
         21   -1    0    0  504  502  0.00000000000E+00 -0.00000000000E+00 -0.35007833968E+02  0.35007833968E+02  0.00000000000E+00 0. -1.
         21    1    1    2  503  502 -0.24224524860E+02  0.28259551413E+02 -0.18449959136E+01  0.37267061337E+02  0.00000000000E+00 0. -1.
         21    1    1    2  504  501  0.26856158297E+02 -0.53552124799E+02  0.25844829415E+03  0.26530096882E+03  0.00000000000E+00 0. -1.
         21    1    1    2  505  503  0.30546750830E+02  0.14314014129E+03  0.92798285694E+03  0.93945430267E+03  0.00000000000E+00 0. -1.
          2    1    1    2  501    0 -0.33178384267E+02 -0.11784756791E+03  0.58947582689E+03  0.60205531717E+03  0.00000000000E+00 0. -1.
<scales pt_clust_3="37.22136" pt_clust_4="42.09338" pt_clust_5="155.13482" pt_clust_6="42.09338"></scales>
<clustering>
<clus scale="   37.221">  2  3  1 -1</clus>
<clus scale="   42.093">  4  6 -1 -1</clus>
<clus scale="  155.135">  1  5  2 -1</clus>
<clus scale="   37.221">  2  3  1 -1</clus>
</clustering>
</event>
<event>
 6    0  0.1622933E+002  0.1114782E+03  0.7546771E-02  0.1257857E+00
          2   -1    0    0  504    0 -0.00000000000E+00  0.00000000000E+00  0.40367751800E+04  0.40367751800E+04  0.00000000000E+00 0. -1.
         21   -1    0    0  505  502  0.00000000000E+00 -0.00000000000E+00 -0.92546174958E+02  0.92546174958E+02  0.00000000000E+00 0. -1.
         21    1    1    2  503  502 -0.76590207285E+02 -0.48437011875E+01 -0.65798695101E+02  0.10108901805E+03  0.00000000000E+00 0. -1.
         21    1    1    2  504  503 -0.90846351230E+02  0.43504923438E+01  0.17017798840E+04  0.17042085435E+04  0.00000000000E+00 0. -1.
         21    1    1    2  505  501  0.80440372945E+01  0.38629001397E+02  0.74785159673E+02  0.84556054735E+02  0.00000000000E+00 0. -1.
          2    1    1    2  501    0  0.15939252122E+03 -0.38135792554E+02  0.22334626565E+04  0.22394677387E+04  0.00000000000E+00 0. -1.
<scales pt_clust_3="75.96785" pt_clust_4="111.47825" pt_clust_5="39.45765" pt_clust_6="14000.00000"></scales>
<clustering>
<clus scale="   39.458">  2  5  1 -1</clus>
<clus scale="   75.968">  2  3  1 -1</clus>
<clus scale="  111.478">  1  4  2 -1</clus>
<clus scale="   39.458">  2  3  1 -1</clus>
</clustering>
</event>
<event>
 6    0  0.1622933E+002  0.7745335E+02  0.7546771E-02  0.1336438E+00
         21   -1    0    0  505  502  0.00000000000E+00  0.00000000000E+00  0.69942019367E+03  0.69942019367E+03  0.00000000000E+00 0. -1.
         -3   -1    0    0    0  501 -0.00000000000E+00 -0.00000000000E+00 -0.20718252554E+03  0.20718252554E+03  0.00000000000E+00 0. -1.
         21    1    1    2  503  501 -0.64495844083E+02 -0.89098982717E+01 -0.31393935527E+02  0.72281943658E+02  0.00000000000E+00 0.  1.
         21    1    1    2  504  502  0.21391830496E+02 -0.60679138895E+02 -0.38264970232E+00  0.64340614932E+02  0.00000000000E+00 0. -1.
         21    1    1    2  505  503 -0.21585938789E+02 -0.28545294728E+02  0.61827765575E+03  0.61931255938E+03  0.00000000000E+00 0. -1.
         -3    1    1    2    0  504  0.64689952375E+02  0.98134331895E+02 -0.94263402389E+02  0.15066760124E+03  0.00000000000E+00 0. -1.
<scales pt_clust_3="71.80858" pt_clust_4="77.45335" pt_clust_5="35.78808" pt_clust_6="14000.00000"></scales>
<clustering>
<clus scale="   35.788">  1  5  2 -1</clus>
<clus scale="   71.809">  2  3  1 -1</clus>
<clus scale="   77.453">  1  4  2 -1</clus>
<clus scale="   35.788">  1  3  2 -1</clus>
</clustering>
</event>
<event>
 6    0  0.1622933E+002  0.1052126E+03  0.7546771E-02  0.1269701E+00
         -3   -1    0    0    0  501 -0.00000000000E+00  0.00000000000E+00  0.59989221280E+02  0.59989221280E+02  0.00000000000E+00 0. -1.
         21   -1    0    0  504  502  0.00000000000E+00 -0.00000000000E+00 -0.10771788453E+04  0.10771788453E+04  0.00000000000E+00 0.  1.
         21    1    1    2  503  501  0.20790845688E+02 -0.40386339941E+02 -0.87215513855E+02  0.98335454315E+02  0.00000000000E+00 0.  1.
         21    1    1    2  504  503  0.92804325878E+02 -0.63258047302E+02 -0.64185932927E+03  0.65161155762E+03  0.00000000000E+00 0.  1.
         21    1    1    2  505  502  0.10029875567E+02  0.71477791579E+02 -0.24016540543E+03  0.25077698271E+03  0.00000000000E+00 0. -1.
         -3    1    1    2    0  505 -0.12362504713E+03  0.32166595664E+02 -0.47949375445E+02  0.13644407192E+03  0.00000000000E+00 0. -1.
<scales pt_clust_3="45.42374" pt_clust_4="14000.00000" pt_clust_5="68.60857" pt_clust_6="105.21259"></scales>
<clustering>
<clus scale="   45.424">  1  3  2 -1</clus>
<clus scale="   68.609">  2  5  1 -1</clus>
<clus scale="  105.213">  1  6  2 -1</clus>
<clus scale="   68.609">  2  3  1 -1</clus>
</clustering>
</event>
<event>
 6    0  0.1622933E+002  0.1438261E+03  0.7546771E-02  0.1208271E+00
         21   -1    0    0  505  502  0.00000000000E+00  0.00000000000E+00  0.15916563436E+02  0.15916563436E+02  0.00000000000E+00 0.  1.
          4   -1    0    0  502    0 -0.00000000000E+00 -0.00000000000E+00 -0.12465567094E+04  0.12465567094E+04  0.00000000000E+00 0. -1.
         21    1    1    2  503  504  0.44182555827E+02  0.74453605643E+01 -0.40664434022E+03  0.40910530560E+03  0.00000000000E+00 0. -1.
         21    1    1    2  504  501  0.33221932897E+02  0.41979316602E+02 -0.33267355861E+03  0.33695349300E+03  0.00000000000E+00 0. -1.
         21    1    1    2  505  503 -0.10896336910E+03 -0.61610387283E+02 -0.38933891535E+03  0.40896655931E+03  0.00000000000E+00 0.  1.
          4    1    1    2  501    0  0.31558880371E+02  0.12185710117E+02 -0.10198333179E+03  0.10744791494E+03  0.00000000000E+00 0. -1.
<scales pt_clust_3="37.56691" pt_clust_4="30.11952" pt_clust_5="125.17530" pt_clust_6="37.56691"></scales>
<clustering>
<clus scale="   30.120">  4  6 -1 -1</clus>
<clus scale="   37.567">  3  4 -1 -1</clus>
<clus scale="  125.175">  1  5  2 -1</clus>
<clus scale="  125.175">  1  3  2 -1</clus>
</clustering>
</event>
<event>
 6    0  0.1622933E+002  0.8938280E+02  0.7546771E-02  0.1304353E+00
         21   -1    0    0  503  502  0.00000000000E+00  0.00000000000E+00  0.42490084407E+03  0.42490084407E+03  0.00000000000E+00 0. -1.
         -1   -1    0    0    0  501 -0.00000000000E+00 -0.00000000000E+00 -0.40288004836E+03  0.40288004836E+03  0.00000000000E+00 0.  1.
         21    1    1    2  503  501 -0.41453527972E+02  0.49290237898E+01 -0.10960851274E+03  0.11728902900E+03  0.00000000000E+00 0.  1.
         21    1    1    2  504  502 -0.82613305368E+02  0.23068443583E+02  0.34127826482E+03  0.35189197966E+03  0.00000000000E+00 0. -1.
         21    1    1    2  505  504  0.13761532939E+03 -0.50398535908E+00  0.89079166748E+01  0.13790425615E+03  0.00000000000E+00 0. -1.
         -1    1    1    2    0  505 -0.13548496051E+02 -0.27493482013E+02 -0.21855687304E+03  0.22069562763E+03  0.00000000000E+00 0.  1.
<scales pt_clust_3="51.28690" pt_clust_4="14000.00000" pt_clust_5="89.38280" pt_clust_6="30.65050"></scales>
<clustering>
<clus scale="   30.651">  2  6  1 -1</clus>
<clus scale="   51.287">  2  3  1 -1</clus>
<clus scale="   89.383">  2  5  1 -1</clus>
<clus scale="   89.383">  1  3  2 -1</clus>
</clustering>
</event>
<event>
 6    0  0.3131928E+002  0.8951181E+02  0.7546771E-02  0.1304038E+00
          2   -1    0    0  505    0 -0.00000000000E+00  0.00000000000E+00  0.14266286011E+04  0.14266286011E+04  0.00000000000E+00 0.  1.
         21   -1    0    0  504  502  0.00000000000E+00 -0.00000000000E+00 -0.36262711980E+03  0.36262711980E+03  0.00000000000E+00 0. -1.
         21    1    1    2  503  502 -0.47717932470E+02 -0.13168554702E+01  0.19774948291E+03  0.20342957794E+03  0.00000000000E+00 0.  1.
         21    1    1    2  504  501  0.89122226654E+02 -0.89219120441E+01 -0.34521031946E+03  0.35664062648E+03  0.00000000000E+00 0. -1.
         21    1    1    2  505  503  0.35464575350E+02 -0.48798278763E+01  0.34825675483E+02  0.49943733317E+02  0.00000000000E+00 0. -1.
          2    1    1    2  501    0 -0.76868869534E+02  0.15118595391E+02  0.11766366424E+04  0.11792417832E+04  0.00000000000E+00 0.  1.
<scales pt_clust_3="42.62687" pt_clust_4="14000.00000" pt_clust_5="35.79873" pt_clust_6="89.51181"></scales>
<clustering>
<clus scale="   35.799">  1  5  2 -1</clus>
<clus scale="   42.627">  1  3  2 -1</clus>
<clus scale="   89.512">  1  6  2 -1</clus>
<clus scale="   89.512">  2  3  1 -1</clus>
</clustering>
</event>
<event>
 6    0  0.1622933E+002  0.1096055E+03  0.7546771E-02  0.1261302E+00
          2   -1    0    0  505    0 -0.00000000000E+00  0.00000000000E+00  0.25642711258E+04  0.25642711258E+04  0.00000000000E+00 0.  1.
         21   -1    0    0  503  502  0.00000000000E+00 -0.00000000000E+00 -0.82786648799E+01  0.82786648799E+01  0.00000000000E+00 0. -1.
         21    1    1    2  503  501 -0.72243735551E+02  0.43802845765E+02  0.79741475917E+03  0.80187788645E+03  0.00000000000E+00 0.  1.
         21    1    1    2  504  502  0.31563222318E+02 -0.17890974650E+02  0.33979829196E+03  0.34172972243E+03  0.00000000000E+00 0. -1.
         21    1    1    2  505  504  0.18430754612E+02 -0.93892031869E+02  0.67820498717E+03  0.68492146337E+03  0.00000000000E+00 0. -1.
          2    1    1    2  501    0  0.22249758620E+02  0.67980160755E+02  0.74057442264E+03  0.74402071845E+03  0.00000000000E+00 0.  1.
<scales pt_clust_3="96.57236" pt_clust_4="31.92028" pt_clust_5="31.92028" pt_clust_6="71.52869"></scales>
<clustering>
<clus scale="   31.920">  4  5 -1 -1</clus>
<clus scale="   71.529">  1  6  2 -1</clus>
<clus scale="   96.572">  2  3  1 -1</clus>
<clus scale="   96.572">  2  3  1 -1</clus>
</clustering>
</event>
<event>
 6    0  0.1622933E+002  0.3457858E+03  0.7546771E-02  0.1064358E+00
          2   -1    0    0  504    0 -0.00000000000E+00  0.00000000000E+00  0.37873906316E+04  0.37873906316E+04  0.00000000000E+00 0.  1.
         21   -1    0    0  503  502  0.00000000000E+00 -0.00000000000E+00 -0.19208449894E+03  0.19208449894E+03  0.00000000000E+00 0. -1.
         21    1    1    2  503  505  0.18111483136E+03 -0.69623286801E+02  0.62998139068E+03  0.65918626867E+03  0.00000000000E+00 0. -1.
         21    1    1    2  504  502  0.33025281513E+02 -0.54394291732E+01 -0.15971049648E+03  0.16317995984E+03  0.00000000000E+00 0. -1.
         21    1    1    2  505  501  0.78977457741E+02 -0.84004005832E+02  0.77692043054E+03  0.78542947947E+03  0.00000000000E+00 0. -1.
          2    1    1    2  501    0 -0.29311757062E+03  0.15906672181E+03  0.23481148079E+04  0.23716794226E+04  0.00000000000E+00 0.  1.
<scales pt_clust_3="96.16854" pt_clust_4="33.47023" pt_clust_5="96.16854" pt_clust_6="321.36467"></scales>
<clustering>
<clus scale="   33.470">  2  4  1 -1</clus>
<clus scale="   96.169">  3  5 -1 -1</clus>
<clus scale="  321.365">  1  6  2 -1</clus>
<clus scale="   33.470">  2  3  1 -1</clus>
</clustering>
</event>
<event>
 6    0  0.1622933E+002  0.1338333E+03  0.7546771E-02  0.1221876E+00
         21   -1    0    0  503  502  0.00000000000E+00  0.00000000000E+00  0.60871442780E+02  0.60871442780E+02  0.00000000000E+00 0. -1.
          2   -1    0    0  504    0 -0.00000000000E+00 -0.00000000000E+00 -0.39853556558E+04  0.39853556558E+04  0.00000000000E+00 0. -1.
         21    1    1    2  503  505 -0.11297786533E+03 -0.51427444980E+02 -0.96102750965E+01  0.12450356436E+03  0.00000000000E+00 0. -1.
         21    1    1    2  504  502 -0.45926306512E+02 -0.55587326426E+01 -0.44085798121E+03  0.44327856336E+03  0.00000000000E+00 0. -1.
         21    1    1    2  505  501  0.42831278647E+02  0.29375177025E+02 -0.73569047673E+03  0.73752145529E+03  0.00000000000E+00 0. -1.
          2    1    1    2  501    0  0.11607289319E+03  0.27611000598E+02 -0.27383254800E+04  0.27409235155E+04  0.00000000000E+00 0. -1.
<scales pt_clust_3="124.96703" pt_clust_4="46.26149" pt_clust_5="31.60443" pt_clust_6="31.60443"></scales>
<clustering>
<clus scale="   31.604">  5  6 -1 -1</clus>
<clus scale="   46.261">  2  4  1 -1</clus>
<clus scale="  124.967">  1  3  2 -1</clus>
<clus scale="  124.967">  1  3  2 -1</clus>
</clustering>
</event>
<event>
 6    0  0.1622933E+002  0.1482199E+03  0.7546771E-02  0.1202678E+00
         21   -1    0    0  505  502  0.00000000000E+00  0.00000000000E+00  0.10086795455E+04  0.10086795455E+04  0.00000000000E+00 0. -1.
          2   -1    0    0  503    0 -0.00000000000E+00 -0.00000000000E+00 -0.30243279076E+03  0.30243279076E+03  0.00000000000E+00 0.  1.
         21    1    1    2  503  502 -0.34130056604E+02  0.15792173821E+02 -0.66719500187E+02  0.76588153281E+02  0.00000000000E+00 0. -1.
         21    1    1    2  504  501  0.51886563571E+02 -0.12618765272E+03  0.22775384360E+03  0.26549454317E+03  0.00000000000E+00 0. -1.
         21    1    1    2  505  504 -0.31910761424E+02 -0.24852261165E+02  0.73469100067E+03  0.73580350506E+03  0.00000000000E+00 0. -1.
          2    1    1    2  501    0  0.14154254456E+02  0.13524774007E+03 -0.18947858934E+03  0.23322613475E+03  0.00000000000E+00 0.  1.
<scales pt_clust_3="37.60656" pt_clust_4="148.21988" pt_clust_5="40.48825" pt_clust_6="14000.00000"></scales>
<clustering>
<clus scale="   37.607">  2  3  1 -1</clus>
<clus scale="   40.488">  1  5  2 -1</clus>
<clus scale="  148.220">  1  4  2 -1</clus>
<clus scale="   40.488">  1  3  2 -1</clus>
</clustering>
</event>
<event>
 6    0  0.1622933E+002  0.1544741E+03  0.7546771E-02  0.1195081E+00
         21   -1    0    0  501  502  0.00000000000E+00  0.00000000000E+00  0.69783349147E+02  0.69783349147E+02  0.00000000000E+00 0. -1.
          2   -1    0    0  504    0 -0.00000000000E+00 -0.00000000000E+00 -0.37772876028E+04  0.37772876028E+04  0.00000000000E+00 0.  1.
         21    1    1    2  503  505  0.94748162700E+02  0.83677164229E+02 -0.59850892812E+03  0.61171236638E+03  0.00000000000E+00 0.  1.
         21    1    1    2  504  503 -0.41210399387E+01 -0.78089948523E+02 -0.96368144600E+03  0.96684898117E+03  0.00000000000E+00 0.  1.
         21    1    1    2  505  502  0.72688620445E+02  0.21545435939E+02  0.33877034859E+02  0.83039116341E+02  0.00000000000E+00 0. -1.
          2    1    1    2  501    0 -0.16331574321E+03 -0.27132651644E+02 -0.21791909144E+04  0.21854704881E+04  0.00000000000E+00 0.  1.
<scales pt_clust_3="154.47413" pt_clust_4="75.31985" pt_clust_5="75.81452" pt_clust_6="14000.00000"></scales>
<clustering>
<clus scale="   75.815">  1  5  2 -1</clus>
<clus scale="   75.320">  2  4  1 -1</clus>
<clus scale="  154.474">  1  3  2 -1</clus>
<clus scale="   75.815">  1  3  2 -1</clus>
</clustering>
</event>
<event>
 6    0  0.1622933E+002  0.1038080E+03  0.7546771E-02  0.1272486E+00
          2   -1    0    0  503    0 -0.00000000000E+00  0.00000000000E+00  0.84056953201E+03  0.84056953201E+03  0.00000000000E+00 0. -1.
         21   -1    0    0  504  502  0.00000000000E+00 -0.00000000000E+00 -0.22877555481E+03  0.22877555481E+03  0.00000000000E+00 0.  1.
         21    1    1    2  503  505  0.29390456952E+02 -0.11908790181E+02  0.55025641394E+02  0.63509365091E+02  0.00000000000E+00 0. -1.
         21    1    1    2  504  501  0.71461669870E+02 -0.75327839845E+02 -0.19872616010E+03  0.22421672646E+03  0.00000000000E+00 0.  1.
         21    1    1    2  505  502  0.93282505615E+01  0.50808536472E+02  0.73593004588E+02  0.89913591639E+02  0.00000000000E+00 0.  1.
          2    1    1    2  501    0 -0.11018037738E+03  0.36428093554E+02  0.68190149131E+03  0.69170540363E+03  0.00000000000E+00 0. -1.
<scales pt_clust_3="31.71148" pt_clust_4="103.80801" pt_clust_5="51.09094" pt_clust_6="14000.00000"></scales>
<clustering>
<clus scale="   31.711">  1  3  2 -1</clus>
<clus scale="   51.091">  1  5  2 -1</clus>
<clus scale="  103.808">  2  4  1 -1</clus>
<clus scale="  103.808">  2  3  1 -1</clus>
</clustering>
</event>
<event>
 6    0  0.1622933E+002  0.2172824E+03  0.7546771E-02  0.1135926E+00
          2   -1    0    0  503    0 -0.00000000000E+00  0.00000000000E+00  0.68309491067E+03  0.68309491067E+03  0.00000000000E+00 0. -1.
         21   -1    0    0  504  502  0.00000000000E+00 -0.00000000000E+00 -0.23110010212E+04  0.23110010212E+04  0.00000000000E+00 0. -1.
         21    1    1    2  503  505 -0.16456239082E+02  0.27544078106E+02  0.25929856762E+02  0.41253381863E+02  0.00000000000E+00 0. -1.
         21    1    1    2  504  501 -0.84435038698E+02  0.38079418243E+02 -0.16905364677E+04  0.16930720204E+04  0.00000000000E+00 0. -1.
         21    1    1    2  505  502  0.18303227549E+03 -0.23026990891E+03 -0.56151567496E+03  0.63389659886E+03  0.00000000000E+00 0.  1.
          2    1    1    2  501    0 -0.82140997714E+02  0.16464641256E+03  0.59821617535E+03  0.62587393070E+03  0.00000000000E+00 0. -1.
<scales pt_clust_3="32.08557" pt_clust_4="92.67600" pt_clust_5="14000.00000" pt_clust_6="217.28235"></scales>
<clustering>
<clus scale="   32.086">  1  3  2 -1</clus>
<clus scale="   92.676">  2  4  1 -1</clus>
<clus scale="  217.282">  1  6  2 -1</clus>
<clus scale="   92.676">  2  3  1 -1</clus>
</clustering>
</event>
<event>
 6    0  0.1622933E+002  0.1125552E+03  0.7546771E-02  0.1255910E+00
         21   -1    0    0  505  502  0.00000000000E+00  0.00000000000E+00  0.10992144997E+04  0.10992144997E+04  0.00000000000E+00 0.  1.
          2   -1    0    0  504    0 -0.00000000000E+00 -0.00000000000E+00 -0.76264382688E+03  0.76264382688E+03  0.00000000000E+00 0. -1.
         21    1    1    2  503  502  0.15715386451E+02 -0.27001258628E+02  0.10261523042E+04  0.10266277772E+04  0.00000000000E+00 0.  1.
         21    1    1    2  504  503  0.28523343265E+02 -0.11865794083E+03 -0.22385829926E+02  0.12407422543E+03  0.00000000000E+00 0.  1.
         21    1    1    2  505  501 -0.50109900330E+02  0.33735944269E+02 -0.36498174522E+02  0.70577849147E+02  0.00000000000E+00 0. -1.
          2    1    1    2  501    0  0.58711706134E+01  0.11192325519E+03 -0.63069762700E+03  0.64057847482E+03  0.00000000000E+00 0. -1.
<scales pt_clust_3="31.24166" pt_clust_4="14000.00000" pt_clust_5="53.92354" pt_clust_6="112.55516"></scales>
<clustering>
<clus scale="   31.242">  1  3  2 -1</clus>
<clus scale="   53.924">  1  5  2 -1</clus>
<clus scale="  112.555">  2  6  1 -1</clus>
<clus scale="   31.242">  1  3  2 -1</clus>
</clustering>
</event>
<event>
 6    0  0.1622933E+002  0.1153610E+03  0.7546771E-02  0.1250952E+00
         21   -1    0    0  505  502  0.00000000000E+00  0.00000000000E+00  0.60037641397E+03  0.60037641397E+03  0.00000000000E+00 0. -1.
          2   -1    0    0  503    0 -0.00000000000E+00 -0.00000000000E+00 -0.18966841387E+04  0.18966841387E+04  0.00000000000E+00 0. -1.
         21    1    1    2  503  502 -0.37777264190E+01  0.87047407135E+02 -0.16554969406E+03  0.18707812140E+03  0.00000000000E+00 0. -1.
         21    1    1    2  504  501  0.55282043267E+02 -0.46916944770E+01 -0.14788060199E+03  0.15794552463E+03  0.00000000000E+00 0.  1.
         21    1    1    2  505  504 -0.17716580952E+02  0.35401689789E+02  0.58151199501E+03  0.58285792199E+03  0.00000000000E+00 0. -1.
          2    1    1    2  501    0 -0.33787735896E+02 -0.11775740245E+03 -0.15643894237E+04  0.15691789847E+04  0.00000000000E+00 0. -1.
<scales pt_clust_3="115.36097" pt_clust_4="50.63861" pt_clust_5="39.58733" pt_clust_6="14000.00000"></scales>
<clustering>
<clus scale="   39.587">  1  5  2 -1</clus>
<clus scale="   50.639">  1  4  2 -1</clus>
<clus scale="  115.361">  1  3  2 -1</clus>
<clus scale="   39.587">  1  3  2 -1</clus>
</clustering>
</event>
<event>
 6    0  0.1622933E+002  0.1315704E+03  0.7546771E-02  0.1225144E+00
         21   -1    0    0  505  502  0.00000000000E+00  0.00000000000E+00  0.82326735066E+01  0.82326735066E+01  0.00000000000E+00 0.  1.
          2   -1    0    0  504    0 -0.00000000000E+00 -0.00000000000E+00 -0.27955836341E+04  0.27955836341E+04  0.00000000000E+00 0.  1.
         21    1    1    2  503  502 -0.35152898317E+02 -0.10666556254E+03 -0.94309622182E+03  0.94975983917E+03  0.00000000000E+00 0.  1.
         21    1    1    2  504  503 -0.29748768808E+02 -0.92438826705E+01 -0.74102933563E+03  0.74168383754E+03  0.00000000000E+00 0. -1.
         21    1    1    2  505  501  0.36019717705E+01  0.46523064743E+02 -0.26807492967E+03  0.27210574722E+03  0.00000000000E+00 0.  1.
          2    1    1    2  501    0  0.61299695354E+02  0.69386380468E+02 -0.83515047351E+03  0.84026688370E+03  0.00000000000E+00 0.  1.
<scales pt_clust_3="121.20813" pt_clust_4="31.15186" pt_clust_5="38.04487" pt_clust_6="38.04487"></scales>
<clustering>
<clus scale="   31.152">  2  4  1 -1</clus>
<clus scale="   38.045">  5  6 -1 -1</clus>
<clus scale="  121.208">  1  3  2 -1</clus>
<clus scale="  121.208">  1  3  2 -1</clus>
</clustering>
</event>
<event>
 6    0  0.1622933E+002  0.1082712E+03  0.7546771E-02  0.1263805E+00
          2   -1    0    0  505    0 -0.00000000000E+00  0.00000000000E+00  0.71141960794E+03  0.71141960794E+03  0.00000000000E+00 0. -1.
         21   -1    0    0  504  502  0.00000000000E+00 -0.00000000000E+00 -0.24285129664E+03  0.24285129664E+03  0.00000000000E+00 0.  1.
         21    1    1    2  503  501  0.74843281193E+02 -0.12060381728E+03  0.17756930986E+03  0.22732720314E+03  0.00000000000E+00 0. -1.
         21    1    1    2  504  503  0.38711263615E+02  0.71170028661E+02 -0.19527348089E+03  0.21141302526E+03  0.00000000000E+00 0.  1.
         21    1    1    2  505  502 -0.64007843691E+02  0.42924176531E+01  0.74393432199E+02  0.98233454880E+02  0.00000000000E+00 0. -1.
          2    1    1    2  501    0 -0.49546701118E+02  0.45141370967E+02  0.41187905014E+03  0.41729722130E+03  0.00000000000E+00 0. -1.
<scales pt_clust_3="14000.00000" pt_clust_4="80.67424" pt_clust_5="64.15161" pt_clust_6="108.27119"></scales>
<clustering>
<clus scale="   64.152">  1  5  2 -1</clus>
<clus scale="   80.674">  2  4  1 -1</clus>
<clus scale="  108.271">  1  6  2 -1</clus>
<clus scale="   80.674">  2  3  1 -1</clus>
</clustering>
</event>
<event>
 6    0  0.1622933E+002  0.1810165E+03  0.7546771E-02  0.1166823E+00
         21   -1    0    0  503  502  0.00000000000E+00  0.00000000000E+00  0.56247466616E+02  0.56247466616E+02  0.00000000000E+00 0.  1.
         -2   -1    0    0    0  501 -0.00000000000E+00 -0.00000000000E+00 -0.19207156552E+04  0.19207156552E+04  0.00000000000E+00 0. -1.
         21    1    1    2  503  501  0.27681682990E+02 -0.43487309743E+02 -0.21874611400E+03  0.22473825681E+03  0.00000000000E+00 0. -1.
         21    1    1    2  504  502 -0.15611243891E+03  0.90618132022E+02 -0.11325277238E+03  0.21309371151E+03  0.00000000000E+00 0.  1.
         21    1    1    2  505  504  0.56092086972E+02 -0.11198905181E+02 -0.44402290722E+03  0.44769194747E+03  0.00000000000E+00 0. -1.
         -2    1    1    2    0  505  0.72338668947E+02 -0.35931917098E+02 -0.10884463950E+04  0.10914392061E+04  0.00000000000E+00 0. -1.
<scales pt_clust_3="51.55019" pt_clust_4="176.12556" pt_clust_5="35.17098" pt_clust_6="35.17098"></scales>
<clustering>
<clus scale="   35.171">  5  6 -1 -1</clus>
<clus scale="   51.550">  2  3  1 -1</clus>
<clus scale="  176.126">  1  4  2 -1</clus>
<clus scale="  176.126">  1  3  2 -1</clus>
</clustering>
</event>
<event>
 6    0  0.1622933E+002  0.9329470E+02  0.7546771E-02  0.1295064E+00
         21   -1    0    0  505  502  0.00000000000E+00  0.00000000000E+00  0.10592896669E+04  0.10592896669E+04  0.00000000000E+00 0. -1.
         -1   -1    0    0    0  501 -0.00000000000E+00 -0.00000000000E+00 -0.45408532195E+03  0.45408532195E+03  0.00000000000E+00 0.  1.
         21    1    1    2  503  501  0.37051679638E+02  0.56016764928E+02 -0.98878719243E+02  0.11953119273E+03  0.00000000000E+00 0. -1.
         21    1    1    2  504  503  0.85480860379E+02 -0.86891215414E+02  0.88686661695E+02  0.15073945990E+03  0.00000000000E+00 0. -1.
         21    1    1    2  505  504 -0.24128402426E+02  0.20909049099E+02  0.92117454594E+03  0.92172767791E+03  0.00000000000E+00 0. -1.
         -1    1    1    2    0  502 -0.98404137592E+02  0.99654013878E+01 -0.30577814343E+03  0.32137665833E+03  0.00000000000E+00 0.  1.
<scales pt_clust_3="67.51272" pt_clust_4="14000.00000" pt_clust_5="31.92755" pt_clust_6="93.29470"></scales>
<clustering>
<clus scale="   31.928">  1  5  2 -1</clus>
<clus scale="   67.513">  2  3  1 -1</clus>
<clus scale="   93.295">  2  6  1 -1</clus>
<clus scale="   31.928">  1  3  2 -1</clus>
</clustering>
</event>
<event>
 6    0  0.1622933E+002  0.7602206E+02  0.7546771E-02  0.1340735E+00
         21   -1    0    0  505  502  0.00000000000E+00  0.00000000000E+00  0.13448672439E+03  0.13448672439E+03  0.00000000000E+00 0.  1.
          1   -1    0    0  504    0 -0.00000000000E+00 -0.00000000000E+00 -0.29759664299E+03  0.29759664299E+03  0.00000000000E+00 0.  1.
         21    1    1    2  503  502  0.27249029208E+02 -0.42451970996E+02 -0.19996986416E+02  0.54263789952E+02  0.00000000000E+00 0.  1.
         21    1    1    2  504  503 -0.56741967821E+02 -0.38388225315E+02 -0.15091471236E+03  0.16573640868E+03  0.00000000000E+00 0.  1.
         21    1    1    2  505  501 -0.39834567241E+02 -0.15466492620E+02  0.67003905677E+02  0.79470299592E+02  0.00000000000E+00 0.  1.
          1    1    1    2  501    0  0.69327505855E+02  0.96306688932E+02 -0.59202125496E+02  0.13261286915E+03  0.00000000000E+00 0.  1.
<scales pt_clust_3="49.47349" pt_clust_4="76.02206" pt_clust_5="42.73178" pt_clust_6="14000.00000"></scales>
<clustering>
<clus scale="   42.732">  1  5  2 -1</clus>
<clus scale="   49.473">  1  3  2 -1</clus>
<clus scale="   76.022">  2  4  1 -1</clus>
<clus scale="   42.732">  1  3  2 -1</clus>
</clustering>
</event>
<event>
 6    0  0.1622933E+002  0.8813909E+02  0.7546771E-02  0.1307422E+00
         21   -1    0    0  503  502  0.00000000000E+00  0.00000000000E+00  0.60568765397E+02  0.60568765397E+02  0.00000000000E+00 0.  1.
          2   -1    0    0  504    0 -0.00000000000E+00 -0.00000000000E+00 -0.13232382878E+04  0.13232382878E+04  0.00000000000E+00 0.  1.
         21    1    1    2  503  501  0.50356669569E+02 -0.71422996712E+02 -0.10893099332E+02  0.88066442204E+02  0.00000000000E+00 0.  1.
         21    1    1    2  504  505 -0.40344261598E+02 -0.52748975130E+01 -0.80469624368E+03  0.80572422613E+03  0.00000000000E+00 0.  1.
         21    1    1    2  505  502 -0.97135395154E+02  0.41031626964E+02 -0.26047931388E+03  0.28101308220E+03  0.00000000000E+00 0.  1.
          2    1    1    2  501    0  0.87122987183E+02  0.35666267262E+02 -0.18660086550E+03  0.20900330266E+03  0.00000000000E+00 0.  1.
<scales pt_clust_3="14000.00000" pt_clust_4="40.68764" pt_clust_5="88.13909" pt_clust_6="79.22087"></scales>
<clustering>
<clus scale="   40.688">  2  4  1 -1</clus>
<clus scale="   79.221">  2  6  1 -1</clus>
<clus scale="   88.139">  2  5  1 -1</clus>
<clus scale="   88.139">  1  3  2 -1</clus>
</clustering>
</event>
<event>
 6    0  0.1622933E+002  0.1479146E+03  0.7546771E-02  0.1203059E+00
         21   -1    0    0  504  502  0.00000000000E+00  0.00000000000E+00  0.28720683414E+02  0.28720683414E+02  0.00000000000E+00 0. -1.
          2   -1    0    0  505    0 -0.00000000000E+00 -0.00000000000E+00 -0.26321026548E+04  0.26321026548E+04  0.00000000000E+00 0. -1.
         21    1    1    2  503  502 -0.35766431831E+02 -0.13938745537E+03 -0.36309212969E+03  0.39056880956E+03  0.00000000000E+00 0. -1.
         21    1    1    2  504  501 -0.31701610427E+02 -0.74207098741E+01 -0.14624200195E+02  0.35692103749E+02  0.00000000000E+00 0. -1.
         21    1    1    2  505  503  0.61573111594E+02  0.14125789229E+02 -0.91742810055E+03  0.91960051418E+03  0.00000000000E+00 0. -1.
          2    1    1    2  501    0  0.58949306633E+01  0.13268237601E+03 -0.13082375409E+04  0.13149619107E+04  0.00000000000E+00 0. -1.
<scales pt_clust_3="147.91459" pt_clust_4="32.55855" pt_clust_5="61.22812" pt_clust_6="14000.00000"></scales>
<clustering>
<clus scale="   32.559">  1  4  2 -1</clus>
<clus scale="   61.228">  2  5  1 -1</clus>
<clus scale="  147.915">  1  3  2 -1</clus>
<clus scale="   32.559">  1  3  2 -1</clus>
</clustering>
</event>
<event>
 6    0  0.1622933E+002  0.1604999E+03  0.7546771E-02  0.1188134E+00
          2   -1    0    0  504    0 -0.00000000000E+00  0.00000000000E+00  0.30276345687E+04  0.30276345687E+04  0.00000000000E+00 0. -1.
         21   -1    0    0  505  502  0.00000000000E+00 -0.00000000000E+00 -0.35348317252E+03  0.35348317252E+03  0.00000000000E+00 0. -1.
         21    1    1    2  503  502 -0.72403427934E+01 -0.10734160069E+03  0.74707031647E+02  0.13098008390E+03  0.00000000000E+00 0. -1.
         21    1    1    2  504  503 -0.35822006930E+02 -0.10024630389E+02  0.50758383384E+03  0.50894504396E+03  0.00000000000E+00 0. -1.
         21    1    1    2  505  501 -0.16303190588E+02 -0.57561556279E+02 -0.31834535388E+03  0.32391803149E+03  0.00000000000E+00 0. -1.
          2    1    1    2  501    0  0.59365540311E+02  0.17492778735E+03  0.24102058846E+04  0.24172745819E+04  0.00000000000E+00 0. -1.
<scales pt_clust_3="14000.00000" pt_clust_4="37.19824" pt_clust_5="59.84728" pt_clust_6="160.49991"></scales>
<clustering>
<clus scale="   37.198">  1  4  2 -1</clus>
<clus scale="   59.847">  2  5  1 -1</clus>
<clus scale="  160.500">  1  6  2 -1</clus>
<clus scale="   59.847">  2  3  1 -1</clus>
</clustering>
</event>
<event>
 6    0  0.1622933E+002  0.8318529E+02  0.7546771E-02  0.1320248E+00
          1   -1    0    0  505    0 -0.00000000000E+00  0.00000000000E+00  0.26022288100E+03  0.26022288100E+03  0.00000000000E+00 0.  1.
         21   -1    0    0  501  502  0.00000000000E+00 -0.00000000000E+00 -0.53114175486E+03  0.53114175486E+03  0.00000000000E+00 0. -1.
         21    1    1    2  503  504 -0.33309426310E+02  0.65221189889E+02  0.39797640382E+01  0.73342757062E+02  0.00000000000E+00 0.  1.
         21    1    1    2  504  502  0.33419658561E+02 -0.85950910341E+01 -0.42336346315E+03  0.42476743177E+03  0.00000000000E+00 0. -1.
         21    1    1    2  505  503  0.73895957763E+02  0.30748065911E+02  0.15926188822E+03  0.17824254591E+03  0.00000000000E+00 0.  1.
          1    1    1    2  501    0 -0.74006190014E+02 -0.87374164767E+02 -0.10797062971E+02  0.11501190111E+03  0.00000000000E+00 0.  1.
<scales pt_clust_3="66.36255" pt_clust_4="34.50723" pt_clust_5="14000.00000" pt_clust_6="83.18529"></scales>
<clustering>
<clus scale="   34.507">  2  4  1 -1</clus>
<clus scale="   66.363">  2  3  1 -1</clus>
<clus scale="   83.185">  2  6  1 -1</clus>
<clus scale="   34.507">  2  3  1 -1</clus>
</clustering>
</event>
<event>
 6    0  0.1622933E+002  0.8161976E+02  0.7546771E-02  0.1324517E+00
          2   -1    0    0  504    0 -0.00000000000E+00  0.00000000000E+00  0.90220299081E+03  0.90220299081E+03  0.00000000000E+00 0. -1.
         21   -1    0    0  503  502  0.00000000000E+00 -0.00000000000E+00 -0.11030801863E+03  0.11030801863E+03  0.00000000000E+00 0.  1.
         21    1    1    2  503  505 -0.60443541118E+02  0.54067997981E+02 -0.81126429148E+02  0.11470949209E+03  0.00000000000E+00 0.  1.
         21    1    1    2  504  502 -0.33394409887E+02  0.26441918404E+02  0.13469896423E+03  0.14127339674E+03  0.00000000000E+00 0. -1.
         21    1    1    2  505  501  0.10095500047E+03 -0.26707240867E+02  0.37873146627E+03  0.39286475074E+03  0.00000000000E+00 0. -1.
          2    1    1    2  501    0 -0.71170494686E+01 -0.53802675518E+02  0.35959097083E+03  0.36366336987E+03  0.00000000000E+00 0. -1.
<scales pt_clust_3="14000.00000" pt_clust_4="42.59532" pt_clust_5="81.61976" pt_clust_6="47.22486"></scales>
<clustering>
<clus scale="   42.595">  1  4  2 -1</clus>
<clus scale="   47.225">  1  6  2 -1</clus>
<clus scale="   81.620">  1  5  2 -1</clus>
<clus scale="   81.620">  2  3  1 -1</clus>
</clustering>
</event>
<event>
 6    0  0.1622933E+002  0.9579576E+02  0.7546771E-02  0.1289394E+00
         21   -1    0    0  504  502  0.00000000000E+00  0.00000000000E+00  0.72968978501E+02  0.72968978501E+02  0.00000000000E+00 0. -1.
          1   -1    0    0  503    0 -0.00000000000E+00 -0.00000000000E+00 -0.10609542260E+04  0.10609542260E+04  0.00000000000E+00 0.  1.
         21    1    1    2  503  505  0.43802094192E+02  0.16752109103E+02 -0.13988475464E+03  0.14753644023E+03  0.00000000000E+00 0.  1.
         21    1    1    2  504  501 -0.79649370822E+02 -0.45496444128E+02 -0.21344418953E+03  0.23231954447E+03  0.00000000000E+00 0. -1.
         21    1    1    2  505  502 -0.43818574785E+02  0.29743982899E+02  0.45158732842E+02  0.69599448035E+02  0.00000000000E+00 0. -1.
          1    1    1    2  501    0  0.79665851415E+02 -0.99964787394E+00 -0.67981503621E+03  0.68446777180E+03  0.00000000000E+00 0.  1.
<scales pt_clust_3="46.89623" pt_clust_4="14000.00000" pt_clust_5="52.60510" pt_clust_6="95.79576"></scales>
<clustering>
<clus scale="   46.896">  2  3  1 -1</clus>
<clus scale="   52.605">  1  5  2 -1</clus>
<clus scale="   95.796">  2  6  1 -1</clus>
<clus scale="   52.605">  1  3  2 -1</clus>
</clustering>
</event>
<event>
 6    0  0.1622933E+002  0.1446433E+03  0.7546771E-02  0.1207214E+00
         21   -1    0    0  503  502  0.00000000000E+00  0.00000000000E+00  0.29377888914E+03  0.29377888914E+03  0.00000000000E+00 0. -1.
         -3   -1    0    0    0  501 -0.00000000000E+00 -0.00000000000E+00 -0.15804197268E+03  0.15804197268E+03  0.00000000000E+00 0.  1.
         21    1    1    2  503  501 -0.10037973815E+03  0.37915999626E+02  0.52994312957E+02  0.11967502690E+03  0.00000000000E+00 0. -1.
         21    1    1    2  504  502  0.23865638066E+02  0.84654627094E+02  0.13474905006E+03  0.16091389331E+03  0.00000000000E+00 0. -1.
         21    1    1    2  505  504  0.52411405576E+02 -0.19404590746E+02 -0.28397802468E+02  0.62689143889E+02  0.00000000000E+00 0.  1.
         -3    1    1    2    0  505  0.24102694504E+02 -0.10316603597E+03 -0.23608644083E+02  0.10854279772E+03  0.00000000000E+00 0.  1.
<scales pt_clust_3="123.22315" pt_clust_4="87.95439" pt_clust_5="55.01639" pt_clust_6="55.01639"></scales>
<clustering>
<clus scale="   55.016">  5  6 -1 -1</clus>
<clus scale="   87.954">  1  4  2 -1</clus>
<clus scale="  123.223">  1  3  2 -1</clus>
<clus scale="   87.954">  1  3  2 -1</clus>
</clustering>
</event>
<event>
 6    0  0.1622933E+002  0.2601031E+03  0.7546771E-02  0.1107081E+00
         21   -1    0    0  501  502  0.00000000000E+00  0.00000000000E+00  0.15139723293E+03  0.15139723293E+03  0.00000000000E+00 0.  1.
          2   -1    0    0  504    0 -0.00000000000E+00 -0.00000000000E+00 -0.69243352157E+03  0.69243352157E+03  0.00000000000E+00 0.  1.
         21    1    1    2  503  505 -0.40285747159E+02 -0.61508055918E+01 -0.34556256921E+02  0.53431345912E+02  0.00000000000E+00 0.  1.
         21    1    1    2  504  503  0.51154999334E+02 -0.29492421186E+02 -0.23934517706E+03  0.24652129856E+03  0.00000000000E+00 0.  1.
         21    1    1    2  505  502 -0.18495010930E+03  0.14708037975E+03 -0.45176097160E+02  0.24058275248E+03  0.00000000000E+00 0.  1.
          2    1    1    2  501    0  0.17408085712E+03 -0.11143715297E+03 -0.22195875750E+03  0.30329535755E+03  0.00000000000E+00 0.  1.
<scales pt_clust_3="40.46538" pt_clust_4="59.04775" pt_clust_5="40.46538" pt_clust_6="241.16157"></scales>
<clustering>
<clus scale="   40.465">  3  5 -1 -1</clus>
<clus scale="   59.048">  2  4  1 -1</clus>
<clus scale="  241.162">  2  6  1 -1</clus>
<clus scale="  260.103">  1  3  2 -1</clus>
</clustering>
</event>
<event>
 6    0  0.1622933E+002  0.7557374E+02  0.7546771E-02  0.1342103E+00
         21   -1    0    0  501  502  0.00000000000E+00  0.00000000000E+00  0.14062691469E+02  0.14062691469E+02  0.00000000000E+00 0.  1.
          2   -1    0    0  503    0 -0.00000000000E+00 -0.00000000000E+00 -0.13046310284E+04  0.13046310284E+04  0.00000000000E+00 0. -1.
         21    1    1    2  503  505  0.68728768291E+02 -0.96620769019E+01 -0.43221170877E+03  0.43774874131E+03  0.00000000000E+00 0.  1.
         21    1    1    2  504  502 -0.36667615939E+02  0.55063758508E+01 -0.14687265849E+03  0.15148073160E+03  0.00000000000E+00 0. -1.
         21    1    1    2  505  504 -0.20572562456E+02 -0.71711673191E+02 -0.47554262181E+03  0.48135909626E+03  0.00000000000E+00 0.  1.
          2    1    1    2  501    0 -0.11488589896E+02  0.75867374242E+02 -0.23594134787E+03  0.24810515070E+03  0.00000000000E+00 0. -1.
<scales pt_clust_3="60.67504" pt_clust_4="37.07876" pt_clust_5="75.57374" pt_clust_6="14000.00000"></scales>
<clustering>
<clus scale="   37.079">  1  4  2 -1</clus>
<clus scale="   60.675">  2  3  1 -1</clus>
<clus scale="   75.574">  2  5  1 -1</clus>
<clus scale="   37.079">  1  3  2 -1</clus>
</clustering>
</event>
<event>
 6    0  0.1622933E+002  0.1364918E+03  0.7546771E-02  0.1218129E+00
         21   -1    0    0  505  502  0.00000000000E+00  0.00000000000E+00  0.53192039550E+02  0.53192039550E+02  0.00000000000E+00 0. -1.
          1   -1    0    0  504    0 -0.00000000000E+00 -0.00000000000E+00 -0.10620278372E+04  0.10620278372E+04  0.00000000000E+00 0. -1.
         21    1    1    2  503  501  0.29188819404E+02 -0.56483180697E+02 -0.34457034116E+03  0.35038701015E+03  0.00000000000E+00 0. -1.
         21    1    1    2  504  502  0.39709984302E+02  0.95980189888E+01 -0.16930626635E+03  0.17416548638E+03  0.00000000000E+00 0. -1.
         21    1    1    2  505  503 -0.62990612617E+02  0.11605286578E+03 -0.51381204615E+02  0.14169020122E+03  0.00000000000E+00 0. -1.
          1    1    1    2  501    0 -0.59081910894E+01 -0.69167704076E+02 -0.44357798557E+03  0.44897717903E+03  0.00000000000E+00 0. -1.
<scales pt_clust_3="36.75708" pt_clust_4="40.85346" pt_clust_5="130.97639" pt_clust_6="36.75708"></scales>
<clustering>
<clus scale="   36.757">  3  6 -1 -1</clus>
<clus scale="   40.853">  2  4  1 -1</clus>
<clus scale="  130.976">  1  5  2 -1</clus>
<clus scale="  130.976">  1  3  2 -1</clus>
</clustering>
</event>
<event>
 6    0  0.1622933E+002  0.9672045E+02  0.7546771E-02  0.1287348E+00
          2   -1    0    0  505    0 -0.00000000000E+00  0.00000000000E+00  0.27393265376E+04  0.27393265376E+04  0.00000000000E+00 0. -1.
         21   -1    0    0  501  502  0.00000000000E+00 -0.00000000000E+00 -0.55818115846E+02  0.55818115846E+02  0.00000000000E+00 0.  1.
         21    1    1    2  503  504 -0.84733048694E+02 -0.15534845778E+02  0.63300989676E+03  0.63884469973E+03  0.00000000000E+00 0. -1.
         21    1    1    2  504  502 -0.20849915722E+02 -0.31321489654E+02 -0.41607602418E+02  0.56097658407E+02  0.00000000000E+00 0.  1.
         21    1    1    2  505  503  0.10345487822E+03 -0.21060812314E+02  0.15925857859E+04  0.15960814375E+04  0.00000000000E+00 0. -1.
          2    1    1    2  501    0  0.21280861956E+01  0.67917147745E+02  0.49952034157E+03  0.50412085788E+03  0.00000000000E+00 0. -1.
<scales pt_clust_3="14000.00000" pt_clust_4="37.62652" pt_clust_5="96.72045" pt_clust_6="57.76986"></scales>
<clustering>
<clus scale="   37.627">  2  4  1 -1</clus>
<clus scale="   57.770">  2  6  1 -1</clus>
<clus scale="   96.720">  1  5  2 -1</clus>
<clus scale="   37.627">  2  3  1 -1</clus>
</clustering>
</event>
<event>
 6    0  0.1622933E+002  0.1369352E+03  0.7546771E-02  0.1217513E+00
          1   -1    0    0  503    0 -0.00000000000E+00  0.00000000000E+00  0.27432636931E+04  0.27432636931E+04  0.00000000000E+00 0. -1.
         21   -1    0    0  504  502  0.00000000000E+00 -0.00000000000E+00 -0.54602913550E+02  0.54602913550E+02  0.00000000000E+00 0.  1.
         21    1    1    2  503  505  0.21219646550E+02  0.25779112633E+02  0.22202857537E+03  0.22452510845E+03  0.00000000000E+00 0.  1.
         21    1    1    2  504  501 -0.13083279745E+02  0.13743034177E+03  0.48589936203E+02  0.14635317881E+03  0.00000000000E+00 0.  1.
         21    1    1    2  505  502 -0.66357178472E+01 -0.50916899169E+02  0.21351322940E+03  0.21960068875E+03  0.00000000000E+00 0.  1.
          1    1    1    2  501    0 -0.15006489578E+01 -0.11229255523E+03  0.22045290386E+04  0.22073876306E+04  0.00000000000E+00 0. -1.
<scales pt_clust_3="33.38916" pt_clust_4="136.93524" pt_clust_5="48.93872" pt_clust_6="14000.00000"></scales>
<clustering>
<clus scale="   33.389">  1  3  2 -1</clus>
<clus scale="   48.939">  1  5  2 -1</clus>
<clus scale="  136.935">  2  4  1 -1</clus>
<clus scale="  136.935">  2  3  1 -1</clus>
</clustering>
</event>
<event>
 6    0  0.1622933E+002  0.1606074E+03  0.7546771E-02  0.1188013E+00
         -2   -1    0    0    0  501 -0.00000000000E+00  0.00000000000E+00  0.13906741267E+04  0.13906741267E+04  0.00000000000E+00 0.  1.
         21   -1    0    0  504  502  0.00000000000E+00 -0.00000000000E+00 -0.28029249732E+03  0.28029249732E+03  0.00000000000E+00 0. -1.
         21    1    1    2  503  505 -0.70279673478E+02 -0.24212076192E+02  0.10320933654E+03  0.12719129014E+03  0.00000000000E+00 0.  1.
         21    1    1    2  504  503 -0.26784952526E+02  0.15982157927E+03 -0.23237221555E+03  0.28329704806E+03  0.00000000000E+00 0. -1.
         21    1    1    2  505  501 -0.93492935582E+01 -0.55957433058E+02  0.11633882767E+03  0.12943479604E+03  0.00000000000E+00 0.  1.
         -2    1    1    2    0  502  0.10641391956E+03 -0.79652070020E+02  0.11232056807E+04  0.11310434897E+04  0.00000000000E+00 0.  1.
<scales pt_clust_3="76.92637" pt_clust_4="14000.00000" pt_clust_5="56.73309" pt_clust_6="160.60737"></scales>
<clustering>
<clus scale="   56.733">  1  5  2 -1</clus>
<clus scale="   76.926">  1  3  2 -1</clus>
<clus scale="  160.607">  1  6  2 -1</clus>
<clus scale="  160.607">  2  3  1 -1</clus>
</clustering>
</event>
<event>
 6    0  0.1622933E+002  0.1038431E+03  0.7546771E-02  0.1272416E+00
         21   -1    0    0  505  502  0.00000000000E+00  0.00000000000E+00  0.15833029074E+03  0.15833029074E+03  0.00000000000E+00 0. -1.
          2   -1    0    0  504    0 -0.00000000000E+00 -0.00000000000E+00 -0.20642785538E+04  0.20642785538E+04  0.00000000000E+00 0.  1.
         21    1    1    2  503  502 -0.53353449969E+02 -0.44459438902E+02 -0.10390602658E+03  0.12497877696E+03  0.00000000000E+00 0.  1.
         21    1    1    2  504  503  0.22125761891E+02  0.11181817194E+03 -0.36054752492E+03  0.37813670893E+03  0.00000000000E+00 0. -1.
         21    1    1    2  505  501 -0.27019286893E+02  0.22768507558E+02  0.13489989543E+03  0.13945045209E+03  0.00000000000E+00 0. -1.
          2    1    1    2  501    0  0.58246974971E+02 -0.90127240598E+02 -0.15763946070E+04  0.15800429066E+04  0.00000000000E+00 0.  1.
<scales pt_clust_3="74.56906" pt_clust_4="103.84309" pt_clust_5="35.33337" pt_clust_6="14000.00000"></scales>
<clustering>
<clus scale="   35.333">  1  5  2 -1</clus>
<clus scale="   74.569">  1  3  2 -1</clus>
<clus scale="  103.843">  1  4  2 -1</clus>
<clus scale="   35.333">  1  3  2 -1</clus>
</clustering>
</event>
<event>
 6    0  0.1622933E+002  0.7641882E+02  0.7546771E-02  0.1339533E+00
          1   -1    0    0  504    0 -0.00000000000E+00  0.00000000000E+00  0.84244709774E+03  0.84244709774E+03  0.00000000000E+00 0.  1.
         21   -1    0    0  501  502  0.00000000000E+00 -0.00000000000E+00 -0.51336645505E+03  0.51336645505E+03  0.00000000000E+00 0.  1.
         21    1    1    2  503  502  0.24123115341E+02  0.28697350593E+02 -0.43127961921E+03  0.43290596274E+03  0.00000000000E+00 0.  1.
         21    1    1    2  504  505 -0.66004527066E+02 -0.61720849747E+02 -0.38161541296E+02  0.98093649747E+02  0.00000000000E+00 0.  1.
         21    1    1    2  505  503  0.22647189035E+02 -0.40925062675E+02  0.37457078223E+02  0.59923189461E+02  0.00000000000E+00 0. -1.
          1    1    1    2  501    0  0.19234222689E+02  0.73948561828E+02  0.76106472498E+03  0.76489075084E+03  0.00000000000E+00 0.  1.
<scales pt_clust_3="37.48950" pt_clust_4="14000.00000" pt_clust_5="45.17716" pt_clust_6="76.41882"></scales>
<clustering>
<clus scale="   37.490">  2  3  1 -1</clus>
<clus scale="   45.177">  2  5  1 -1</clus>
<clus scale="   76.419">  1  6  2 -1</clus>
<clus scale="   37.490">  2  3  1 -1</clus>
</clustering>
</event>
<event>
 6    0  0.1622933E+002  0.1432361E+03  0.7546771E-02  0.1209040E+00
          2   -1    0    0  503    0 -0.00000000000E+00  0.00000000000E+00  0.31819958857E+04  0.31819958857E+04  0.00000000000E+00 0. -1.
         21   -1    0    0  504  502  0.00000000000E+00 -0.00000000000E+00 -0.27575136678E+03  0.27575136678E+03  0.00000000000E+00 0. -1.
         21    1    1    2  503  502  0.21730001912E+02  0.34730694430E+02  0.13182871702E+03  0.13804790744E+03  0.00000000000E+00 0. -1.
         21    1    1    2  504  505  0.12830942564E+03 -0.14068350874E+02 -0.25503186890E+03  0.28583645912E+03  0.00000000000E+00 0. -1.
         21    1    1    2  505  501 -0.46350364649E+02 -0.22906473046E+02  0.60767562152E+03  0.60987107145E+03  0.00000000000E+00 0. -1.
          2    1    1    2  501    0 -0.10368906291E+03  0.22441294905E+01  0.24217720493E+04  0.24239918145E+04  0.00000000000E+00 0. -1.
<scales pt_clust_3="40.96845" pt_clust_4="129.16856" pt_clust_5="43.40181" pt_clust_6="43.40181"></scales>
<clustering>
<clus scale="   40.968">  1  3  2 -1</clus>
<clus scale="   43.402">  5  6 -1 -1</clus>
<clus scale="  129.169">  2  4  1 -1</clus>
<clus scale="  129.169">  2  3  1 -1</clus>
</clustering>
</event>
<event>
 6    0  0.1622933E+002  0.1185032E+03  0.7546771E-02  0.1245587E+00
         21   -1    0    0  504  502  0.00000000000E+00  0.00000000000E+00  0.67519670193E+03  0.67519670193E+03  0.00000000000E+00 0.  1.
          1   -1    0    0  503    0 -0.00000000000E+00 -0.00000000000E+00 -0.25065135137E+03  0.25065135137E+03  0.00000000000E+00 0. -1.
         21    1    1    2  503  502 -0.62906560804E+02 -0.70649855592E+02 -0.19064876844E+02  0.96499259149E+02  0.00000000000E+00 0. -1.
         21    1    1    2  504  505  0.10442505429E+03 -0.37275860424E+02  0.61110783285E+03  0.62108523175E+03  0.00000000000E+00 0.  1.
         21    1    1    2  505  501 -0.46236243540E+02  0.63173861054E+02 -0.97351784873E+02  0.12492436494E+03  0.00000000000E+00 0. -1.
          1    1    1    2  501    0  0.47177500549E+01  0.44751854962E+02 -0.70145820575E+02  0.83339197454E+02  0.00000000000E+00 0. -1.
<scales pt_clust_3="94.59724" pt_clust_4="109.98400" pt_clust_5="33.44969" pt_clust_6="33.44969"></scales>
<clustering>
<clus scale="   33.450">  5  6 -1 -1</clus>
<clus scale="   94.597">  2  3  1 -1</clus>
<clus scale="  109.984">  1  4  2 -1</clus>
<clus scale="  109.984">  1  3  2 -1</clus>
</clustering>
</event>
<event>
 6    0  0.1622933E+002  0.1642795E+03  0.7546771E-02  0.1183948E+00
          2   -1    0    0  504    0 -0.00000000000E+00  0.00000000000E+00  0.16196832424E+03  0.16196832424E+03  0.00000000000E+00 0.  1.
         21   -1    0    0  501  502  0.00000000000E+00 -0.00000000000E+00 -0.19546806367E+04  0.19546806367E+04  0.00000000000E+00 0. -1.
         21    1    1    2  503  505 -0.40689048242E+02 -0.16162869922E+02 -0.44952660434E+02  0.62750129012E+02  0.00000000000E+00 0.  1.
         21    1    1    2  504  503  0.13667539173E+02 -0.26713160016E+02 -0.16351335692E+02  0.34172514159E+02  0.00000000000E+00 0. -1.
         21    1    1    2  505  502  0.87052090879E+01  0.16518476086E+03 -0.18446432101E+04  0.18520449126E+04  0.00000000000E+00 0. -1.
          2    1    1    2  501    0  0.18316299981E+02 -0.12230873093E+03  0.11323489368E+03  0.16768140521E+03  0.00000000000E+00 0.  1.
<scales pt_clust_3="43.65112" pt_clust_4="30.00658" pt_clust_5="164.27951" pt_clust_6="14000.00000"></scales>
<clustering>
<clus scale="   30.007">  1  4  2 -1</clus>
<clus scale="   43.651">  1  3  2 -1</clus>
<clus scale="  164.280">  2  5  1 -1</clus>
<clus scale="  164.280">  2  3  1 -1</clus>
</clustering>
</event>
<event>
 6    0  0.1622933E+002  0.1660806E+03  0.7546771E-02  0.1181998E+00
         21   -1    0    0  501  502  0.00000000000E+00  0.00000000000E+00  0.29137809935E+03  0.29137809935E+03  0.00000000000E+00 0. -1.
          2   -1    0    0  503    0 -0.00000000000E+00 -0.00000000000E+00 -0.15432473285E+04  0.15432473285E+04  0.00000000000E+00 0.  1.
         21    1    1    2  503  505 -0.18689551883E+02 -0.37898970238E+02 -0.15421139617E+03  0.15989617257E+03  0.00000000000E+00 0. -1.
         21    1    1    2  504  502 -0.44585099115E+02 -0.15254915426E+02  0.23728436833E+03  0.24191819891E+03  0.00000000000E+00 0. -1.
         21    1    1    2  505  504  0.20245364239E+03 -0.17781440429E+02 -0.19312841805E+03  0.28036091525E+03  0.00000000000E+00 0. -1.
          2    1    1    2  501    0 -0.13917899139E+03  0.70935326093E+02 -0.11418137833E+04  0.11524501411E+04  0.00000000000E+00 0.  1.
<scales pt_clust_3="42.25673" pt_clust_4="47.17273" pt_clust_5="14000.00000" pt_clust_6="166.08056"></scales>
<clustering>
<clus scale="   42.257">  2  3  1 -1</clus>
<clus scale="   47.173">  1  4  2 -1</clus>
<clus scale="  166.081">  2  6  1 -1</clus>
<clus scale="   47.173">  1  3  2 -1</clus>
</clustering>
</event>
<event>
 6    0  0.1622933E+002  0.8607640E+02  0.7546771E-02  0.1312641E+00
         21   -1    0    0  501  502  0.00000000000E+00  0.00000000000E+00  0.21848444977E+04  0.21848444977E+04  0.00000000000E+00 0.  1.
          2   -1    0    0  505    0 -0.00000000000E+00 -0.00000000000E+00 -0.26477076954E+04  0.26477076954E+04  0.00000000000E+00 0. -1.
         21    1    1    2  503  502  0.15642292161E+02  0.84628169623E+02  0.21781888606E+04  0.21798883735E+04  0.00000000000E+00 0.  1.
         21    1    1    2  504  503  0.15214394519E+02  0.38907714741E+02 -0.11536208929E+04  0.11543770843E+04  0.00000000000E+00 0. -1.
         21    1    1    2  505  504  0.22748874050E+02 -0.20954259454E+02 -0.75081537193E+02  0.81202398284E+02  0.00000000000E+00 0. -1.
          2    1    1    2  501    0 -0.53605560730E+02 -0.10258162491E+03 -0.14123496282E+04  0.14170843370E+04  0.00000000000E+00 0. -1.
<scales pt_clust_3="86.07640" pt_clust_4="38.94629" pt_clust_5="30.92883" pt_clust_6="14000.00000"></scales>
<clustering>
<clus scale="   30.929">  2  5  1 -1</clus>
<clus scale="   38.946">  2  4  1 -1</clus>
<clus scale="   86.076">  1  3  2 -1</clus>
<clus scale="   86.076">  1  3  2 -1</clus>
</clustering>
</event>
<event>
 6    0  0.1622933E+002  0.1597684E+03  0.7546771E-02  0.1188958E+00
          1   -1    0    0  504    0 -0.00000000000E+00  0.00000000000E+00  0.76750216089E+03  0.76750216089E+03  0.00000000000E+00 0.  1.
         21   -1    0    0  501  502  0.00000000000E+00 -0.00000000000E+00 -0.18497829477E+03  0.18497829477E+03  0.00000000000E+00 0.  1.
         21    1    1    2  503  502  0.30175711733E+02 -0.56612336761E+01 -0.11808408724E+03  0.12201014222E+03  0.00000000000E+00 0.  1.
         21    1    1    2  504  505 -0.15361051553E+03 -0.13283943243E+02  0.43186585085E+03  0.45856380882E+03  0.00000000000E+00 0.  1.
         21    1    1    2  505  503  0.17286398100E+03 -0.28118335613E+02  0.24172574228E+03  0.29850281608E+03  0.00000000000E+00 0. -1.
          1    1    1    2  501    0 -0.49429177207E+02  0.47063512532E+02  0.27016360237E+02  0.73403688543E+02  0.00000000000E+00 0.  1.
<scales pt_clust_3="30.70217" pt_clust_4="14000.00000" pt_clust_5="159.76839" pt_clust_6="59.35119"></scales>
<clustering>
<clus scale="   30.702">  2  3  1 -1</clus>
<clus scale="   59.351">  2  6  1 -1</clus>
<clus scale="  159.768">  2  5  1 -1</clus>
<clus scale="   30.702">  2  3  1 -1</clus>
</clustering>
</event>
<event>
 6    0  0.1622933E+002  0.7580148E+02  0.7546771E-02  0.1341407E+00
         21   -1    0    0  505  502  0.00000000000E+00  0.00000000000E+00  0.25526074212E+03  0.25526074212E+03  0.00000000000E+00 0. -1.
          1   -1    0    0  504    0 -0.00000000000E+00 -0.00000000000E+00 -0.13965162962E+04  0.13965162962E+04  0.00000000000E+00 0. -1.
         21    1    1    2  503  502  0.40328644929E+02 -0.24112139915E+02 -0.86989369344E+02  0.98868322895E+02  0.00000000000E+00 0. -1.
         21    1    1    2  504  503 -0.52450558916E+01  0.34636815405E+02 -0.28257975649E+03  0.28474293384E+03  0.00000000000E+00 0. -1.
         21    1    1    2  505  501  0.67379162343E+02 -0.34394645695E+02  0.23968346647E+03  0.25133863067E+03  0.00000000000E+00 0. -1.
          1    1    1    2  501    0 -0.10246275138E+03  0.23869970206E+02 -0.10113698947E+04  0.10168271509E+04  0.00000000000E+00 0. -1.
<scales pt_clust_3="45.18345" pt_clust_4="35.03169" pt_clust_5="14000.00000" pt_clust_6="75.80148"></scales>
<clustering>
<clus scale="   35.032">  2  4  1 -1</clus>
<clus scale="   45.183">  2  3  1 -1</clus>
<clus scale="   75.801">  2  6  1 -1</clus>
<clus scale="   75.801">  1  3  2 -1</clus>
</clustering>
</event>
<event>
 6    0  0.1622933E+002  0.7811205E+02  0.7546771E-02  0.1334496E+00
         21   -1    0    0  504  502  0.00000000000E+00  0.00000000000E+00  0.14001855811E+03  0.14001855811E+03  0.00000000000E+00 0.  1.
          1   -1    0    0  503    0 -0.00000000000E+00 -0.00000000000E+00 -0.15312604247E+04  0.15312604247E+04  0.00000000000E+00 0. -1.
         21    1    1    2  503  505 -0.25572258069E+02 -0.27706820421E+02 -0.27227525869E+03  0.27487347048E+03  0.00000000000E+00 0.  1.
         21    1    1    2  504  501  0.52187922321E+02 -0.58325955958E+02  0.12094504028E+03  0.14405970687E+03  0.00000000000E+00 0.  1.
         21    1    1    2  505  502 -0.39980621298E+02 -0.98760361863E+01 -0.97542617859E+02  0.10587987754E+03  0.00000000000E+00 0.  1.
          1    1    1    2  501    0  0.13364957045E+02  0.95908812566E+02 -0.11423690303E+04  0.11464659279E+04  0.00000000000E+00 0. -1.
<scales pt_clust_3="37.70422" pt_clust_4="78.11205" pt_clust_5="43.75966" pt_clust_6="14000.00000"></scales>
<clustering>
<clus scale="   37.704">  2  3  1 -1</clus>
<clus scale="   43.760">  2  5  1 -1</clus>
<clus scale="   78.112">  1  4  2 -1</clus>
<clus scale="   78.112">  1  3  2 -1</clus>
</clustering>
</event>
<event>
 6    0  0.1622933E+002  0.1332978E+03  0.7546771E-02  0.1222643E+00
         21   -1    0    0  505  502  0.00000000000E+00  0.00000000000E+00  0.55390069309E+02  0.55390069309E+02  0.00000000000E+00 0. -1.
         -1   -1    0    0    0  501 -0.00000000000E+00 -0.00000000000E+00 -0.15253199165E+04  0.15253199165E+04  0.00000000000E+00 0. -1.
         21    1    1    2  503  502 -0.53828893614E+02 -0.27220631990E+02 -0.74747383318E+01  0.60781447060E+02  0.00000000000E+00 0. -1.
         21    1    1    2  504  501 -0.10088053320E+03  0.68444314981E+02 -0.92992859412E+03  0.93788522560E+03  0.00000000000E+00 0. -1.
         21    1    1    2  505  504 -0.33777656348E+02  0.13679728266E+02 -0.57862723480E+02  0.68382452445E+02  0.00000000000E+00 0. -1.
         -1    1    1    2    0  503  0.18848708316E+03 -0.54903411258E+02 -0.47466379122E+03  0.51366086067E+03  0.00000000000E+00 0. -1.
<scales pt_clust_3="74.50770" pt_clust_4="14000.00000" pt_clust_5="36.44263" pt_clust_6="133.29782"></scales>
<clustering>
<clus scale="   36.443">  1  5  2 -1</clus>
<clus scale="   74.508">  1  3  2 -1</clus>
<clus scale="  133.298">  1  6  2 -1</clus>
<clus scale="   36.443">  1  3  2 -1</clus>
</clustering>
</event>
<event>
 6    0  0.1622933E+002  0.8637699E+02  0.7546771E-02  0.1311870E+00
          1   -1    0    0  503    0 -0.00000000000E+00  0.00000000000E+00  0.19721558244E+03  0.19721558244E+03  0.00000000000E+00 0. -1.
         21   -1    0    0  505  502  0.00000000000E+00 -0.00000000000E+00 -0.10937896922E+03  0.10937896922E+03  0.00000000000E+00 0. -1.
         21    1    1    2  503  504  0.51912997534E+02 -0.24823409312E+02  0.14962535996E+02  0.59456189301E+02  0.00000000000E+00 0. -1.
         21    1    1    2  504  502 -0.10189777778E+03  0.13278589047E+02 -0.16409875692E+02  0.10406133799E+03  0.00000000000E+00 0. -1.
         21    1    1    2  505  501 -0.22666850364E+01 -0.34663021382E+02  0.74092426220E+01  0.35518442936E+02  0.00000000000E+00 0.  1.
          1    1    1    2  501    0  0.52251465281E+02  0.46207841648E+02  0.81874710296E+02  0.10755858143E+03  0.00000000000E+00 0. -1.
<scales pt_clust_3="61.02119" pt_clust_4="86.37699" pt_clust_5="34.73705" pt_clust_6="14000.00000"></scales>
<clustering>
<clus scale="   34.737">  2  5  1 -1</clus>
<clus scale="   61.021">  1  3  2 -1</clus>
<clus scale="   86.377">  2  4  1 -1</clus>
<clus scale="   34.737">  2  3  1 -1</clus>
</clustering>
</event>
<event>
 6    0  0.1622933E+002  0.1086256E+03  0.7546771E-02  0.1263136E+00
          2   -1    0    0  504    0 -0.00000000000E+00  0.00000000000E+00  0.12939585011E+03  0.12939585011E+03  0.00000000000E+00 0. -1.
         21   -1    0    0  501  502  0.00000000000E+00 -0.00000000000E+00 -0.65836054917E+03  0.65836054917E+03  0.00000000000E+00 0. -1.
         21    1    1    2  503  502  0.13882337439E+03  0.51900173283E+02 -0.45639967313E+03  0.47986062445E+03  0.00000000000E+00 0. -1.
         21    1    1    2  504  505  0.26818065262E+02 -0.14582517160E+02 -0.16274631703E+02  0.34593670927E+02  0.00000000000E+00 0.  1.
         21    1    1    2  505  503 -0.12683763488E+03  0.23059768466E+02  0.55580348630E+02  0.14038772631E+03  0.00000000000E+00 0. -1.
          2    1    1    2  501    0 -0.38803804775E+02 -0.60377424589E+02 -0.11187074285E+03  0.13291437759E+03  0.00000000000E+00 0. -1.
<scales pt_clust_3="108.62563" pt_clust_4="30.52636" pt_clust_5="14000.00000" pt_clust_6="71.62589"></scales>
<clustering>
<clus scale="   30.526">  1  4  2 -1</clus>
<clus scale="   71.626">  2  6  1 -1</clus>
<clus scale="  108.626">  2  3  1 -1</clus>
<clus scale="   71.626">  2  3  1 -1</clus>
</clustering>
</event>
<event>
 6    0  0.1622933E+002  0.1438900E+03  0.7546771E-02  0.1208189E+00
         21   -1    0    0  504  502  0.00000000000E+00  0.00000000000E+00  0.35329978858E+02  0.35329978858E+02  0.00000000000E+00 0.  1.
          1   -1    0    0  503    0 -0.00000000000E+00 -0.00000000000E+00 -0.27290792716E+04  0.27290792716E+04  0.00000000000E+00 0.  1.
         21    1    1    2  503  505 -0.66905364234E+00 -0.30610215643E+02 -0.45983660813E+03  0.46085479179E+03  0.00000000000E+00 0. -1.
         21    1    1    2  504  501  0.81362372770E+02 -0.71495542154E+01 -0.16228533188E+03  0.18167961023E+03  0.00000000000E+00 0.  1.
         21    1    1    2  505  502 -0.13127564109E+03 -0.11730300230E+03 -0.34273440955E+03  0.38530528647E+03  0.00000000000E+00 0.  1.
          1    1    1    2  501    0  0.50582321966E+02  0.15506277215E+03 -0.17288929432E+04  0.17365695620E+04  0.00000000000E+00 0.  1.
<scales pt_clust_3="30.61753" pt_clust_4="81.86126" pt_clust_5="143.88998" pt_clust_6="14000.00000"></scales>
<clustering>
<clus scale="   30.618">  2  3  1 -1</clus>
<clus scale="   81.861">  1  4  2 -1</clus>
<clus scale="  143.890">  1  5  2 -1</clus>
<clus scale="   81.861">  1  3  2 -1</clus>
</clustering>
</event>
<event>
 6    0  0.1622933E+002  0.7125150E+02  0.7546771E-02  0.1355888E+00
         21   -1    0    0  503  502  0.00000000000E+00  0.00000000000E+00  0.54252817096E+02  0.54252817096E+02  0.00000000000E+00 0. -1.
          2   -1    0    0  505    0 -0.00000000000E+00 -0.00000000000E+00 -0.37210314889E+04  0.37210314889E+04  0.00000000000E+00 0.  1.
         21    1    1    2  503  504 -0.53920347651E+02 -0.45984447447E+02  0.22234116316E+02  0.74271994898E+02  0.00000000000E+00 0. -1.
         21    1    1    2  504  501  0.60628196597E+02  0.72226148363E+02 -0.14677956014E+04  0.14708216487E+04  0.00000000000E+00 0.  1.
         21    1    1    2  505  502  0.39929894481E+01 -0.65258772992E+02 -0.24542851048E+03  0.25398780517E+03  0.00000000000E+00 0. -1.
          2    1    1    2  501    0 -0.10700838394E+02  0.39017072076E+02 -0.19757886763E+04  0.19762028573E+04  0.00000000000E+00 0.  1.
<scales pt_clust_3="14000.00000" pt_clust_4="71.25150" pt_clust_5="59.72633" pt_clust_6="40.45788"></scales>
<clustering>
<clus scale="   40.458">  2  6  1 -1</clus>
<clus scale="   59.726">  2  5  1 -1</clus>
<clus scale="   71.251">  2  4  1 -1</clus>
<clus scale="   71.251">  1  3  2 -1</clus>
</clustering>
</event>
<event>
 6    0  0.1622933E+002  0.8185645E+02  0.7546771E-02  0.1323864E+00
          2   -1    0    0  503    0 -0.00000000000E+00  0.00000000000E+00  0.27909173885E+04  0.27909173885E+04  0.00000000000E+00 0.  1.
         21   -1    0    0  504  502  0.00000000000E+00 -0.00000000000E+00 -0.25047891273E+02  0.25047891273E+02  0.00000000000E+00 0. -1.
         21    1    1    2  503  505 -0.50156446041E+02  0.41346613313E+02  0.41285828639E+03  0.41794398686E+03  0.00000000000E+00 0. -1.
         21    1    1    2  504  501 -0.38813052887E+02 -0.84054407998E+02  0.90518670423E+02  0.12948060192E+03  0.00000000000E+00 0. -1.
         21    1    1    2  505  502  0.33231014633E+02  0.10564749216E-01  0.11015796585E+03  0.11506119192E+03  0.00000000000E+00 0. -1.
          2    1    1    2  501    0  0.55738484295E+02  0.42697229936E+02  0.21523345745E+04  0.21534794990E+04  0.00000000000E+00 0.  1.
<scales pt_clust_3="62.16239" pt_clust_4="14000.00000" pt_clust_5="33.23102" pt_clust_6="81.85645"></scales>
<clustering>
<clus scale="   33.231">  2  5  1 -1</clus>
<clus scale="   62.162">  1  3  2 -1</clus>
<clus scale="   81.856">  1  6  2 -1</clus>
<clus scale="   33.231">  2  3  1 -1</clus>
</clustering>
</event>
<event>
 6    0  0.1622933E+002  0.9002816E+02  0.7546771E-02  0.1302784E+00
          1   -1    0    0  504    0 -0.00000000000E+00  0.00000000000E+00  0.12253908773E+04  0.12253908773E+04  0.00000000000E+00 0.  1.
         21   -1    0    0  501  502  0.00000000000E+00 -0.00000000000E+00 -0.14779981886E+03  0.14779981886E+03  0.00000000000E+00 0. -1.
         21    1    1    2  503  502  0.89158685765E+02  0.30234498500E+02 -0.11791966044E+03  0.15089215508E+03  0.00000000000E+00 0. -1.
         21    1    1    2  504  505 -0.89000540696E+01  0.39353180862E+02  0.66299587273E+02  0.77611333444E+02  0.00000000000E+00 0. -1.
         21    1    1    2  505  503 -0.58473290555E+02 -0.60373298857E+01  0.12394198284E+03  0.13717576379E+03  0.00000000000E+00 0. -1.
          1    1    1    2  501    0 -0.21785341140E+02 -0.63550349476E+02  0.10052691488E+04  0.10075114438E+04  0.00000000000E+00 0.  1.
<scales pt_clust_3="14000.00000" pt_clust_4="40.34704" pt_clust_5="90.02816" pt_clust_6="41.55372"></scales>
<clustering>
<clus scale="   40.347">  1  4  2 -1</clus>
<clus scale="   41.554">  1  6  2 -1</clus>
<clus scale="   90.028">  1  5  2 -1</clus>
<clus scale="   90.028">  2  3  1 -1</clus>
</clustering>
</event>
<event>
 6    0  0.1622933E+002  0.1270431E+03  0.7546771E-02  0.1231910E+00
         21   -1    0    0  501  502  0.00000000000E+00  0.00000000000E+00  0.21094920900E+03  0.21094920900E+03  0.00000000000E+00 0. -1.
          1   -1    0    0  504    0 -0.00000000000E+00 -0.00000000000E+00 -0.25735153451E+03  0.25735153451E+03  0.00000000000E+00 0. -1.
         21    1    1    2  503  505  0.42048932508E+02  0.19058430670E+02 -0.17475968590E+02  0.49363407326E+02  0.00000000000E+00 0. -1.
         21    1    1    2  504  503  0.13146831813E+02 -0.39460926458E+02 -0.95474875078E+02  0.10414151754E+03  0.00000000000E+00 0. -1.
         21    1    1    2  505  502  0.11432705434E+03  0.76656970978E+01  0.86584393104E+02  0.14361857608E+03  0.00000000000E+00 0. -1.
          1    1    1    2  501    0 -0.16952281866E+03  0.12736798691E+02 -0.20035874946E+02  0.17117724256E+03  0.00000000000E+00 0. -1.
<scales pt_clust_3="46.09393" pt_clust_4="41.59332" pt_clust_5="14000.00000" pt_clust_6="127.04305"></scales>
<clustering>
<clus scale="   41.593">  2  4  1 -1</clus>
<clus scale="   46.094">  2  3  1 -1</clus>
<clus scale="  127.043">  2  6  1 -1</clus>
<clus scale="  127.043">  1  3  2 -1</clus>
</clustering>
</event>
<event>
 6    0  0.1622933E+002  0.6734773E+02  0.7546771E-02  0.1369352E+00
         21   -1    0    0  505  502  0.00000000000E+00  0.00000000000E+00  0.39138158805E+02  0.39138158805E+02  0.00000000000E+00 0. -1.
          2   -1    0    0  503    0 -0.00000000000E+00 -0.00000000000E+00 -0.11635596453E+04  0.11635596453E+04  0.00000000000E+00 0. -1.
         21    1    1    2  503  502 -0.10204559211E+03  0.74911441232E+01 -0.40747267159E+03  0.42012307507E+03  0.00000000000E+00 0. -1.
         21    1    1    2  504  501  0.36154311215E+02  0.28990402496E+02 -0.75285264902E+02  0.88405026824E+02  0.00000000000E+00 0. -1.
         21    1    1    2  505  504  0.36186263685E+02  0.18451780474E+02  0.80941484734E+01  0.41417739215E+02  0.00000000000E+00 0. -1.
          2    1    1    2  501    0  0.29705017215E+02 -0.54933327093E+02 -0.64975769846E+03  0.65275196298E+03  0.00000000000E+00 0. -1.
<scales pt_clust_3="67.34773" pt_clust_4="14000.00000" pt_clust_5="40.61913" pt_clust_6="62.69528"></scales>
<clustering>
<clus scale="   40.619">  1  5  2 -1</clus>
<clus scale="   62.695">  2  6  1 -1</clus>
<clus scale="   67.348">  2  3  1 -1</clus>
<clus scale="   40.619">  1  3  2 -1</clus>
</clustering>
</event>
<event>
 6    0  0.1622933E+002  0.1070984E+03  0.7546771E-02  0.1266040E+00
         21   -1    0    0  503  502  0.00000000000E+00  0.00000000000E+00  0.16440663004E+03  0.16440663004E+03  0.00000000000E+00 0.  1.
         -1   -1    0    0    0  501 -0.00000000000E+00 -0.00000000000E+00 -0.31632651949E+03  0.31632651949E+03  0.00000000000E+00 0. -1.
         21    1    1    2  503  501 -0.58235535326E+02  0.90067020292E+01 -0.56609343957E+02  0.81713622361E+02  0.00000000000E+00 0. -1.
         21    1    1    2  504  505  0.59292147634E+02 -0.48794434318E+02 -0.75864228848E+02  0.10794367425E+03  0.00000000000E+00 0. -1.
         21    1    1    2  505  502 -0.60890815272E+02  0.75036277405E+02  0.10862551171E+03  0.14538788157E+03  0.00000000000E+00 0.  1.
         -1    1    1    2    0  504  0.59834202965E+02 -0.35248545116E+02 -0.12807182836E+03  0.14568797135E+03  0.00000000000E+00 0. -1.
<scales pt_clust_3="58.92791" pt_clust_4="36.64413" pt_clust_5="99.92637" pt_clust_6="36.64413"></scales>
<clustering>
<clus scale="   36.644">  4  6 -1 -1</clus>
<clus scale="   58.928">  2  3  1 -1</clus>
<clus scale="   99.926">  1  5  2 -1</clus>
<clus scale="   99.926">  1  3  2 -1</clus>
</clustering>
</event>
<event>
 6    0  0.1622933E+002  0.7129207E+02  0.7546771E-02  0.1355754E+00
         21   -1    0    0  505  502  0.00000000000E+00  0.00000000000E+00  0.15095808831E+03  0.15095808831E+03  0.00000000000E+00 0. -1.
         -3   -1    0    0    0  501 -0.00000000000E+00 -0.00000000000E+00 -0.22804138804E+04  0.22804138804E+04  0.00000000000E+00 0. -1.
         21    1    1    2  503  501 -0.35418934224E+02  0.19751398576E+02 -0.96437234106E+02  0.10461720112E+03  0.00000000000E+00 0. -1.
         21    1    1    2  504  502 -0.55846796809E+02  0.43520149605E+02  0.13344957085E+03  0.15106838218E+03  0.00000000000E+00 0. -1.
         21    1    1    2  505  503 -0.39696454085E+02  0.11097986177E+02 -0.77415569188E+03  0.77525222285E+03  0.00000000000E+00 0. -1.
         -3    1    1    2    0  504  0.13096218512E+03 -0.74369534358E+02 -0.13923124370E+04  0.14004341626E+04  0.00000000000E+00 0. -1.
<scales pt_clust_3="40.55390" pt_clust_4="71.29207" pt_clust_5="55.33394" pt_clust_6="14000.00000"></scales>
<clustering>
<clus scale="   40.554">  2  3  1 -1</clus>
<clus scale="   55.334">  2  5  1 -1</clus>
<clus scale="   71.292">  1  4  2 -1</clus>
<clus scale="   71.292">  1  3  2 -1</clus>
</clustering>
</event>
<event>
 6    0  0.1622933E+002  0.8794982E+02  0.7546771E-02  0.1307894E+00
          2   -1    0    0  503    0 -0.00000000000E+00  0.00000000000E+00  0.55543768028E+03  0.55543768028E+03  0.00000000000E+00 0.  1.
         21   -1    0    0  504  502  0.00000000000E+00 -0.00000000000E+00 -0.56823683167E+02  0.56823683167E+02  0.00000000000E+00 0.  1.
         21    1    1    2  503  502 -0.18239445704E+02 -0.59886928729E+02  0.37446480755E+02  0.72947656118E+02  0.00000000000E+00 0.  1.
         21    1    1    2  504  505  0.44720203894E+02  0.30422132771E+01  0.40764717012E+01  0.45008547182E+02  0.00000000000E+00 0.  1.
         21    1    1    2  505  501  0.29829651072E+02  0.10780744790E+03  0.28702182251E+03  0.30804834118E+03  0.00000000000E+00 0.  1.
          2    1    1    2  501    0 -0.56310409261E+02 -0.50962732451E+02  0.17006922214E+03  0.18625681896E+03  0.00000000000E+00 0.  1.
<scales pt_clust_3="58.51213" pt_clust_4="44.82356" pt_clust_5="87.94982" pt_clust_6="14000.00000"></scales>
<clustering>
<clus scale="   44.824">  2  4  1 -1</clus>
<clus scale="   58.512">  2  3  1 -1</clus>
<clus scale="   87.950">  2  5  1 -1</clus>
<clus scale="   44.824">  2  3  1 -1</clus>
</clustering>
</event>
<event>
 6    0  0.1622933E+002  0.1162902E+03  0.7546771E-02  0.1249346E+00
         21   -1    0    0  501  502  0.00000000000E+00  0.00000000000E+00  0.18983575860E+03  0.18983575860E+03  0.00000000000E+00 0. -1.
          1   -1    0    0  503    0 -0.00000000000E+00 -0.00000000000E+00 -0.15070729613E+04  0.15070729613E+04  0.00000000000E+00 0.  1.
         21    1    1    2  503  504  0.10253188964E+02  0.11637606876E+03 -0.13369351064E+04  0.13420298044E+04  0.00000000000E+00 0.  1.
         21    1    1    2  504  505  0.23867600746E+02 -0.11333140087E+03 -0.11696130144E+03  0.16460138159E+03  0.00000000000E+00 0. -1.
         21    1    1    2  505  502 -0.16605119149E+02 -0.30741552997E+02  0.15064754639E+03  0.15464622949E+03  0.00000000000E+00 0. -1.
          1    1    1    2  501    0 -0.17515670561E+02  0.27696885109E+02 -0.13988341232E+02  0.35631304359E+02  0.00000000000E+00 0.  1.
<scales pt_clust_3="116.29020" pt_clust_4="14000.00000" pt_clust_5="32.33544" pt_clust_6="32.77066"></scales>
<clustering>
<clus scale="   32.771">  1  6  2 -1</clus>
<clus scale="   32.335">  1  5  2 -1</clus>
<clus scale="  116.290">  2  3  1 -1</clus>
<clus scale="   32.771">  1  3  2 -1</clus>
</clustering>
</event>
<event>
 6    0  0.1622933E+002  0.1776414E+03  0.7546771E-02  0.1170105E+00
          1   -1    0    0  504    0 -0.00000000000E+00  0.00000000000E+00  0.20931520840E+03  0.20931520840E+03  0.00000000000E+00 0. -1.
         21   -1    0    0  505  502  0.00000000000E+00 -0.00000000000E+00 -0.52192693948E+03  0.52192693948E+03  0.00000000000E+00 0. -1.
         21    1    1    2  503  502  0.15835328384E+02  0.31120225323E+02 -0.20805649233E+02  0.40646046415E+02  0.00000000000E+00 0.  1.
         21    1    1    2  504  503  0.35929523697E+02  0.22428355034E+02  0.43540074904E+01  0.42578388460E+02  0.00000000000E+00 0.  1.
         21    1    1    2  505  501 -0.67692200726E+02 -0.17224059704E+03 -0.43017336118E+03  0.46829283357E+03  0.00000000000E+00 0. -1.
          1    1    1    2  501    0  0.15927348646E+02  0.11869201668E+03  0.13401327184E+03  0.17972487943E+03  0.00000000000E+00 0. -1.
<scales pt_clust_3="30.23118" pt_clust_4="81.58217" pt_clust_5="14000.00000" pt_clust_6="177.64139"></scales>
<clustering>
<clus scale="   30.231">  3  4 -1 -1</clus>
<clus scale="   81.582">  1  3  2 -1</clus>
<clus scale="  177.641">  1  6  2 -1</clus>
<clus scale="  177.641">  2  3  1 -1</clus>
</clustering>
</event>
<event>
 6    0  0.1622933E+002  0.1062091E+03  0.7546771E-02  0.1267755E+00
         21   -1    0    0  503  502  0.00000000000E+00  0.00000000000E+00  0.14656648138E+03  0.14656648138E+03  0.00000000000E+00 0. -1.
          1   -1    0    0  505    0 -0.00000000000E+00 -0.00000000000E+00 -0.12947140990E+04  0.12947140990E+04  0.00000000000E+00 0.  1.
         21    1    1    2  503  501 -0.10704433279E+03  0.36494497410E+01  0.11807862579E+03  0.15941884937E+03  0.00000000000E+00 0. -1.
         21    1    1    2  504  502  0.43807944992E+02  0.40736373810E+02 -0.17779210910E+03  0.18758630615E+03  0.00000000000E+00 0. -1.
         21    1    1    2  505  504 -0.80345113334E+00 -0.30656512279E+02 -0.12846661844E+03  0.13207626332E+03  0.00000000000E+00 0. -1.
          1    1    1    2  501    0  0.64039838935E+02 -0.13729311272E+02 -0.95996751588E+03  0.96219916155E+03  0.00000000000E+00 0.  1.
<scales pt_clust_3="106.20913" pt_clust_4="56.55823" pt_clust_5="30.66704" pt_clust_6="14000.00000"></scales>
<clustering>
<clus scale="   30.667">  2  5  1 -1</clus>
<clus scale="   56.558">  2  4  1 -1</clus>
<clus scale="  106.209">  1  3  2 -1</clus>
<clus scale="  106.209">  1  3  2 -1</clus>
</clustering>
</event>
<event>
 6    0  0.1622933E+002  0.1476781E+03  0.7546771E-02  0.1203355E+00
         21   -1    0    0  501  502  0.00000000000E+00  0.00000000000E+00  0.18685152235E+03  0.18685152235E+03  0.00000000000E+00 0.  1.
          1   -1    0    0  505    0 -0.00000000000E+00 -0.00000000000E+00 -0.91952418420E+03  0.91952418420E+03  0.00000000000E+00 0.  1.
         21    1    1    2  503  502 -0.73886734579E+02 -0.94171315905E+02  0.14134267184E+03  0.18521673026E+03  0.00000000000E+00 0.  1.
         21    1    1    2  504  503  0.83473849514E+02  0.96118350871E+02 -0.25985527094E+03  0.28936375509E+03  0.00000000000E+00 0.  1.
         21    1    1    2  505  504 -0.10272262031E+01  0.71755516355E+02 -0.24703794029E+03  0.25725017641E+03  0.00000000000E+00 0.  1.
          1    1    1    2  501    0 -0.85598887324E+01 -0.73702551321E+02 -0.36712212246E+03  0.37454504478E+03  0.00000000000E+00 0.  1.
<scales pt_clust_3="122.23684" pt_clust_4="62.21709" pt_clust_5="62.21709" pt_clust_6="74.19796"></scales>
<clustering>
<clus scale="   62.217">  4  5 -1 -1</clus>
<clus scale="   74.198">  2  6  1 -1</clus>
<clus scale="  122.237">  1  3  2 -1</clus>
<clus scale="  122.237">  1  3  2 -1</clus>
</clustering>
</event>
<event>
 6    0  0.1622933E+002  0.1115773E+03  0.7546771E-02  0.1257677E+00
          2   -1    0    0  503    0 -0.00000000000E+00  0.00000000000E+00  0.13658177097E+04  0.13658177097E+04  0.00000000000E+00 0.  1.
         21   -1    0    0  501  502  0.00000000000E+00 -0.00000000000E+00 -0.34442117270E+02  0.34442117270E+02  0.00000000000E+00 0.  1.
         21    1    1    2  503  504  0.85977095538E+02 -0.91467807400E+02  0.90664668575E+03  0.91529592675E+03  0.00000000000E+00 0.  1.
         21    1    1    2  504  505 -0.85520929801E+02 -0.11973061737E+02  0.87125242092E+02  0.12267025496E+03  0.00000000000E+00 0.  1.
         21    1    1    2  505  502  0.31839858731E+02  0.91544920964E+02  0.24236345779E+03  0.26102546778E+03  0.00000000000E+00 0.  1.
          2    1    1    2  501    0 -0.32296024468E+02  0.11895948173E+02  0.95240206787E+02  0.10126817747E+03  0.00000000000E+00 0.  1.
<scales pt_clust_3="111.57731" pt_clust_4="14000.00000" pt_clust_5="97.64588" pt_clust_6="34.41725"></scales>
<clustering>
<clus scale="   34.417">  2  6  1 -1</clus>
<clus scale="   97.646">  2  5  1 -1</clus>
<clus scale="  111.577">  1  3  2 -1</clus>
<clus scale="   34.417">  2  3  1 -1</clus>
</clustering>
</event>
<event>
 6    0  0.1622933E+002  0.9588178E+02  0.7546771E-02  0.1289202E+00
          1   -1    0    0  505    0 -0.00000000000E+00  0.00000000000E+00  0.78387656203E+03  0.78387656203E+03  0.00000000000E+00 0.  1.
         21   -1    0    0  503  502  0.00000000000E+00 -0.00000000000E+00 -0.11786289355E+03  0.11786289355E+03  0.00000000000E+00 0.  1.
         21    1    1    2  503  501 -0.39830726246E+02  0.88860252928E+02 -0.79097616611E+02  0.12545542737E+03  0.00000000000E+00 0.  1.
         21    1    1    2  504  502  0.49577864180E+02 -0.20386914586E+02  0.68715030384E+02  0.87151284004E+02  0.00000000000E+00 0. -1.
         21    1    1    2  505  504 -0.50080528744E+02 -0.18374216360E+02  0.15801109184E+03  0.16677282852E+03  0.00000000000E+00 0. -1.
          1    1    1    2  501    0  0.40333390810E+02 -0.50099121982E+02  0.51838516287E+03  0.52235991569E+03  0.00000000000E+00 0.  1.
<scales pt_clust_3="14000.00000" pt_clust_4="48.88339" pt_clust_5="53.34483" pt_clust_6="95.88178"></scales>
<clustering>
<clus scale="   53.345">  1  5  2 -1</clus>
<clus scale="   48.883">  1  4  2 -1</clus>
<clus scale="   95.882">  1  6  2 -1</clus>
<clus scale="   95.882">  2  3  1 -1</clus>
</clustering>
</event>
<event>
 6    0  0.1622933E+002  0.2912685E+03  0.7546771E-02  0.1089689E+00
         21   -1    0    0  504  502  0.00000000000E+00  0.00000000000E+00  0.27873929876E+03  0.27873929876E+03  0.00000000000E+00 0.  1.
         -1   -1    0    0    0  501 -0.00000000000E+00 -0.00000000000E+00 -0.18838467178E+04  0.18838467178E+04  0.00000000000E+00 0. -1.
         21    1    1    2  503  502  0.19815310871E+03  0.92696437311E+02 -0.47005181868E+03  0.51846503858E+03  0.00000000000E+00 0. -1.
         21    1    1    2  504  505 -0.13797592355E+03 -0.15393624112E+03  0.17040879691E+03  0.26790460966E+03  0.00000000000E+00 0.  1.
         21    1    1    2  505  501 -0.21485718846E+03 -0.75345571088E+02 -0.74245618885E+03  0.77658338823E+03  0.00000000000E+00 0.  1.
         -1    1    1    2    0  503  0.15468000330E+03  0.13658537490E+03 -0.56300820846E+03  0.59963298012E+03  0.00000000000E+00 0. -1.
<scales pt_clust_3="74.40344" pt_clust_4="206.72136" pt_clust_5="281.01345" pt_clust_6="74.40344"></scales>
<clustering>
<clus scale="   74.403">  3  6 -1 -1</clus>
<clus scale="  206.721">  1  4  2 -1</clus>
<clus scale="  281.013">  2  5  1 -1</clus>
<clus scale="  206.721">  1  3  2 -1</clus>
</clustering>
</event>
<event>
 6    0  0.1622933E+002  0.3860803E+03  0.7546771E-02  0.1048709E+00
         21   -1    0    0  505  502  0.00000000000E+00  0.00000000000E+00  0.38853426370E+03  0.38853426370E+03  0.00000000000E+00 0.  1.
          2   -1    0    0  504    0 -0.00000000000E+00 -0.00000000000E+00 -0.60532671352E+03  0.60532671352E+03  0.00000000000E+00 0. -1.
         21    1    1    2  503  502 -0.26782253139E+02 -0.26853674243E+02 -0.17323508853E+02  0.41695477723E+02  0.00000000000E+00 0. -1.
         21    1    1    2  504  503  0.27589173052E+02  0.16244862749E+02 -0.96053440930E+02  0.10124881012E+03  0.00000000000E+00 0.  1.
         21    1    1    2  505  501 -0.25013562700E+03  0.29745193814E+03  0.12408250583E+03  0.40797298397E+03  0.00000000000E+00 0.  1.
          2    1    1    2  501    0  0.24932870708E+03 -0.28684312665E+03 -0.22749800587E+03  0.44294370540E+03  0.00000000000E+00 0. -1.
<scales pt_clust_3="36.12483" pt_clust_4="32.01653" pt_clust_5="386.08028" pt_clust_6="14000.00000"></scales>
<clustering>
<clus scale="   32.017">  2  4  1 -1</clus>
<clus scale="   36.125">  2  3  1 -1</clus>
<clus scale="  386.080">  1  5  2 -1</clus>
<clus scale="  386.080">  1  3  2 -1</clus>
</clustering>
</event>
<event>
 6    0  0.1622933E+002  0.9892981E+02  0.7546771E-02  0.1282563E+00
         21   -1    0    0  501  502  0.00000000000E+00  0.00000000000E+00  0.54508168437E+02  0.54508168437E+02  0.00000000000E+00 0.  1.
          2   -1    0    0  503    0 -0.00000000000E+00 -0.00000000000E+00 -0.13104979353E+04  0.13104979353E+04  0.00000000000E+00 0.  1.
         21    1    1    2  503  504  0.78053273006E+02 -0.13269378767E+02 -0.49395218442E+03  0.50025708424E+03  0.00000000000E+00 0.  1.
         21    1    1    2  504  505  0.37504370131E+02  0.16026357241E+02 -0.82073847103E+02  0.91648994996E+02  0.00000000000E+00 0.  1.
         21    1    1    2  505  502  0.34894836447E+02  0.64252656479E+01  0.30520751328E+02  0.46802242585E+02  0.00000000000E+00 0.  1.
          2    1    1    2  501    0 -0.15045247958E+03 -0.91822441224E+01 -0.71048448669E+03  0.72629778194E+03  0.00000000000E+00 0.  1.
<scales pt_clust_3="98.92981" pt_clust_4="51.29642" pt_clust_5="35.48146" pt_clust_6="14000.00000"></scales>
<clustering>
<clus scale="   35.481">  1  5  2 -1</clus>
<clus scale="   51.296">  1  4  2 -1</clus>
<clus scale="   98.930">  2  3  1 -1</clus>
<clus scale="   35.481">  1  3  2 -1</clus>
</clustering>
</event>
<event>
 6    0  0.1622933E+002  0.1451922E+03  0.7546771E-02  0.1206508E+00
          2   -1    0    0  505    0 -0.00000000000E+00  0.00000000000E+00  0.17729674023E+04  0.17729674023E+04  0.00000000000E+00 0. -1.
         21   -1    0    0  504  502  0.00000000000E+00 -0.00000000000E+00 -0.23354514660E+03  0.23354514660E+03  0.00000000000E+00 0. -1.
         21    1    1    2  503  502  0.26316157302E+02  0.88839583228E+02  0.12808695302E+03  0.15808630307E+03  0.00000000000E+00 0. -1.
         21    1    1    2  504  501 -0.13691056206E+03 -0.57842232597E+02 -0.18522698816E+03  0.23748529010E+03  0.00000000000E+00 0. -1.
         21    1    1    2  505  503  0.26467485265E+02  0.70544057266E+02  0.79975007292E+03  0.80329146075E+03  0.00000000000E+00 0. -1.
          2    1    1    2  501    0  0.84126919487E+02 -0.10154140790E+03  0.79681221792E+03  0.80764949497E+03  0.00000000000E+00 0. -1.
<scales pt_clust_3="103.72826" pt_clust_4="14000.00000" pt_clust_5="75.34581" pt_clust_6="145.19218"></scales>
<clustering>
<clus scale="   75.346">  1  5  2 -1</clus>
<clus scale="  103.728">  1  3  2 -1</clus>
<clus scale="  145.192">  1  6  2 -1</clus>
<clus scale="  145.192">  2  3  1 -1</clus>
</clustering>
</event>
<event>
 6    0  0.1622933E+002  0.4086178E+03  0.7546771E-02  0.1040836E+00
          1   -1    0    0  504    0 -0.00000000000E+00  0.00000000000E+00  0.88029340339E+03  0.88029340339E+03  0.00000000000E+00 0. -1.
         21   -1    0    0  505  502  0.00000000000E+00 -0.00000000000E+00 -0.30191683888E+03  0.30191683888E+03  0.00000000000E+00 0. -1.
         21    1    1    2  503  501  0.11434053280E+03  0.18040816107E+02 -0.10895409549E+02  0.11626666950E+03  0.00000000000E+00 0.  1.
         21    1    1    2  504  502 -0.36046006235E+03  0.14582009490E+03  0.17935518878E+03  0.42820934176E+03  0.00000000000E+00 0.  1.
         21    1    1    2  505  503  0.29619405319E+03 -0.62029766686E+01  0.15636019432E+03  0.33498940943E+03  0.00000000000E+00 0. -1.
          1    1    1    2  501    0 -0.50074523639E+02 -0.15765793434E+03  0.25355659095E+03  0.30274482158E+03  0.00000000000E+00 0. -1.
<scales pt_clust_3="73.41211" pt_clust_4="391.37612" pt_clust_5="73.41211" pt_clust_6="165.41911"></scales>
<clustering>
<clus scale="   73.412">  3  5 -1 -1</clus>
<clus scale="  165.419">  1  6  2 -1</clus>
<clus scale="  391.376">  1  4  2 -1</clus>
<clus scale="  408.618">  2  3  1 -1</clus>
</clustering>
</event>
<event>
 6    0  0.1622933E+002  0.7050915E+02  0.7546771E-02  0.1358370E+00
          2   -1    0    0  503    0 -0.00000000000E+00  0.00000000000E+00  0.16092831237E+04  0.16092831237E+04  0.00000000000E+00 0.  1.
         21   -1    0    0  504  502  0.00000000000E+00 -0.00000000000E+00 -0.27963247760E+02  0.27963247760E+02  0.00000000000E+00 0. -1.
         21    1    1    2  503  505  0.41124914263E+02  0.56965837169E+02  0.76641400674E+03  0.76962769889E+03  0.00000000000E+00 0.  1.
         21    1    1    2  504  501  0.13399503670E+02 -0.60366893461E+02  0.44992857503E+03  0.45415793635E+03  0.00000000000E+00 0. -1.
         21    1    1    2  505  502  0.19099392657E+01  0.49385429215E+02  0.91487953052E+01  0.50262002967E+02  0.00000000000E+00 0. -1.
          2    1    1    2  501    0 -0.56434357199E+02 -0.45984372923E+02  0.35582849883E+03  0.36319873321E+03  0.00000000000E+00 0.  1.
<scales pt_clust_3="14000.00000" pt_clust_4="48.32260" pt_clust_5="49.42235" pt_clust_6="70.50915"></scales>
<clustering>
<clus scale="   49.422">  2  5  1 -1</clus>
<clus scale="   48.323">  2  4  1 -1</clus>
<clus scale="   70.509">  2  6  1 -1</clus>
<clus scale="   49.422">  2  3  1 -1</clus>
</clustering>
</event>
<event>
 6    0  0.1622933E+002  0.1217409E+03  0.7546771E-02  0.1240253E+00
         21   -1    0    0  503  502  0.00000000000E+00  0.00000000000E+00  0.70517063446E+02  0.70517063446E+02  0.00000000000E+00 0. -1.
         -2   -1    0    0    0  501 -0.00000000000E+00 -0.00000000000E+00 -0.96625155762E+03  0.96625155762E+03  0.00000000000E+00 0. -1.
         21    1    1    2  503  505  0.29597520504E+02  0.20406588942E+02  0.20044044622E+02  0.41160731493E+02  0.00000000000E+00 0. -1.
         21    1    1    2  504  501  0.35960582478E+01 -0.65748409382E+02 -0.49691963671E+03  0.50126331436E+03  0.00000000000E+00 0. -1.
         21    1    1    2  505  504  0.90780105736E+02  0.56115660790E+02 -0.80060761925E+02  0.13341559348E+03  0.00000000000E+00 0. -1.
         -2    1    1    2    0  502 -0.12397368449E+03 -0.10773840349E+02 -0.33879814016E+03  0.36092898173E+03  0.00000000000E+00 0. -1.
<scales pt_clust_3="35.95055" pt_clust_4="64.84740" pt_clust_5="14000.00000" pt_clust_6="121.74086"></scales>
<clustering>
<clus scale="   35.951">  1  3  2 -1</clus>
<clus scale="   64.847">  2  4  1 -1</clus>
<clus scale="  121.741">  2  6  1 -1</clus>
<clus scale="   35.951">  1  3  2 -1</clus>
</clustering>
</event>
<event>
 6    0  0.1622933E+002  0.9291495E+02  0.7546771E-02  0.1295942E+00
          1   -1    0    0  503    0 -0.00000000000E+00  0.00000000000E+00  0.33334570374E+04  0.33334570374E+04  0.00000000000E+00 0.  1.
         21   -1    0    0  505  502  0.00000000000E+00 -0.00000000000E+00 -0.22279217309E+03  0.22279217309E+03  0.00000000000E+00 0.  1.
         21    1    1    2  503  504  0.99088673168E+02  0.58101580978E+02  0.10993069653E+03  0.15899407819E+03  0.00000000000E+00 0. -1.
         21    1    1    2  504  502 -0.27809751979E+02 -0.25585500921E+02 -0.18235860236E+03  0.18623281133E+03  0.00000000000E+00 0.  1.
         21    1    1    2  505  501 -0.38947244643E+02  0.54689083531E+02  0.71655016014E+02  0.98194832057E+02  0.00000000000E+00 0. -1.
          1    1    1    2  501    0 -0.32331676546E+02 -0.87205163587E+02  0.31114377541E+04  0.31128274889E+04  0.00000000000E+00 0.  1.
<scales pt_clust_3="14000.00000" pt_clust_4="37.78889" pt_clust_5="66.77960" pt_clust_6="92.91495"></scales>
<clustering>
<clus scale="   37.789">  2  4  1 -1</clus>
<clus scale="   66.780">  2  5  1 -1</clus>
<clus scale="   92.915">  1  6  2 -1</clus>
<clus scale="   37.789">  2  3  1 -1</clus>
</clustering>
</event>
<event>
 6    0  0.1622933E+002  0.1673132E+03  0.7546771E-02  0.1180679E+00
         21   -1    0    0  501  502  0.00000000000E+00  0.00000000000E+00  0.11080430273E+04  0.11080430273E+04  0.00000000000E+00 0.  1.
          1   -1    0    0  505    0 -0.00000000000E+00 -0.00000000000E+00 -0.96379047856E+02  0.96379047856E+02  0.00000000000E+00 0.  1.
         21    1    1    2  503  504 -0.10584024271E+03  0.16367233508E+03  0.64915006047E+03  0.67778063653E+03  0.00000000000E+00 0.  1.
         21    1    1    2  504  502 -0.34601847190E+02 -0.30127828403E+02  0.11156073088E+03  0.12062657480E+03  0.00000000000E+00 0.  1.
         21    1    1    2  505  503  0.10231757307E+02 -0.65962061581E+02 -0.41660669318E+02  0.78684774853E+02  0.00000000000E+00 0.  1.
          1    1    1    2  501    0  0.13021033259E+03 -0.67582445094E+02  0.29261385742E+03  0.32733008898E+03  0.00000000000E+00 0.  1.
<scales pt_clust_3="14000.00000" pt_clust_4="45.87999" pt_clust_5="67.21143" pt_clust_6="167.31315"></scales>
<clustering>
<clus scale="   45.880">  1  4  2 -1</clus>
<clus scale="   67.211">  2  5  1 -1</clus>
<clus scale="  167.313">  2  6  1 -1</clus>
<clus scale="   45.880">  1  3  2 -1</clus>
</clustering>
</event>
<event>
 6    0  0.1622933E+002  0.1194164E+03  0.7546771E-02  0.1244063E+00
         21   -1    0    0  503  502  0.00000000000E+00  0.00000000000E+00  0.22664357854E+02  0.22664357854E+02  0.00000000000E+00 0.  1.
          1   -1    0    0  505    0 -0.00000000000E+00 -0.00000000000E+00 -0.20180350921E+04  0.20180350921E+04  0.00000000000E+00 0. -1.
         21    1    1    2  503  501 -0.52940346819E+02  0.58854458418E+02 -0.10567447039E+04  0.10597055709E+04  0.00000000000E+00 0. -1.
         21    1    1    2  504  502  0.32704094103E+02 -0.10223706764E+03 -0.15116046694E+03  0.18539542210E+03  0.00000000000E+00 0.  1.
         21    1    1    2  505  504  0.53195830500E+02 -0.65905770352E+01 -0.37399357978E+03  0.37781533823E+03  0.00000000000E+00 0. -1.
          1    1    1    2  501    0 -0.32959577783E+02  0.49973186257E+02 -0.41347198356E+03  0.41778311873E+03  0.00000000000E+00 0. -1.
<scales pt_clust_3="40.91299" pt_clust_4="109.75792" pt_clust_5="53.60254" pt_clust_6="40.91299"></scales>
<clustering>
<clus scale="   40.913">  3  6 -1 -1</clus>
<clus scale="   53.603">  2  5  1 -1</clus>
<clus scale="  109.758">  1  4  2 -1</clus>
<clus scale="  109.758">  1  3  2 -1</clus>
</clustering>
</event>
<event>
 6    0  0.1622933E+002  0.9972325E+02  0.7546771E-02  0.1280879E+00
          1   -1    0    0  505    0 -0.00000000000E+00  0.00000000000E+00  0.10566377053E+04  0.10566377053E+04  0.00000000000E+00 0. -1.
         21   -1    0    0  503  502  0.00000000000E+00 -0.00000000000E+00 -0.57447447978E+03  0.57447447978E+03  0.00000000000E+00 0.  1.
         21    1    1    2  503  501 -0.92507962170E+02  0.36651340124E+02 -0.55357887885E+03  0.56245054796E+03  0.00000000000E+00 0.  1.
         21    1    1    2  504  502  0.14153862850E+02  0.49306718472E+02  0.27460113713E+03  0.27935151482E+03  0.00000000000E+00 0. -1.
         21    1    1    2  505  504 -0.23036259656E+02  0.26032023380E+02  0.42222110350E+02  0.54690420574E+02  0.00000000000E+00 0.  1.
          1    1    1    2  501    0  0.10139035898E+03 -0.11199008198E+03  0.71891885689E+03  0.73461970171E+03  0.00000000000E+00 0. -1.
<scales pt_clust_3="14000.00000" pt_clust_4="56.99816" pt_clust_5="34.76112" pt_clust_6="99.72325"></scales>
<clustering>
<clus scale="   34.761">  1  5  2 -1</clus>
<clus scale="   56.998">  1  4  2 -1</clus>
<clus scale="   99.723">  1  6  2 -1</clus>
<clus scale="   99.723">  2  3  1 -1</clus>
</clustering>
</event>
<event>
 6    0  0.1622933E+002  0.1245518E+03  0.7546771E-02  0.1235771E+00
          2   -1    0    0  504    0 -0.00000000000E+00  0.00000000000E+00  0.22391579317E+04  0.22391579317E+04  0.00000000000E+00 0. -1.
         21   -1    0    0  503  502  0.00000000000E+00 -0.00000000000E+00 -0.66299134592E+02  0.66299134592E+02  0.00000000000E+00 0.  1.
         21    1    1    2  503  505  0.34669011960E+02 -0.29536997301E+02 -0.39581933780E+02  0.60341561810E+02  0.00000000000E+00 0.  1.
         21    1    1    2  504  502  0.67826663102E+01  0.46601322508E+02  0.74866611014E+03  0.75014574070E+03  0.00000000000E+00 0. -1.
         21    1    1    2  505  501  0.93795703751E+02 -0.16941286091E+02  0.17633955120E+03  0.20045018966E+03  0.00000000000E+00 0.  1.
          2    1    1    2  501    0 -0.13524738202E+03 -0.12303911605E+00  0.12874350696E+04  0.12945195741E+04  0.00000000000E+00 0. -1.
<scales pt_clust_3="45.54530" pt_clust_4="46.02799" pt_clust_5="14000.00000" pt_clust_6="124.55185"></scales>
<clustering>
<clus scale="   45.545">  2  3  1 -1</clus>
<clus scale="   46.028">  1  4  2 -1</clus>
<clus scale="  124.552">  1  6  2 -1</clus>
<clus scale="   45.545">  2  3  1 -1</clus>
</clustering>
</event>
<event>
 6    0  0.1622933E+002  0.8822758E+02  0.7546771E-02  0.1307202E+00
         21   -1    0    0  501  502  0.00000000000E+00  0.00000000000E+00  0.10363895509E+03  0.10363895509E+03  0.00000000000E+00 0. -1.
          2   -1    0    0  503    0 -0.00000000000E+00 -0.00000000000E+00 -0.11346008522E+04  0.11346008522E+04  0.00000000000E+00 0. -1.
         21    1    1    2  503  504  0.85137188486E+02  0.46790928464E+01 -0.51004636860E+03  0.51712429154E+03  0.00000000000E+00 0. -1.
         21    1    1    2  504  505 -0.78109814929E+02  0.24999840937E+02 -0.14416940068E+03  0.16586425572E+03  0.00000000000E+00 0. -1.
         21    1    1    2  505  502 -0.80823862664E+01  0.32530781891E+02  0.83938600147E+02  0.90383988255E+02  0.00000000000E+00 0. -1.
          2    1    1    2  501    0  0.10550127092E+01 -0.62209715674E+02 -0.46068472794E+03  0.46486727174E+03  0.00000000000E+00 0. -1.
<scales pt_clust_3="88.22758" pt_clust_4="14000.00000" pt_clust_5="33.51980" pt_clust_6="58.08106"></scales>
<clustering>
<clus scale="   33.520">  1  5  2 -1</clus>
<clus scale="   58.081">  2  6  1 -1</clus>
<clus scale="   88.228">  2  3  1 -1</clus>
<clus scale="   33.520">  1  3  2 -1</clus>
</clustering>
</event>
<event>
 6    0  0.1622933E+002  0.2169195E+03  0.7546771E-02  0.1136201E+00
         -2   -1    0    0    0  501 -0.00000000000E+00  0.00000000000E+00  0.29314900776E+03  0.29314900776E+03  0.00000000000E+00 0.  1.
         21   -1    0    0  503  502  0.00000000000E+00 -0.00000000000E+00 -0.16564119279E+04  0.16564119279E+04  0.00000000000E+00 0.  1.
         21    1    1    2  503  501  0.99081210505E+02  0.45489778212E+01  0.13852533236E+03  0.17037325841E+03  0.00000000000E+00 0.  1.
         21    1    1    2  504  505 -0.28907543491E+03 -0.11474854801E+03 -0.20682354107E+03  0.37350744769E+03  0.00000000000E+00 0.  1.
         21    1    1    2  505  502  0.58326619890E+02  0.40011976986E+02 -0.12469264727E+04  0.12489309753E+04  0.00000000000E+00 0.  1.
         -2    1    1    2    0  504  0.13166760451E+03  0.70187593206E+02 -0.48038238754E+02  0.15674925423E+03  0.00000000000E+00 0.  1.
<scales pt_clust_3="101.53889" pt_clust_4="14000.00000" pt_clust_5="70.73156" pt_clust_6="216.91946"></scales>
<clustering>
<clus scale="   70.732">  2  5  1 -1</clus>
<clus scale="  101.539">  1  3  2 -1</clus>
<clus scale="  216.919">  1  6  2 -1</clus>
<clus scale="   70.732">  2  3  1 -1</clus>
</clustering>
</event>
<event>
 6    0  0.1622933E+002  0.8302051E+02  0.7546771E-02  0.1320692E+00
         21   -1    0    0  504  502  0.00000000000E+00  0.00000000000E+00  0.75155199757E+02  0.75155199757E+02  0.00000000000E+00 0.  1.
          1   -1    0    0  505    0 -0.00000000000E+00 -0.00000000000E+00 -0.45260206861E+03  0.45260206861E+03  0.00000000000E+00 0.  1.
         21    1    1    2  503  502 -0.22812842768E+02 -0.53234038877E+02  0.28666074250E+02  0.64622229173E+02  0.00000000000E+00 0.  1.
         21    1    1    2  504  501 -0.43452658396E+02 -0.34971126760E+02 -0.81956389486E+02  0.99136083270E+02  0.00000000000E+00 0.  1.
         21    1    1    2  505  503  0.99982846882E+02  0.73697702361E+02 -0.20888572582E+03  0.24302503462E+03  0.00000000000E+00 0.  1.
          1    1    1    2  501    0 -0.33717345718E+02  0.14507463277E+02 -0.11527082780E+03  0.12097392130E+03  0.00000000000E+00 0.  1.
<scales pt_clust_3="57.94694" pt_clust_4="83.02051" pt_clust_5="14000.00000" pt_clust_6="36.70594"></scales>
<clustering>
<clus scale="   36.706">  2  6  1 -1</clus>
<clus scale="   57.947">  1  3  2 -1</clus>
<clus scale="   83.021">  2  4  1 -1</clus>
<clus scale="   57.947">  1  3  2 -1</clus>
</clustering>
</event>
<event>
 6    0  0.1622933E+002  0.7121100E+02  0.7546771E-02  0.1356023E+00
         21   -1    0    0  503  502  0.00000000000E+00  0.00000000000E+00  0.37465033866E+02  0.37465033866E+02  0.00000000000E+00 0.  1.
          2   -1    0    0  505    0 -0.00000000000E+00 -0.00000000000E+00 -0.97793402496E+03  0.97793402496E+03  0.00000000000E+00 0.  1.
         21    1    1    2  503  501 -0.91937124830E+01 -0.65440123284E+02 -0.16959982681E+03  0.18201932683E+03  0.00000000000E+00 0.  1.
         21    1    1    2  504  502 -0.39297688418E+02  0.35376835663E+02 -0.61952169736E+01  0.53237294539E+02  0.00000000000E+00 0.  1.
         21    1    1    2  505  504 -0.29867212501E+02  0.62831052421E+02 -0.35688055542E+03  0.36359802306E+03  0.00000000000E+00 0.  1.
          2    1    1    2  501    0  0.78358613402E+02 -0.32767764800E+02 -0.40779339189E+03  0.41654441440E+03  0.00000000000E+00 0.  1.
<scales pt_clust_3="56.40253" pt_clust_4="52.87560" pt_clust_5="71.21100" pt_clust_6="14000.00000"></scales>
<clustering>
<clus scale="   52.876">  1  4  2 -1</clus>
<clus scale="   56.403">  1  3  2 -1</clus>
<clus scale="   71.211">  2  5  1 -1</clus>
<clus scale="   52.876">  1  3  2 -1</clus>
</clustering>
</event>
<event>
 6    0  0.1622933E+002  0.1158739E+03  0.7546771E-02  0.1250063E+00
         21   -1    0    0  501  502  0.00000000000E+00  0.00000000000E+00  0.34930941144E+02  0.34930941144E+02  0.00000000000E+00 0. -1.
          2   -1    0    0  504    0 -0.00000000000E+00 -0.00000000000E+00 -0.22695232056E+04  0.22695232056E+04  0.00000000000E+00 0.  1.
         21    1    1    2  503  505  0.10167855660E+03  0.20001389892E+02 -0.65236793080E+03  0.66054712293E+03  0.00000000000E+00 0. -1.
         21    1    1    2  504  503 -0.48143327853E+02  0.25685610343E+01 -0.21321818461E+03  0.21860094183E+03  0.00000000000E+00 0. -1.
         21    1    1    2  505  502  0.56049295238E+02  0.29771272956E+02 -0.14157203547E+02  0.65025215128E+02  0.00000000000E+00 0. -1.
          2    1    1    2  501    0 -0.10958452398E+03 -0.52341223883E+02 -0.13548489455E+04  0.13602808669E+04  0.00000000000E+00 0.  1.
<scales pt_clust_3="115.87388" pt_clust_4="48.21180" pt_clust_5="62.67073" pt_clust_6="14000.00000"></scales>
<clustering>
<clus scale="   48.212">  2  4  1 -1</clus>
<clus scale="   62.671">  1  5  2 -1</clus>
<clus scale="  115.874">  2  3  1 -1</clus>
<clus scale="   62.671">  1  3  2 -1</clus>
</clustering>
</event>
<event>
 6    0  0.1622933E+002  0.2068533E+03  0.7546771E-02  0.1144082E+00
         21   -1    0    0  503  502  0.00000000000E+00  0.00000000000E+00  0.58593662646E+02  0.58593662646E+02  0.00000000000E+00 0.  1.
          2   -1    0    0  505    0 -0.00000000000E+00 -0.00000000000E+00 -0.21781521109E+04  0.21781521109E+04  0.00000000000E+00 0.  1.
         21    1    1    2  503  501  0.76171163460E+01  0.30113983536E+02  0.14377059832E+02  0.34228238565E+02  0.00000000000E+00 0.  1.
         21    1    1    2  504  502  0.10287321442E+03  0.13050216280E+03 -0.52955067534E+03  0.55501137871E+03  0.00000000000E+00 0.  1.
         21    1    1    2  505  504 -0.75426695253E+01  0.87232679042E+02 -0.65810965884E+03  0.66390869494E+03  0.00000000000E+00 0. -1.
          2    1    1    2  501    0 -0.10294766124E+03 -0.24784882538E+03 -0.94627517392E+03  0.98359746135E+03  0.00000000000E+00 0.  1.
<scales pt_clust_3="31.06240" pt_clust_4="14000.00000" pt_clust_5="90.04366" pt_clust_6="206.85328"></scales>
<clustering>
<clus scale="   31.062">  1  3  2 -1</clus>
<clus scale="   90.044">  2  5  1 -1</clus>
<clus scale="  206.853">  2  6  1 -1</clus>
<clus scale="   31.062">  1  3  2 -1</clus>
</clustering>
</event>
<event>
 6    0  0.1622933E+002  0.1124237E+03  0.7546771E-02  0.1256146E+00
          2   -1    0    0  505    0 -0.00000000000E+00  0.00000000000E+00  0.17118393988E+04  0.17118393988E+04  0.00000000000E+00 0. -1.
         21   -1    0    0  504  502  0.00000000000E+00 -0.00000000000E+00 -0.68444014792E+03  0.68444014792E+03  0.00000000000E+00 0. -1.
         21    1    1    2  503  502  0.71602837970E+02  0.37710489975E+02  0.10730316156E+03  0.13439872001E+03  0.00000000000E+00 0.  1.
         21    1    1    2  504  501  0.96291768343E+02  0.57581217694E+02 -0.65895953955E+03  0.66844250018E+03  0.00000000000E+00 0. -1.
         21    1    1    2  505  503 -0.30424502044E+02  0.18105231817E+02  0.26331138671E+03  0.26568089151E+03  0.00000000000E+00 0. -1.
          2    1    1    2  501    0 -0.13747010427E+03 -0.11339693949E+03  0.13157442422E+04  0.13277574350E+04  0.00000000000E+00 0. -1.
<scales pt_clust_3="79.42295" pt_clust_4="14000.00000" pt_clust_5="35.40409" pt_clust_6="112.42369"></scales>
<clustering>
<clus scale="   35.404">  1  5  2 -1</clus>
<clus scale="   79.423">  1  3  2 -1</clus>
<clus scale="  112.424">  1  6  2 -1</clus>
<clus scale="  112.424">  2  3  1 -1</clus>
</clustering>
</event>
<event>
 6    0  0.1622933E+002  0.9045006E+02  0.7546771E-02  0.1301765E+00
         21   -1    0    0  505  502  0.00000000000E+00  0.00000000000E+00  0.48638985367E+03  0.48638985367E+03  0.00000000000E+00 0.  1.
          2   -1    0    0  503    0 -0.00000000000E+00 -0.00000000000E+00 -0.26809412019E+03  0.26809412019E+03  0.00000000000E+00 0.  1.
         21    1    1    2  503  504  0.46546438290E+02 -0.30369857847E+01 -0.14353320976E+03  0.15092241882E+03  0.00000000000E+00 0.  1.
         21    1    1    2  504  502  0.10942340337E+03  0.43959838910E+02  0.52737372568E+02  0.12917886478E+03  0.00000000000E+00 0.  1.
         21    1    1    2  505  501 -0.86903359344E+02  0.19454466061E+02  0.35904702233E+03  0.36992625530E+03  0.00000000000E+00 0.  1.
          2    1    1    2  501    0 -0.69066482311E+02 -0.60377319186E+02 -0.49955451672E+02  0.10445643495E+03  0.00000000000E+00 0.  1.
<scales pt_clust_3="46.64541" pt_clust_4="14000.00000" pt_clust_5="90.45006" pt_clust_6="73.69261"></scales>
<clustering>
<clus scale="   46.645">  2  3  1 -1</clus>
<clus scale="   73.693">  2  6  1 -1</clus>
<clus scale="   90.450">  1  5  2 -1</clus>
<clus scale="   90.450">  1  3  2 -1</clus>
</clustering>
</event>
<event>
 6    0  0.1622933E+002  0.1063984E+03  0.7546771E-02  0.1267389E+00
          2   -1    0    0  503    0 -0.00000000000E+00  0.00000000000E+00  0.34369014450E+03  0.34369014450E+03  0.00000000000E+00 0. -1.
         21   -1    0    0  504  502  0.00000000000E+00 -0.00000000000E+00 -0.50514068542E+03  0.50514068542E+03  0.00000000000E+00 0.  1.
         21    1    1    2  503  505 -0.23135809711E+02 -0.47956342957E+02 -0.22869591638E+01  0.53294527890E+02  0.00000000000E+00 0.  1.
         21    1    1    2  504  501 -0.88054877916E+02  0.65320233292E+02 -0.45716390710E+03  0.47012682582E+03  0.00000000000E+00 0.  1.
         21    1    1    2  505  502  0.71658328031E+02  0.19844924859E+02  0.20003117388E+03  0.21340386019E+03  0.00000000000E+00 0. -1.
          2    1    1    2  501    0  0.39532359596E+02 -0.37208815193E+02  0.97969151458E+02  0.11200561602E+03  0.00000000000E+00 0. -1.
<scales pt_clust_3="53.24544" pt_clust_4="106.39837" pt_clust_5="57.74620" pt_clust_6="14000.00000"></scales>
<clustering>
<clus scale="   53.245">  1  3  2 -1</clus>
<clus scale="   57.746">  1  5  2 -1</clus>
<clus scale="  106.398">  2  4  1 -1</clus>
<clus scale="  106.398">  2  3  1 -1</clus>
</clustering>
</event>
<event>
 6    0  0.1622933E+002  0.1099804E+03  0.7546771E-02  0.1260606E+00
         21   -1    0    0  505  502  0.00000000000E+00  0.00000000000E+00  0.85053340027E+03  0.85053340027E+03  0.00000000000E+00 0.  1.
          1   -1    0    0  503    0 -0.00000000000E+00 -0.00000000000E+00 -0.14339806073E+03  0.14339806073E+03  0.00000000000E+00 0.  1.
         21    1    1    2  503  504 -0.50150384658E+02 -0.44654970615E+01 -0.12758386214E+02  0.51940140202E+02  0.00000000000E+00 0. -1.
         21    1    1    2  504  502 -0.57063561044E+02 -0.96400939334E+02  0.74521781997E+03  0.75359073130E+03  0.00000000000E+00 0.  1.
         21    1    1    2  505  501  0.42513578435E+02  0.83753640885E+02  0.33073783364E+02  0.99578872553E+02  0.00000000000E+00 0.  1.
          1    1    1    2  501    0  0.64700367268E+02  0.17112795510E+02 -0.58397877580E+02  0.88821716942E+02  0.00000000000E+00 0.  1.
<scales pt_clust_3="50.34880" pt_clust_4="109.98040" pt_clust_5="14000.00000" pt_clust_6="34.49475"></scales>
<clustering>
<clus scale="   50.349">  2  3  1 -1</clus>
<clus scale="   34.495">  2  6  1 -1</clus>
<clus scale="  109.980">  1  4  2 -1</clus>
<clus scale="  109.980">  1  3  2 -1</clus>
</clustering>
</event>
<event>
 6    0  0.1622933E+002  0.1147544E+03  0.7546771E-02  0.1252010E+00
          2   -1    0    0  504    0 -0.00000000000E+00  0.00000000000E+00  0.17142646550E+04  0.17142646550E+04  0.00000000000E+00 0. -1.
         21   -1    0    0  501  502  0.00000000000E+00 -0.00000000000E+00 -0.66753896301E+03  0.66753896301E+03  0.00000000000E+00 0.  1.
         21    1    1    2  503  505 -0.84342788414E+02  0.80846689773E+02  0.50311746735E+03  0.51650467486E+03  0.00000000000E+00 0. -1.
         21    1    1    2  504  503  0.12727168132E+02  0.48240229695E+02  0.41955188217E+03  0.42250784892E+03  0.00000000000E+00 0. -1.
         21    1    1    2  505  502 -0.12898050385E+02 -0.40683305525E+02 -0.65389427023E+03  0.65528559247E+03  0.00000000000E+00 0.  1.
          2    1    1    2  501    0  0.84513670667E+02 -0.88403613943E+02  0.77795061269E+03  0.78750550174E+03  0.00000000000E+00 0. -1.
<scales pt_clust_3="14000.00000" pt_clust_4="45.02607" pt_clust_5="42.67893" pt_clust_6="114.75441"></scales>
<clustering>
<clus scale="   42.679">  2  5  1 -1</clus>
<clus scale="   45.026">  1  4  2 -1</clus>
<clus scale="  114.754">  1  6  2 -1</clus>
<clus scale="   42.679">  2  3  1 -1</clus>
</clustering>
</event>
<event>
 6    0  0.1622933E+002  0.8554412E+02  0.7546771E-02  0.1314016E+00
         21   -1    0    0  504  502  0.00000000000E+00  0.00000000000E+00  0.38028674589E+02  0.38028674589E+02  0.00000000000E+00 0.  1.
          1   -1    0    0  505    0 -0.00000000000E+00 -0.00000000000E+00 -0.95509762397E+03  0.95509762397E+03  0.00000000000E+00 0.  1.
         21    1    1    2  503  502 -0.94162679673E+02  0.70977940171E+01 -0.34755054930E+03  0.36015048694E+03  0.00000000000E+00 0.  1.
         21    1    1    2  504  501  0.76714984899E+02 -0.36376718834E+02 -0.34522070293E+02  0.91652757288E+02  0.00000000000E+00 0.  1.
         21    1    1    2  505  503 -0.26886021324E+02  0.17571980534E+02 -0.31280649381E+03  0.31445116506E+03  0.00000000000E+00 0.  1.
          1    1    1    2  501    0  0.44333716098E+02  0.11706944282E+02 -0.22218983597E+03  0.22687188926E+03  0.00000000000E+00 0.  1.
<scales pt_clust_3="14000.00000" pt_clust_4="85.54412" pt_clust_5="32.11904" pt_clust_6="39.22376"></scales>
<clustering>
<clus scale="   32.119">  2  5  1 -1</clus>
<clus scale="   39.224">  2  6  1 -1</clus>
<clus scale="   85.544">  1  4  2 -1</clus>
<clus scale="   85.544">  1  3  2 -1</clus>
</clustering>
</event>
<event>
 6    0  0.1622933E+002  0.1571060E+03  0.7546771E-02  0.1192003E+00
         -3   -1    0    0    0  501 -0.00000000000E+00  0.00000000000E+00  0.43263724544E+03  0.43263724544E+03  0.00000000000E+00 0. -1.
         21   -1    0    0  503  502  0.00000000000E+00 -0.00000000000E+00 -0.20909275018E+03  0.20909275018E+03  0.00000000000E+00 0.  1.
         21    1    1    2  503  501 -0.10576828418E+02 -0.29516685847E+02  0.10653209408E+03  0.11105039897E+03  0.00000000000E+00 0.  1.
         21    1    1    2  504  502 -0.18877541815E+02 -0.14816691146E+03 -0.14648196837E+03  0.20920507234E+03  0.00000000000E+00 0.  1.
         21    1    1    2  505  504 -0.14111464006E+01  0.10215990514E+03  0.13581887490E+03  0.16995706614E+03  0.00000000000E+00 0. -1.
         -3    1    1    2    0  505  0.30865516634E+02  0.75523692159E+02  0.12767549466E+03  0.15151745817E+03  0.00000000000E+00 0. -1.
<scales pt_clust_3="31.35449" pt_clust_4="152.33100" pt_clust_5="33.72410" pt_clust_6="33.72410"></scales>
<clustering>
<clus scale="   31.354">  1  3  2 -1</clus>
<clus scale="   33.724">  5  6 -1 -1</clus>
<clus scale="  152.331">  2  4  1 -1</clus>
<clus scale="  152.331">  2  3  1 -1</clus>
</clustering>
</event>
<event>
 6    0  0.1622933E+002  0.1121725E+03  0.7546771E-02  0.1256599E+00
          2   -1    0    0  504    0 -0.00000000000E+00  0.00000000000E+00  0.12387891123E+04  0.12387891123E+04  0.00000000000E+00 0. -1.
         21   -1    0    0  505  502  0.00000000000E+00 -0.00000000000E+00 -0.80198367096E+02  0.80198367096E+02  0.00000000000E+00 0.  1.
         21    1    1    2  503  501 -0.27817049035E+02  0.76998816780E+02  0.43107970106E+02  0.92525148415E+02  0.00000000000E+00 0. -1.
         21    1    1    2  504  502  0.18745368161E+02  0.38947250488E+02  0.92080526884E+03  0.92181919066E+03  0.00000000000E+00 0. -1.
         21    1    1    2  505  503 -0.16524814067E+02  0.33468237950E+02 -0.19605112177E+02  0.42161034794E+02  0.00000000000E+00 0.  1.
          2    1    1    2  501    0  0.25596494940E+02 -0.14941430522E+03  0.21428261842E+03  0.26248210551E+03  0.00000000000E+00 0. -1.
<scales pt_clust_3="112.17250" pt_clust_4="43.46097" pt_clust_5="37.32549" pt_clust_6="14000.00000"></scales>
<clustering>
<clus scale="   37.325">  2  5  1 -1</clus>
<clus scale="   43.461">  1  4  2 -1</clus>
<clus scale="  112.172">  2  3  1 -1</clus>
<clus scale="   37.325">  2  3  1 -1</clus>
</clustering>
</event>
<event>
 6    0  0.1622933E+002  0.1497537E+03  0.7546771E-02  0.1200776E+00
         21   -1    0    0  505  502  0.00000000000E+00  0.00000000000E+00  0.19635555320E+04  0.19635555320E+04  0.00000000000E+00 0. -1.
          2   -1    0    0  503    0 -0.00000000000E+00 -0.00000000000E+00 -0.27526565746E+03  0.27526565746E+03  0.00000000000E+00 0. -1.
         21    1    1    2  503  502  0.84323469432E+02  0.24290229092E+02  0.51720510664E+02  0.10186007044E+03  0.00000000000E+00 0. -1.
         21    1    1    2  504  501 -0.89194286878E+02  0.17461733881E+02 -0.69645216699E+02  0.11450322778E+03  0.00000000000E+00 0. -1.
         21    1    1    2  505  504  0.72357463991E+02 -0.11010261551E+03  0.18471829436E+04  0.18518755400E+04  0.00000000000E+00 0. -1.
          2    1    1    2  501    0 -0.67486646545E+02  0.68350652536E+02 -0.14096836306E+03  0.17058235122E+03  0.00000000000E+00 0. -1.
<scales pt_clust_3="87.75228" pt_clust_4="68.80374" pt_clust_5="131.99675" pt_clust_6="68.80374"></scales>
<clustering>
<clus scale="   68.804">  4  6 -1 -1</clus>
<clus scale="   87.752">  2  3  1 -1</clus>
<clus scale="  131.997">  1  5  2 -1</clus>
<clus scale="  131.997">  1  3  2 -1</clus>
</clustering>
</event>
<event>
 6    0  0.1622933E+002  0.8462042E+02  0.7546771E-02  0.1316428E+00
         21   -1    0    0  503  502  0.00000000000E+00  0.00000000000E+00  0.34848618817E+02  0.34848618817E+02  0.00000000000E+00 0.  1.
          2   -1    0    0  504    0 -0.00000000000E+00 -0.00000000000E+00 -0.69208525327E+03  0.69208525327E+03  0.00000000000E+00 0.  1.
         21    1    1    2  503  501  0.87234761054E+02  0.51707862784E+02 -0.98724519825E+02  0.14152786801E+03  0.00000000000E+00 0.  1.
         21    1    1    2  504  505  0.28527768615E+01 -0.45025396009E+02 -0.18153957083E+03  0.18706159520E+03  0.00000000000E+00 0.  1.
         21    1    1    2  505  502 -0.33358633097E+02  0.24960702128E+02 -0.50479989209E+02  0.65452764367E+02  0.00000000000E+00 0.  1.
          2    1    1    2  501    0 -0.56728904818E+02 -0.31643168903E+02 -0.32649255459E+03  0.33289164451E+03  0.00000000000E+00 0.  1.
<scales pt_clust_3="84.62042" pt_clust_4="42.50981" pt_clust_5="41.66335" pt_clust_6="14000.00000"></scales>
<clustering>
<clus scale="   41.663">  1  5  2 -1</clus>
<clus scale="   42.510">  2  4  1 -1</clus>
<clus scale="   84.620">  1  3  2 -1</clus>
<clus scale="   41.663">  1  3  2 -1</clus>
</clustering>
</event>
<event>
 6    0  0.1622933E+002  0.9634950E+02  0.7546771E-02  0.1288165E+00
          2   -1    0    0  504    0 -0.00000000000E+00  0.00000000000E+00  0.14125229733E+04  0.14125229733E+04  0.00000000000E+00 0.  1.
         21   -1    0    0  505  502  0.00000000000E+00 -0.00000000000E+00 -0.22904667267E+03  0.22904667267E+03  0.00000000000E+00 0. -1.
         21    1    1    2  503  502 -0.83429068940E+02 -0.32169461422E+02 -0.21073947804E+03  0.22892446657E+03  0.00000000000E+00 0. -1.
         21    1    1    2  504  503 -0.33916869372E+02 -0.15747933854E+02  0.52289115736E+02  0.64284547701E+02  0.00000000000E+00 0.  1.
         21    1    1    2  505  501  0.56627507603E+02  0.39290613985E+02  0.61446069912E+03  0.61831414162E+03  0.00000000000E+00 0. -1.
          2    1    1    2  501    0  0.60718430709E+02  0.86267812908E+01  0.72746596381E+03  0.73004649009E+03  0.00000000000E+00 0.  1.
<scales pt_clust_3="89.66687" pt_clust_4="37.39454" pt_clust_5="33.25801" pt_clust_6="33.25801"></scales>
<clustering>
<clus scale="   33.258">  5  6 -1 -1</clus>
<clus scale="   37.395">  1  4  2 -1</clus>
<clus scale="   89.667">  2  3  1 -1</clus>
<clus scale="   89.667">  2  3  1 -1</clus>
</clustering>
</event>
<event>
 6    0  0.1622933E+002  0.9942337E+02  0.7546771E-02  0.1281513E+00
          2   -1    0    0  504    0 -0.00000000000E+00  0.00000000000E+00  0.35685183488E+04  0.35685183488E+04  0.00000000000E+00 0.  1.
         21   -1    0    0  505  502  0.00000000000E+00 -0.00000000000E+00 -0.11730919075E+03  0.11730919075E+03  0.00000000000E+00 0. -1.
         21    1    1    2  503  502  0.17248102479E+02  0.12014777249E+03  0.42013938850E+03  0.43732149506E+03  0.00000000000E+00 0. -1.
         21    1    1    2  504  503  0.38294673774E+02 -0.36535545507E+02  0.10804547475E+04  0.10817503360E+04  0.00000000000E+00 0.  1.
         21    1    1    2  505  501 -0.79918564637E+02 -0.60181710384E+02 -0.84746346279E+02  0.13111353266E+03  0.00000000000E+00 0. -1.
          2    1    1    2  501    0  0.24375788384E+02 -0.23430516598E+02  0.20353613684E+04  0.20356421758E+04  0.00000000000E+00 0.  1.
<scales pt_clust_3="14000.00000" pt_clust_4="76.77124" pt_clust_5="99.42337" pt_clust_6="33.81077"></scales>
<clustering>
<clus scale="   33.811">  1  6  2 -1</clus>
<clus scale="   76.771">  1  4  2 -1</clus>
<clus scale="   99.423">  2  5  1 -1</clus>
<clus scale="   99.423">  2  3  1 -1</clus>
</clustering>
</event>
<event>
 6    0  0.1622933E+002  0.1000256E+03  0.7546771E-02  0.1280242E+00
         21   -1    0    0  503  502  0.00000000000E+00  0.00000000000E+00  0.95279212794E+02  0.95279212794E+02  0.00000000000E+00 0.  1.
         -1   -1    0    0    0  501 -0.00000000000E+00 -0.00000000000E+00 -0.38786301204E+03  0.38786301204E+03  0.00000000000E+00 0.  1.
         21    1    1    2  503  501  0.50319494767E+02 -0.70533984754E+02 -0.54964333485E+02  0.10260688337E+03  0.00000000000E+00 0.  1.
         21    1    1    2  504  505  0.31274124218E+02  0.56316614678E+02 -0.14157227849E+03  0.15553887607E+03  0.00000000000E+00 0.  1.
         21    1    1    2  505  502 -0.75976476985E+02 -0.34068767615E+02  0.31091898729E+02  0.88880887419E+02  0.00000000000E+00 0.  1.
         -1    1    1    2    0  504 -0.56171419993E+01  0.48286137691E+02 -0.12713908600E+03  0.13611557797E+03  0.00000000000E+00 0.  1.
<scales pt_clust_3="93.53402" pt_clust_4="30.79291" pt_clust_5="83.26527" pt_clust_6="30.79291"></scales>
<clustering>
<clus scale="   30.793">  4  6 -1 -1</clus>
<clus scale="   83.265">  1  5  2 -1</clus>
<clus scale="   93.534">  1  3  2 -1</clus>
<clus scale="   83.265">  1  3  2 -1</clus>
</clustering>
</event>
<event>
 6    0  0.1622933E+002  0.1022777E+03  0.7546771E-02  0.1275578E+00
          2   -1    0    0  504    0 -0.00000000000E+00  0.00000000000E+00  0.49253733339E+03  0.49253733339E+03  0.00000000000E+00 0. -1.
         21   -1    0    0  503  502  0.00000000000E+00 -0.00000000000E+00 -0.20643504822E+03  0.20643504822E+03  0.00000000000E+00 0.  1.
         21    1    1    2  503  501 -0.38180376902E+02 -0.12163965497E+03  0.15297817039E+03  0.19913881454E+03  0.00000000000E+00 0. -1.
         21    1    1    2  504  505 -0.19903004850E+00  0.62738497491E+02  0.87936601589E+02  0.10802316686E+03  0.00000000000E+00 0. -1.
         21    1    1    2  505  502  0.81154126475E+02  0.61700359432E+02 -0.15586221602E+03  0.18624166285E+03  0.00000000000E+00 0.  1.
          2    1    1    2  501    0 -0.42774719525E+02 -0.27992019511E+01  0.20104972922E+03  0.20556873736E+03  0.00000000000E+00 0. -1.
<scales pt_clust_3="14000.00000" pt_clust_4="63.51232" pt_clust_5="102.27767" pt_clust_6="42.86621"></scales>
<clustering>
<clus scale="   42.866">  1  6  2 -1</clus>
<clus scale="   63.512">  1  4  2 -1</clus>
<clus scale="  102.278">  2  5  1 -1</clus>
<clus scale="  102.278">  2  3  1 -1</clus>
</clustering>
</event>
<event>
 6    0  0.1622933E+002  0.1257677E+03  0.7546771E-02  0.1233874E+00
          1   -1    0    0  505    0 -0.00000000000E+00  0.00000000000E+00  0.23084279485E+04  0.23084279485E+04  0.00000000000E+00 0. -1.
         21   -1    0    0  504  502  0.00000000000E+00 -0.00000000000E+00 -0.18634807476E+03  0.18634807476E+03  0.00000000000E+00 0. -1.
         21    1    1    2  503  502 -0.32702120336E+02 -0.33710191431E+02  0.15196982863E+04  0.15204238512E+04  0.00000000000E+00 0. -1.
         21    1    1    2  504  501 -0.93702891874E+01  0.12678603890E+03 -0.15777929305E+03  0.20262479438E+03  0.00000000000E+00 0. -1.
         21    1    1    2  505  503  0.32372054319E+02 -0.89129153987E+01  0.86969350948E+02  0.93225843874E+02  0.00000000000E+00 0. -1.
          1    1    1    2  501    0  0.97003552041E+01 -0.84162932074E+02  0.67319152955E+03  0.67850153388E+03  0.00000000000E+00 0. -1.
<scales pt_clust_3="41.18382" pt_clust_4="125.76767" pt_clust_5="33.57663" pt_clust_6="14000.00000"></scales>
<clustering>
<clus scale="   33.577">  1  5  2 -1</clus>
<clus scale="   41.184">  1  3  2 -1</clus>
<clus scale="  125.768">  2  4  1 -1</clus>
<clus scale="  125.768">  2  3  1 -1</clus>
</clustering>
</event>
<event>
 6    0  0.1622933E+002  0.1245895E+03  0.7546771E-02  0.1235712E+00
         21   -1    0    0  503  502  0.00000000000E+00  0.00000000000E+00  0.46590544331E+02  0.46590544331E+02  0.00000000000E+00 0. -1.
          2   -1    0    0  504    0 -0.00000000000E+00 -0.00000000000E+00 -0.15605047710E+04  0.15605047710E+04  0.00000000000E+00 0. -1.
         21    1    1    2  503  501  0.40911990885E+02 -0.65708791800E+01  0.13419240764E+02  0.43555062553E+02  0.00000000000E+00 0. -1.
         21    1    1    2  504  505 -0.45736305621E+02 -0.35573926253E+02 -0.35595109247E+03  0.36063623516E+03  0.00000000000E+00 0.  1.
         21    1    1    2  505  502 -0.68953991331E+02  0.12703176622E+03 -0.44551338272E+03  0.46837367211E+03  0.00000000000E+00 0. -1.
          2    1    1    2  501    0  0.73778306068E+02 -0.84886960789E+02 -0.72586899229E+03  0.73453034554E+03  0.00000000000E+00 0. -1.
<scales pt_clust_3="41.43631" pt_clust_4="54.42704" pt_clust_5="14000.00000" pt_clust_6="124.58955"></scales>
<clustering>
<clus scale="   41.436">  1  3  2 -1</clus>
<clus scale="   54.427">  2  4  1 -1</clus>
<clus scale="  124.590">  2  6  1 -1</clus>
<clus scale="   41.436">  1  3  2 -1</clus>
</clustering>
</event>
<event>
 6    0  0.1622933E+002  0.2571021E+03  0.7546771E-02  0.1108897E+00
          2   -1    0    0  504    0 -0.00000000000E+00  0.00000000000E+00  0.17034064357E+04  0.17034064357E+04  0.00000000000E+00 0.  1.
         21   -1    0    0  503  502  0.00000000000E+00 -0.00000000000E+00 -0.12922892253E+03  0.12922892253E+03  0.00000000000E+00 0.  1.
         21    1    1    2  503  505 -0.65337609604E+02 -0.68017533933E+01 -0.78843844941E+02  0.10262367642E+03  0.00000000000E+00 0.  1.
         21    1    1    2  504  502  0.10868701793E+03 -0.23275673771E+03  0.79438252563E+03  0.83488452126E+03  0.00000000000E+00 0. -1.
         21    1    1    2  505  501 -0.23167727797E+01  0.64108087359E+02  0.13610774882E+03  0.15046771611E+03  0.00000000000E+00 0.  1.
          2    1    1    2  501    0 -0.41032635542E+02  0.17545040374E+03  0.72253108364E+03  0.74465944443E+03  0.00000000000E+00 0.  1.
<scales pt_clust_3="65.69069" pt_clust_4="247.74367" pt_clust_5="41.01279" pt_clust_6="41.01279"></scales>
<clustering>
<clus scale="   41.013">  5  6 -1 -1</clus>
<clus scale="   65.691">  2  3  1 -1</clus>
<clus scale="  247.744">  2  4  1 -1</clus>
<clus scale="   65.691">  2  3  1 -1</clus>
</clustering>
</event>
<event>
 6    0  0.1622933E+002  0.1000136E+03  0.7546771E-02  0.1280267E+00
          3   -1    0    0  503    0 -0.00000000000E+00  0.00000000000E+00  0.96134158891E+03  0.96134158891E+03  0.00000000000E+00 0. -1.
         21   -1    0    0  505  502  0.00000000000E+00 -0.00000000000E+00 -0.75623593832E+02  0.75623593832E+02  0.00000000000E+00 0. -1.
         21    1    1    2  503  502  0.62532055945E+01  0.11029655055E+03 -0.16946031866E+02  0.11176582500E+03  0.00000000000E+00 0. -1.
         21    1    1    2  504  501  0.13494712858E+02 -0.46825763465E+02  0.23494483947E+03  0.23994548754E+03  0.00000000000E+00 0. -1.
         21    1    1    2  505  504 -0.60511892459E+02 -0.49941999614E+02  0.18936845394E+03  0.20497878866E+03  0.00000000000E+00 0. -1.
          3    1    1    2  501    0  0.40763974006E+02 -0.13528787466E+02  0.47835073354E+03  0.48027508154E+03  0.00000000000E+00 0. -1.
<scales pt_clust_3="14000.00000" pt_clust_4="63.15417" pt_clust_5="100.01358" pt_clust_6="42.95032"></scales>
<clustering>
<clus scale="   42.950">  1  6  2 -1</clus>
<clus scale="   63.154">  1  4  2 -1</clus>
<clus scale="  100.014">  1  5  2 -1</clus>
<clus scale="  100.014">  2  3  1 -1</clus>
</clustering>
</event>
<event>
 6    0  0.1622933E+002  0.1157029E+03  0.7546771E-02  0.1250359E+00
          2   -1    0    0  504    0 -0.00000000000E+00  0.00000000000E+00  0.20029892015E+03  0.20029892015E+03  0.00000000000E+00 0. -1.
         21   -1    0    0  505  502  0.00000000000E+00 -0.00000000000E+00 -0.22613225775E+03  0.22613225775E+03  0.00000000000E+00 0.  1.
         21    1    1    2  503  502  0.44554637970E+02 -0.15473896539E+02 -0.49836142023E+02  0.68616312131E+02  0.00000000000E+00 0. -1.
         21    1    1    2  504  503 -0.18802909742E+02  0.10306775521E+03  0.54005134921E+02  0.11786885160E+03  0.00000000000E+00 0. -1.
         21    1    1    2  505  501 -0.40649321036E+01  0.46535056925E+02 -0.82076222847E+02  0.94438030225E+02  0.00000000000E+00 0.  1.
          2    1    1    2  501    0 -0.21686796125E+02 -0.13412891560E+03  0.52073892350E+02  0.14550798394E+03  0.00000000000E+00 0. -1.
<scales pt_clust_3="43.04602" pt_clust_4="14000.00000" pt_clust_5="46.71226" pt_clust_6="115.70290"></scales>
<clustering>
<clus scale="   46.712">  2  5  1 -1</clus>
<clus scale="   43.046">  2  3  1 -1</clus>
<clus scale="  115.703">  2  6  1 -1</clus>
<clus scale="   46.712">  2  3  1 -1</clus>
</clustering>
</event>
<event>
 6    0  0.1622933E+002  0.2504358E+03  0.7546771E-02  0.1113030E+00
          2   -1    0    0  503    0 -0.00000000000E+00  0.00000000000E+00  0.30221976175E+04  0.30221976175E+04  0.00000000000E+00 0.  1.
         21   -1    0    0  505  502  0.00000000000E+00 -0.00000000000E+00 -0.62801194723E+03  0.62801194723E+03  0.00000000000E+00 0. -1.
         21    1    1    2  503  502 -0.43901686172E+02  0.33012187403E+01  0.96208869628E+03  0.96309548623E+03  0.00000000000E+00 0.  1.
         21    1    1    2  504  501  0.14766457428E+03 -0.12554027678E+03  0.62800787881E+02  0.20373788688E+03  0.00000000000E+00 0. -1.
         21    1    1    2  505  504  0.93506032013E+02  0.22248162489E+02 -0.54648411112E+03  0.55487227581E+03  0.00000000000E+00 0. -1.
          2    1    1    2  501    0 -0.19726892012E+03  0.99990895555E+02  0.19157802972E+04  0.19285039158E+04  0.00000000000E+00 0.  1.
<scales pt_clust_3="44.02563" pt_clust_4="250.43580" pt_clust_5="96.03097" pt_clust_6="14000.00000"></scales>
<clustering>
<clus scale="   44.026">  1  3  2 -1</clus>
<clus scale="   96.031">  2  5  1 -1</clus>
<clus scale="  250.436">  2  4  1 -1</clus>
<clus scale="   96.031">  2  3  1 -1</clus>
</clustering>
</event>
<event>
 6    0  0.1622933E+002  0.9916434E+02  0.7546771E-02  0.1282063E+00
         -2   -1    0    0    0  501 -0.00000000000E+00  0.00000000000E+00  0.43057346869E+03  0.43057346869E+03  0.00000000000E+00 0.  1.
         21   -1    0    0  501  502  0.00000000000E+00 -0.00000000000E+00 -0.29224330797E+03  0.29224330797E+03  0.00000000000E+00 0.  1.
         21    1    1    2  503  502  0.22061345022E+02  0.30337839304E+02 -0.18932839470E+03  0.19300862281E+03  0.00000000000E+00 0.  1.
         21    1    1    2  504  505 -0.16644076228E+03 -0.31217294800E+02  0.29028666354E+02  0.17181300973E+03  0.00000000000E+00 0.  1.
         21    1    1    2  505  503  0.52973317030E+02  0.17529259098E+02  0.12530905342E+02  0.57188030482E+02  0.00000000000E+00 0.  1.
         -2    1    1    2    0  504  0.91406100230E+02 -0.16649803602E+02  0.28609898373E+03  0.30080711363E+03  0.00000000000E+00 0.  1.
<scales pt_clust_3="37.51116" pt_clust_4="99.16434" pt_clust_5="62.71697" pt_clust_6="14000.00000"></scales>
<clustering>
<clus scale="   37.511">  2  3  1 -1</clus>
<clus scale="   62.717">  2  5  1 -1</clus>
<clus scale="   99.164">  2  4  1 -1</clus>
<clus scale="   37.511">  2  3  1 -1</clus>
</clustering>
</event>
<event>
 6    0  0.1622933E+002  0.1866358E+03  0.7546771E-02  0.1161531E+00
         21   -1    0    0  505  502  0.00000000000E+00  0.00000000000E+00  0.20671141954E+03  0.20671141954E+03  0.00000000000E+00 0. -1.
         -1   -1    0    0    0  501 -0.00000000000E+00 -0.00000000000E+00 -0.36915426881E+03  0.36915426881E+03  0.00000000000E+00 0. -1.
         21    1    1    2  503  501  0.62147861825E+02  0.64658639120E+02 -0.18525575065E+03  0.20582222788E+03  0.00000000000E+00 0. -1.
         21    1    1    2  504  502  0.40216870833E+02 -0.10470311531E+03  0.56383594691E+01  0.11230285015E+03  0.00000000000E+00 0.  1.
         21    1    1    2  505  503 -0.54363942914E+02  0.13723942757E+03  0.21929117260E+02  0.14923466404E+03  0.00000000000E+00 0. -1.
         -1    1    1    2    0  504 -0.48000789745E+02 -0.97194951377E+02 -0.47545753505E+01  0.10850594627E+03  0.00000000000E+00 0. -1.
<scales pt_clust_3="89.68331" pt_clust_4="87.55823" pt_clust_5="164.01402" pt_clust_6="87.55823"></scales>
<clustering>
<clus scale="   87.558">  4  6 -1 -1</clus>
<clus scale="   89.683">  2  3  1 -1</clus>
<clus scale="  164.014">  1  5  2 -1</clus>
<clus scale="  164.014">  1  3  2 -1</clus>
</clustering>
</event>
<event>
 6    0  0.1622933E+002  0.1822136E+03  0.7546771E-02  0.1165678E+00
          1   -1    0    0  504    0 -0.00000000000E+00  0.00000000000E+00  0.59232338947E+02  0.59232338947E+02  0.00000000000E+00 0. -1.
         21   -1    0    0  501  502  0.00000000000E+00 -0.00000000000E+00 -0.28540616551E+04  0.28540616551E+04  0.00000000000E+00 0. -1.
         21    1    1    2  503  505  0.25431535822E+01 -0.13528865555E+03 -0.51061962322E+03  0.52824415526E+03  0.00000000000E+00 0. -1.
         21    1    1    2  504  503  0.47756180649E+02 -0.38141424942E+01 -0.22751070859E+02  0.53035947228E+02  0.00000000000E+00 0. -1.
         21    1    1    2  505  502 -0.58234049381E+02 -0.75130992062E+02 -0.19588884417E+04  0.19611934625E+04  0.00000000000E+00 0. -1.
          1    1    1    2  501    0  0.79347151502E+01  0.21423379011E+03 -0.30257018041E+03  0.37082042905E+03  0.00000000000E+00 0. -1.
<scales pt_clust_3="182.21357" pt_clust_4="47.90825" pt_clust_5="94.37705" pt_clust_6="14000.00000"></scales>
<clustering>
<clus scale="   47.908">  1  4  2 -1</clus>
<clus scale="   94.377">  2  5  1 -1</clus>
<clus scale="  182.214">  2  3  1 -1</clus>
<clus scale="   94.377">  2  3  1 -1</clus>
</clustering>
</event>
<event>
 6    0  0.1622933E+002  0.9667395E+02  0.7546771E-02  0.1287450E+00
          2   -1    0    0  505    0 -0.00000000000E+00  0.00000000000E+00  0.29997261724E+04  0.29997261724E+04  0.00000000000E+00 0. -1.
         21   -1    0    0  501  502  0.00000000000E+00 -0.00000000000E+00 -0.15594751253E+03  0.15594751253E+03  0.00000000000E+00 0.  1.
         21    1    1    2  503  502  0.82251973624E+02  0.53768461543E+02 -0.13671423218E+03  0.16836631463E+03  0.00000000000E+00 0.  1.
         21    1    1    2  504  503 -0.39624228006E+02 -0.41235507555E+02  0.40439342495E+03  0.40841705238E+03  0.00000000000E+00 0. -1.
         21    1    1    2  505  504 -0.80724168779E+02 -0.11396852140E+02  0.16670983347E+04  0.16690905120E+04  0.00000000000E+00 0. -1.
          2    1    1    2  501    0  0.38096423161E+02 -0.11361018487E+01  0.90900113232E+03  0.90979980586E+03  0.00000000000E+00 0. -1.
<scales pt_clust_3="96.67395" pt_clust_4="14000.00000" pt_clust_5="51.80517" pt_clust_6="38.11336"></scales>
<clustering>
<clus scale="   38.113">  1  6  2 -1</clus>
<clus scale="   51.805">  1  5  2 -1</clus>
<clus scale="   96.674">  2  3  1 -1</clus>
<clus scale="   96.674">  2  3  1 -1</clus>
</clustering>
</event>
<event>
 6    0  0.1622933E+002  0.1179941E+03  0.7546771E-02  0.1246443E+00
         21   -1    0    0  504  502  0.00000000000E+00  0.00000000000E+00  0.22123926793E+03  0.22123926793E+03  0.00000000000E+00 0.  1.
          3   -1    0    0  505    0 -0.00000000000E+00 -0.00000000000E+00 -0.21040729376E+03  0.21040729376E+03  0.00000000000E+00 0.  1.
         21    1    1    2  503  502  0.30397528432E+02  0.15841987904E+02  0.11392863893E+03  0.11897358145E+03  0.00000000000E+00 0.  1.
         21    1    1    2  504  501 -0.37967697861E+02  0.60871661874E+01  0.19674978451E+02  0.43193801061E+02  0.00000000000E+00 0. -1.
         21    1    1    2  505  503  0.11768747458E+03 -0.45488771634E+02 -0.51939963519E+02  0.13644533641E+03  0.00000000000E+00 0.  1.
          3    1    1    2  501    0 -0.11011730515E+03  0.23559617544E+02 -0.70831679696E+02  0.13303384277E+03  0.00000000000E+00 0.  1.
<scales pt_clust_3="34.27796" pt_clust_4="30.81819" pt_clust_5="14000.00000" pt_clust_6="117.99408"></scales>
<clustering>
<clus scale="   34.278">  1  3  2 -1</clus>
<clus scale="   30.818">  1  4  2 -1</clus>
<clus scale="  117.994">  2  6  1 -1</clus>
<clus scale="   34.278">  1  3  2 -1</clus>
</clustering>
</event>
<event>
 6    0  0.1622933E+002  0.3524663E+03  0.7546771E-02  0.1061607E+00
          2   -1    0    0  503    0 -0.00000000000E+00  0.00000000000E+00  0.67043176842E+03  0.67043176842E+03  0.00000000000E+00 0.  1.
         21   -1    0    0  504  502  0.00000000000E+00 -0.00000000000E+00 -0.68676879019E+03  0.68676879019E+03  0.00000000000E+00 0. -1.
         21    1    1    2  503  505 -0.34006157312E+01 -0.80850259603E+02  0.19630254551E+02  0.83268694952E+02  0.00000000000E+00 0.  1.
         21    1    1    2  504  501 -0.50901546851E+01  0.32025778516E+02 -0.19902990983E+01  0.32488789679E+02  0.00000000000E+00 0. -1.
         21    1    1    2  505  502 -0.32880568065E+03 -0.13268360393E+03 -0.51580460341E+03  0.62591732943E+03  0.00000000000E+00 0. -1.
          2    1    1    2  501    0  0.33729645107E+03  0.18150808501E+03  0.48182762619E+03  0.61552574454E+03  0.00000000000E+00 0.  1.
<scales pt_clust_3="79.41183" pt_clust_4="32.42777" pt_clust_5="352.46632" pt_clust_6="14000.00000"></scales>
<clustering>
<clus scale="   32.428">  2  4  1 -1</clus>
<clus scale="   79.412">  1  3  2 -1</clus>
<clus scale="  352.466">  2  5  1 -1</clus>
<clus scale="   32.428">  2  3  1 -1</clus>
</clustering>
</event>
<event>
 6    0  0.1622933E+002  0.1034446E+03  0.7546771E-02  0.1273215E+00
         21   -1    0    0  504  502  0.00000000000E+00  0.00000000000E+00  0.67460853516E+02  0.67460853516E+02  0.00000000000E+00 0. -1.
          1   -1    0    0  505    0 -0.00000000000E+00 -0.00000000000E+00 -0.22511220907E+04  0.22511220907E+04  0.00000000000E+00 0.  1.
         21    1    1    2  503  501  0.27224012629E+01 -0.96305791463E+02 -0.12562047885E+04  0.12598939191E+04  0.00000000000E+00 0.  1.
         21    1    1    2  504  503 -0.56854752670E+02  0.87253442385E+02  0.22427171016E+02  0.10652982732E+03  0.00000000000E+00 0. -1.
         21    1    1    2  505  502  0.27857850034E+02 -0.11855896025E+02 -0.33732221877E+03  0.33867816781E+03  0.00000000000E+00 0.  1.
          1    1    1    2  501    0  0.26274501372E+02  0.20908245103E+02 -0.61256140101E+03  0.61348102998E+03  0.00000000000E+00 0.  1.
<scales pt_clust_3="103.44457" pt_clust_4="14000.00000" pt_clust_5="30.27577" pt_clust_6="39.13868"></scales>
<clustering>
<clus scale="   30.276">  2  5  1 -1</clus>
<clus scale="   39.139">  2  6  1 -1</clus>
<clus scale="  103.445">  2  3  1 -1</clus>
<clus scale="  103.445">  1  3  2 -1</clus>
</clustering>
</event>
<event>
 6    0  0.1622933E+002  0.1870458E+03  0.7546771E-02  0.1161153E+00
         21   -1    0    0  505  502  0.00000000000E+00  0.00000000000E+00  0.14844230001E+03  0.14844230001E+03  0.00000000000E+00 0. -1.
          2   -1    0    0  503    0 -0.00000000000E+00 -0.00000000000E+00 -0.24145319611E+04  0.24145319611E+04  0.00000000000E+00 0. -1.
         21    1    1    2  503  502 -0.30451623109E+02 -0.10826501830E+02 -0.49606253378E+03  0.49711422421E+03  0.00000000000E+00 0.  1.
         21    1    1    2  504  501  0.44845582676E+02 -0.66785634522E+02 -0.52165011764E+03  0.52781653299E+03  0.00000000000E+00 0. -1.
         21    1    1    2  505  504 -0.86931474995E+02  0.15182615534E+03  0.89246392914E+02  0.19640056374E+03  0.00000000000E+00 0. -1.
          2    1    1    2  501    0  0.72537515427E+02 -0.74214018990E+02 -0.13376234026E+04  0.13416429402E+04  0.00000000000E+00 0. -1.
<scales pt_clust_3="32.31895" pt_clust_4="59.36791" pt_clust_5="175.11465" pt_clust_6="59.36791"></scales>
<clustering>
<clus scale="   32.319">  2  3  1 -1</clus>
<clus scale="   59.368">  4  6 -1 -1</clus>
<clus scale="  175.115">  1  5  2 -1</clus>
<clus scale="  175.115">  1  3  2 -1</clus>
</clustering>
</event>
<event>
 6    0  0.1622933E+002  0.6932680E+02  0.7546771E-02  0.1362397E+00
         21   -1    0    0  505  502  0.00000000000E+00  0.00000000000E+00  0.21750365123E+02  0.21750365123E+02  0.00000000000E+00 0.  1.
          3   -1    0    0  504    0 -0.00000000000E+00 -0.00000000000E+00 -0.13194672016E+04  0.13194672016E+04  0.00000000000E+00 0.  1.
         21    1    1    2  503  502  0.75003081708E+02 -0.78371049889E+01 -0.95801699980E+02  0.12192148375E+03  0.00000000000E+00 0.  1.
         21    1    1    2  504  503 -0.26467887314E+01 -0.45946174765E+02 -0.59351792441E+03  0.59529957421E+03  0.00000000000E+00 0.  1.
         21    1    1    2  505  501 -0.29630683709E+02  0.82137883208E+02 -0.37474876581E+03  0.38478727467E+03  0.00000000000E+00 0.  1.
          3    1    1    2  501    0 -0.42725609268E+02 -0.28354603454E+02 -0.23364844632E+03  0.23920923413E+03  0.00000000000E+00 0.  1.
<scales pt_clust_3="69.32680" pt_clust_4="46.02235" pt_clust_5="14000.00000" pt_clust_6="61.46589"></scales>
<clustering>
<clus scale="   46.022">  2  4  1 -1</clus>
<clus scale="   61.466">  2  6  1 -1</clus>
<clus scale="   69.327">  1  3  2 -1</clus>
<clus scale="   69.327">  1  3  2 -1</clus>
</clustering>
</event>
<event>
 6    0  0.1622933E+002  0.1510085E+03  0.7546771E-02  0.1199239E+00
         21   -1    0    0  505  502  0.00000000000E+00  0.00000000000E+00  0.35771887331E+03  0.35771887331E+03  0.00000000000E+00 0. -1.
          1   -1    0    0  503    0 -0.00000000000E+00 -0.00000000000E+00 -0.33020797093E+03  0.33020797093E+03  0.00000000000E+00 0.  1.
         21    1    1    2  503  504  0.43157461280E+02  0.13945536255E+02 -0.24902270019E+02  0.51741351912E+02  0.00000000000E+00 0.  1.
         21    1    1    2  504  502 -0.12736039217E+03 -0.15346378825E+03  0.26040921492E+03  0.32800116312E+03  0.00000000000E+00 0. -1.
         21    1    1    2  505  501  0.12686837233E+02  0.51779027162E+02  0.17303282515E+02  0.56048435113E+02  0.00000000000E+00 0. -1.
          1    1    1    2  501    0  0.71516093654E+02  0.87739224832E+02 -0.22529932504E+03  0.25213589409E+03  0.00000000000E+00 0.  1.
<scales pt_clust_3="45.35465" pt_clust_4="151.00849" pt_clust_5="54.95102" pt_clust_6="14000.00000"></scales>
<clustering>
<clus scale="   45.355">  2  3  1 -1</clus>
<clus scale="   54.951">  1  5  2 -1</clus>
<clus scale="  151.008">  1  4  2 -1</clus>
<clus scale="   54.951">  1  3  2 -1</clus>
</clustering>
</event>
<event>
 6    0  0.1622933E+002  0.5494311E+02  0.7546771E-02  0.1420368E+00
         21   -1    0    0  504  502  0.00000000000E+00  0.00000000000E+00  0.45964039504E+02  0.45964039504E+02  0.00000000000E+00 0. -1.
          1   -1    0    0  505    0 -0.00000000000E+00 -0.00000000000E+00 -0.13837188435E+04  0.13837188435E+04  0.00000000000E+00 0. -1.
         21    1    1    2  503  502 -0.23283875083E+02  0.44334873170E+02 -0.54529628752E+02  0.74035128350E+02  0.00000000000E+00 0. -1.
         21    1    1    2  504  501  0.52359798872E+02 -0.84023069907E+02 -0.39982089695E+02  0.10677074651E+03  0.00000000000E+00 0. -1.
         21    1    1    2  505  503 -0.70581726265E+01 -0.34504022118E+02 -0.22977435813E+03  0.23245774024E+03  0.00000000000E+00 0.  1.
          1    1    1    2  501    0 -0.22017751162E+02  0.74192218855E+02 -0.10134687274E+04  0.10164192679E+04  0.00000000000E+00 0. -1.
<scales pt_clust_3="48.57240" pt_clust_4="14000.00000" pt_clust_5="35.21854" pt_clust_6="54.94311"></scales>
<clustering>
<clus scale="   35.219">  2  5  1 -1</clus>
<clus scale="   48.572">  1  3  2 -1</clus>
<clus scale="   54.943">  2  6  1 -1</clus>
<clus scale="   48.572">  1  3  2 -1</clus>
</clustering>
</event>
<event>
 6    0  0.1622933E+002  0.9334884E+02  0.7546771E-02  0.1294939E+00
         21   -1    0    0  504  502  0.00000000000E+00  0.00000000000E+00  0.17968317677E+04  0.17968317677E+04  0.00000000000E+00 0. -1.
          1   -1    0    0  503    0 -0.00000000000E+00 -0.00000000000E+00 -0.82600824665E+03  0.82600824665E+03  0.00000000000E+00 0. -1.
         21    1    1    2  503  505 -0.17381869421E+02  0.28247303979E+02 -0.16442254764E+03  0.16773435468E+03  0.00000000000E+00 0.  1.
         21    1    1    2  504  501  0.61230773921E+01 -0.35295083445E+02  0.17523727615E+04  0.17527388654E+04  0.00000000000E+00 0. -1.
         21    1    1    2  505  502  0.49153728401E+02  0.10463253637E+03 -0.50501544065E+02  0.12615253717E+03  0.00000000000E+00 0.  1.
          1    1    1    2  501    0 -0.37894936372E+02 -0.97584756902E+02 -0.56662514871E+03  0.57621425714E+03  0.00000000000E+00 0. -1.
<scales pt_clust_3="33.16684" pt_clust_4="35.81373" pt_clust_5="93.34884" pt_clust_6="14000.00000"></scales>
<clustering>
<clus scale="   33.167">  2  3  1 -1</clus>
<clus scale="   35.814">  1  4  2 -1</clus>
<clus scale="   93.349">  1  5  2 -1</clus>
<clus scale="   35.814">  1  3  2 -1</clus>
</clustering>
</event>
<event>
 6    0  0.1622933E+002  0.9270314E+02  0.7546771E-02  0.1296435E+00
          2   -1    0    0  504    0 -0.00000000000E+00  0.00000000000E+00  0.27070463150E+04  0.27070463150E+04  0.00000000000E+00 0. -1.
         21   -1    0    0  501  502  0.00000000000E+00 -0.00000000000E+00 -0.17981239942E+02  0.17981239942E+02  0.00000000000E+00 0. -1.
         21    1    1    2  503  502  0.28571077145E+02 -0.18243724202E+02  0.19711937613E+02  0.39213523260E+02  0.00000000000E+00 0. -1.
         21    1    1    2  504  505  0.38872005606E+02 -0.59186822659E+01  0.78618886049E+03  0.78717151116E+03  0.00000000000E+00 0. -1.
         21    1    1    2  505  503 -0.59169328755E-01  0.10254414854E+03  0.44042217496E+03  0.45220238621E+03  0.00000000000E+00 0. -1.
          2    1    1    2  501    0 -0.67383913422E+02 -0.78381742067E+02  0.14427421020E+04  0.14464401343E+04  0.00000000000E+00 0. -1.
<scales pt_clust_3="33.89897" pt_clust_4="41.17826" pt_clust_5="14000.00000" pt_clust_6="92.70314"></scales>
<clustering>
<clus scale="   33.899">  2  3  1 -1</clus>
<clus scale="   41.178">  1  4  2 -1</clus>
<clus scale="   92.703">  1  6  2 -1</clus>
<clus scale="   33.899">  2  3  1 -1</clus>
</clustering>
</event>
<event>
 6    0  0.1622933E+002  0.1168455E+03  0.7546771E-02  0.1248394E+00
          2   -1    0    0  503    0 -0.00000000000E+00  0.00000000000E+00  0.93856959340E+03  0.93856959340E+03  0.00000000000E+00 0. -1.
         21   -1    0    0  505  502  0.00000000000E+00 -0.00000000000E+00 -0.98983656072E+03  0.98983656072E+03  0.00000000000E+00 0.  1.
         21    1    1    2  503  504 -0.13991378468E+03  0.43601472113E+02  0.35072565027E+03  0.38011240084E+03  0.00000000000E+00 0. -1.
         21    1    1    2  504  502  0.45717756392E+02  0.32267995372E+02 -0.96509337300E+03  0.96671430908E+03  0.00000000000E+00 0.  1.
         21    1    1    2  505  501  0.89840632496E+02 -0.24839443193E+02  0.39505522096E+03  0.40590265434E+03  0.00000000000E+00 0. -1.
          2    1    1    2  501    0  0.43553957932E+01 -0.51030024291E+02  0.16804553445E+03  0.17567678987E+03  0.00000000000E+00 0. -1.
<scales pt_clust_3="116.84554" pt_clust_4="55.93102" pt_clust_5="14000.00000" pt_clust_6="51.21555"></scales>
<clustering>
<clus scale="   51.216">  1  6  2 -1</clus>
<clus scale="   55.931">  2  4  1 -1</clus>
<clus scale="  116.846">  2  3  1 -1</clus>
<clus scale="   55.931">  2  3  1 -1</clus>
</clustering>
</event>
<event>
 6    0  0.1622933E+002  0.1075419E+03  0.7546771E-02  0.1265191E+00
          1   -1    0    0  504    0 -0.00000000000E+00  0.00000000000E+00  0.15613617501E+04  0.15613617501E+04  0.00000000000E+00 0. -1.
         21   -1    0    0  505  502  0.00000000000E+00 -0.00000000000E+00 -0.83920440297E+03  0.83920440297E+03  0.00000000000E+00 0. -1.
         21    1    1    2  503  502  0.20789430260E+02  0.24644025319E+02 -0.81904611506E+03  0.81968046639E+03  0.00000000000E+00 0. -1.
         21    1    1    2  504  503  0.62996158259E+02 -0.96447433512E+02  0.30014159288E+03  0.32148965639E+03  0.00000000000E+00 0. -1.
         21    1    1    2  505  501 -0.48327076488E+02  0.88421289205E+02  0.28074452647E+03  0.29828060589E+03  0.00000000000E+00 0. -1.
          1    1    1    2  501    0 -0.35458512031E+02 -0.16617881012E+02  0.96031734285E+03  0.96111542440E+03  0.00000000000E+00 0. -1.
<scales pt_clust_3="32.24172" pt_clust_4="14000.00000" pt_clust_5="107.54193" pt_clust_6="38.57144"></scales>
<clustering>
<clus scale="   32.242">  2  3  1 -1</clus>
<clus scale="   38.571">  1  6  2 -1</clus>
<clus scale="  107.542">  1  5  2 -1</clus>
<clus scale="   32.242">  2  3  1 -1</clus>
</clustering>
</event>
<event>
 6    0  0.1622933E+002  0.8139020E+02  0.7546771E-02  0.1325152E+00
         -2   -1    0    0    0  501 -0.00000000000E+00  0.00000000000E+00  0.23843503428E+04  0.23843503428E+04  0.00000000000E+00 0.  1.
         21   -1    0    0  501  502  0.00000000000E+00 -0.00000000000E+00 -0.87742580946E+02  0.87742580946E+02  0.00000000000E+00 0.  1.
         21    1    1    2  503  502  0.56196126223E+02  0.34116693857E+02 -0.63369862788E+02  0.91310968191E+02  0.00000000000E+00 0.  1.
         21    1    1    2  504  505  0.36302890896E+02 -0.72740044534E+02  0.12810953751E+04  0.12836722222E+04  0.00000000000E+00 0.  1.
         21    1    1    2  505  503 -0.30006490387E+02  0.58283306667E+02  0.12649700131E+03  0.14247394373E+03  0.00000000000E+00 0.  1.
         -2    1    1    2    0  504 -0.62492526732E+02 -0.19659955990E+02  0.95238524828E+03  0.95463578967E+03  0.00000000000E+00 0.  1.
<scales pt_clust_3="65.12055" pt_clust_4="14000.00000" pt_clust_5="81.39020" pt_clust_6="65.51206"></scales>
<clustering>
<clus scale="   65.512">  1  6  2 -1</clus>
<clus scale="   65.121">  2  3  1 -1</clus>
<clus scale="   81.390">  2  5  1 -1</clus>
<clus scale="   65.121">  2  3  1 -1</clus>
</clustering>
</event>
<event>
 6    0  0.1622933E+002  0.1083871E+03  0.7546771E-02  0.1263586E+00
          2   -1    0    0  505    0 -0.00000000000E+00  0.00000000000E+00  0.14816493989E+04  0.14816493989E+04  0.00000000000E+00 0. -1.
         21   -1    0    0  503  502  0.00000000000E+00 -0.00000000000E+00 -0.16265257321E+03  0.16265257321E+03  0.00000000000E+00 0. -1.
         21    1    1    2  503  501  0.29521226537E+02  0.24051928557E+02  0.19645931983E+03  0.20011562266E+03  0.00000000000E+00 0.  1.
         21    1    1    2  504  502 -0.94764436634E+02 -0.15172965643E+01 -0.13316117402E+03  0.16344570629E+03  0.00000000000E+00 0. -1.
         21    1    1    2  505  504  0.15487328819E+01 -0.83969513519E+02  0.15331455480E+03  0.17481026997E+03  0.00000000000E+00 0. -1.
          2    1    1    2  501    0  0.63694477215E+02  0.61434881526E+02  0.11023841251E+04  0.11059303732E+04  0.00000000000E+00 0. -1.
<scales pt_clust_3="34.49112" pt_clust_4="94.77915" pt_clust_5="83.98379" pt_clust_6="34.49112"></scales>
<clustering>
<clus scale="   34.491">  3  6 -1 -1</clus>
<clus scale="   83.984">  1  5  2 -1</clus>
<clus scale="   94.779">  2  4  1 -1</clus>
<clus scale="   94.779">  2  3  1 -1</clus>
</clustering>
</event>
<event>
 6    0  0.1622933E+002  0.7274825E+02  0.7546771E-02  0.1350989E+00
         21   -1    0    0  501  502  0.00000000000E+00  0.00000000000E+00  0.10074209982E+02  0.10074209982E+02  0.00000000000E+00 0. -1.
          2   -1    0    0  503    0 -0.00000000000E+00 -0.00000000000E+00 -0.22377557813E+04  0.22377557813E+04  0.00000000000E+00 0. -1.
         21    1    1    2  503  504  0.36347104843E+02 -0.47232121037E+01 -0.88227632321E+03  0.88303733288E+03  0.00000000000E+00 0.  1.
         21    1    1    2  504  505  0.28579958846E+01 -0.41843736696E+02 -0.29554078926E+03  0.29850196742E+03  0.00000000000E+00 0.  1.
         21    1    1    2  505  502 -0.99133531174E+02  0.60996968529E+02 -0.82343319328E+03  0.83161909007E+03  0.00000000000E+00 0. -1.
          2    1    1    2  501    0  0.59928430447E+02 -0.14430019729E+02 -0.22643126560E+03  0.23467160094E+03  0.00000000000E+00 0. -1.
<scales pt_clust_3="36.65270" pt_clust_4="44.22428" pt_clust_5="14000.00000" pt_clust_6="72.74825"></scales>
<clustering>
<clus scale="   36.653">  2  3  1 -1</clus>
<clus scale="   44.224">  2  4  1 -1</clus>
<clus scale="   72.748">  1  6  2 -1</clus>
<clus scale="   72.748">  1  3  2 -1</clus>
</clustering>
</event>
<event>
 6    0  0.1622933E+002  0.1047027E+03  0.7546771E-02  0.1270706E+00
         21   -1    0    0  503  502  0.00000000000E+00  0.00000000000E+00  0.71992934921E+03  0.71992934921E+03  0.00000000000E+00 0.  1.
          2   -1    0    0  504    0 -0.00000000000E+00 -0.00000000000E+00 -0.46576734485E+03  0.46576734485E+03  0.00000000000E+00 0. -1.
         21    1    1    2  503  501  0.42314831620E+02  0.10282641094E+03  0.67868606381E+03  0.68773438839E+03  0.00000000000E+00 0.  1.
         21    1    1    2  504  505 -0.30636734391E+02 -0.16224595512E+02 -0.54451238414E+02  0.64550634067E+02  0.00000000000E+00 0.  1.
         21    1    1    2  505  502  0.25489216746E+02 -0.21582873571E+02  0.18162777840E+02  0.38018509976E+02  0.00000000000E+00 0. -1.
          2    1    1    2  501    0 -0.37167313975E+02 -0.65018941859E+02 -0.38823559887E+03  0.39539316162E+03  0.00000000000E+00 0. -1.
<scales pt_clust_3="14000.00000" pt_clust_4="34.57772" pt_clust_5="33.39941" pt_clust_6="104.70274"></scales>
<clustering>
<clus scale="   33.399">  1  5  2 -1</clus>
<clus scale="   34.578">  2  4  1 -1</clus>
<clus scale="  104.703">  2  6  1 -1</clus>
<clus scale="   33.399">  1  3  2 -1</clus>
</clustering>
</event>
<event>
 6    0  0.1622933E+002  0.1119924E+03  0.7546771E-02  0.1256924E+00
         21   -1    0    0  505  502  0.00000000000E+00  0.00000000000E+00  0.21069821726E+03  0.21069821726E+03  0.00000000000E+00 0. -1.
          1   -1    0    0  504    0 -0.00000000000E+00 -0.00000000000E+00 -0.17077590974E+04  0.17077590974E+04  0.00000000000E+00 0. -1.
         21    1    1    2  503  501 -0.41658653630E+01 -0.11300918740E+03 -0.34915024352E+03  0.36700725255E+03  0.00000000000E+00 0. -1.
         21    1    1    2  504  502  0.61640274700E+02  0.35880617999E+02 -0.13196211563E+03  0.15000314055E+03  0.00000000000E+00 0. -1.
         21    1    1    2  505  503 -0.10538325292E+03  0.13737402870E+01  0.17653374293E+03  0.20560077712E+03  0.00000000000E+00 0. -1.
          1    1    1    2  501    0  0.47908843581E+02  0.75754829113E+02 -0.11924822639E+04  0.11958461445E+04  0.00000000000E+00 0. -1.
<scales pt_clust_3="14000.00000" pt_clust_4="71.32280" pt_clust_5="104.82537" pt_clust_6="111.99240"></scales>
<clustering>
<clus scale="   71.323">  2  4  1 -1</clus>
<clus scale="  104.825">  1  5  2 -1</clus>
<clus scale="  111.992">  2  6  1 -1</clus>
<clus scale="  104.825">  1  3  2 -1</clus>
</clustering>
</event>
<event>
 6    0  0.1622933E+002  0.1505310E+03  0.7546771E-02  0.1199822E+00
          2   -1    0    0  503    0 -0.00000000000E+00  0.00000000000E+00  0.14852583639E+04  0.14852583639E+04  0.00000000000E+00 0. -1.
         21   -1    0    0  501  502  0.00000000000E+00 -0.00000000000E+00 -0.33629007987E+02  0.33629007987E+02  0.00000000000E+00 0. -1.
         21    1    1    2  503  505 -0.91967081257E+01 -0.45667515210E+02  0.54061794132E+03  0.54262128585E+03  0.00000000000E+00 0.  1.
         21    1    1    2  504  502 -0.30709706669E+02 -0.68173005868E+01  0.33500903263E+02  0.45955110602E+02  0.00000000000E+00 0. -1.
         21    1    1    2  505  504 -0.22338491865E+02  0.17214129796E+03  0.46756879955E+03  0.49875065614E+03  0.00000000000E+00 0. -1.
          2    1    1    2  501    0  0.62244906660E+02 -0.11965648217E+03  0.40994171173E+03  0.43156031925E+03  0.00000000000E+00 0. -1.
<scales pt_clust_3="47.06201" pt_clust_4="31.45730" pt_clust_5="150.53099" pt_clust_6="14000.00000"></scales>
<clustering>
<clus scale="   31.457">  2  4  1 -1</clus>
<clus scale="   47.062">  1  3  2 -1</clus>
<clus scale="  150.531">  1  5  2 -1</clus>
<clus scale="   31.457">  2  3  1 -1</clus>
</clustering>
</event>
<event>
 6    0  0.1622933E+002  0.1061284E+03  0.7546771E-02  0.1267912E+00
         21   -1    0    0  504  502  0.00000000000E+00  0.00000000000E+00  0.47201894594E+02  0.47201894594E+02  0.00000000000E+00 0.  1.
          1   -1    0    0  503    0 -0.00000000000E+00 -0.00000000000E+00 -0.91319032712E+03  0.91319032712E+03  0.00000000000E+00 0.  1.
         21    1    1    2  503  505  0.69404517124E+02 -0.55494459971E+02 -0.54352675360E+03  0.55074309253E+03  0.00000000000E+00 0.  1.
         21    1    1    2  504  501 -0.46364395127E+02  0.35207650287E+02 -0.15088452235E+03  0.16172623429E+03  0.00000000000E+00 0.  1.
         21    1    1    2  505  502  0.46063499341E+02  0.31484512161E+02  0.68877759024E+01  0.56218875251E+02  0.00000000000E+00 0.  1.
          1    1    1    2  501    0 -0.69103621338E+02 -0.11197702478E+02 -0.17846493247E+03  0.19170401964E+03  0.00000000000E+00 0.  1.
<scales pt_clust_3="93.43824" pt_clust_4="45.89223" pt_clust_5="55.79534" pt_clust_6="45.89223"></scales>
<clustering>
<clus scale="   45.892">  4  6 -1 -1</clus>
<clus scale="   55.795">  1  5  2 -1</clus>
<clus scale="   93.438">  2  3  1 -1</clus>
<clus scale="   55.795">  1  3  2 -1</clus>
</clustering>
</event>
<event>
 6    0  0.1622933E+002  0.1010484E+03  0.7546771E-02  0.1278107E+00
          2   -1    0    0  503    0 -0.00000000000E+00  0.00000000000E+00  0.10249879820E+04  0.10249879820E+04  0.00000000000E+00 0. -1.
         21   -1    0    0  505  502  0.00000000000E+00 -0.00000000000E+00 -0.52567646263E+02  0.52567646263E+02  0.00000000000E+00 0.  1.
         21    1    1    2  503  504 -0.19838666901E+02  0.68453454442E+02  0.25298801815E+03  0.26283528199E+03  0.00000000000E+00 0.  1.
         21    1    1    2  504  502 -0.77027419364E+02  0.34312376770E+02  0.47969527712E+01  0.84460483597E+02  0.00000000000E+00 0.  1.
         21    1    1    2  505  501  0.34041492994E+02 -0.59594966926E+02  0.24308485303E+03  0.25258786412E+03  0.00000000000E+00 0. -1.
          2    1    1    2  501    0  0.62824593272E+02 -0.43170864285E+02  0.47155051183E+03  0.47767199860E+03  0.00000000000E+00 0. -1.
<scales pt_clust_3="71.27025" pt_clust_4="87.05675" pt_clust_5="48.67917" pt_clust_6="48.67917"></scales>
<clustering>
<clus scale="   48.679">  5  6 -1 -1</clus>
<clus scale="   71.270">  1  3  2 -1</clus>
<clus scale="   87.057">  2  4  1 -1</clus>
<clus scale="   87.057">  2  3  1 -1</clus>
</clustering>
</event>
<event>
 6    0  0.1622933E+002  0.1756153E+03  0.7546771E-02  0.1172115E+00
          2   -1    0    0  504    0 -0.00000000000E+00  0.00000000000E+00  0.14471480790E+03  0.14471480790E+03  0.00000000000E+00 0. -1.
         21   -1    0    0  503  502  0.00000000000E+00 -0.00000000000E+00 -0.13407506060E+04  0.13407506060E+04  0.00000000000E+00 0.  1.
         21    1    1    2  503  501 -0.10532140075E+02  0.34701316808E+02 -0.58598652781E+03  0.58710758651E+03  0.00000000000E+00 0.  1.
         21    1    1    2  504  505  0.17499758559E+02  0.43885461544E+02  0.73319723179E+02  0.87223603982E+02  0.00000000000E+00 0.  1.
         21    1    1    2  505  502  0.63973729730E+02 -0.20435626048E+03 -0.61530030219E+03  0.65149718432E+03  0.00000000000E+00 0.  1.
          2    1    1    2  501    0 -0.70941348215E+02  0.12576948213E+03 -0.68068691291E+02  0.15963703911E+03  0.00000000000E+00 0. -1.
<scales pt_clust_3="36.26441" pt_clust_4="47.50751" pt_clust_5="175.61530" pt_clust_6="14000.00000"></scales>
<clustering>
<clus scale="   36.264">  2  3  1 -1</clus>
<clus scale="   47.508">  1  4  2 -1</clus>
<clus scale="  175.615">  2  5  1 -1</clus>
<clus scale="   36.264">  2  3  1 -1</clus>
</clustering>
</event>
<event>
 6    0  0.1622933E+002  0.1499861E+03  0.7546771E-02  0.1200490E+00
         21   -1    0    0  505  502  0.00000000000E+00  0.00000000000E+00  0.23336588421E+03  0.23336588421E+03  0.00000000000E+00 0.  1.
         -3   -1    0    0    0  501 -0.00000000000E+00 -0.00000000000E+00 -0.28021265822E+03  0.28021265822E+03  0.00000000000E+00 0.  1.
         21    1    1    2  503  501 -0.13408351084E+02  0.70879825933E+02 -0.11159453274E+03  0.13287992076E+03  0.00000000000E+00 0.  1.
         21    1    1    2  504  503 -0.17961292187E+02  0.43637113351E+02 -0.24797829597E+02  0.53307954672E+02  0.00000000000E+00 0.  1.
         21    1    1    2  505  504  0.89447145982E+02 -0.11889925661E+03  0.17137395278E+03  0.22695122128E+03  0.00000000000E+00 0.  1.
         -3    1    1    2    0  502 -0.58077502712E+02  0.43823173293E+01 -0.81828364452E+02  0.10043944571E+03  0.00000000000E+00 0.  1.
<scales pt_clust_3="35.85157" pt_clust_4="35.85157" pt_clust_5="143.28634" pt_clust_6="58.24260"></scales>
<clustering>
<clus scale="   35.852">  3  4 -1 -1</clus>
<clus scale="   58.243">  2  6  1 -1</clus>
<clus scale="  143.286">  1  5  2 -1</clus>
<clus scale="  143.286">  1  3  2 -1</clus>
</clustering>
</event>
<event>
 6    0  0.1622933E+002  0.1034819E+03  0.7546771E-02  0.1273140E+00
         21   -1    0    0  501  502  0.00000000000E+00  0.00000000000E+00  0.38095986029E+03  0.38095986029E+03  0.00000000000E+00 0. -1.
          1   -1    0    0  505    0 -0.00000000000E+00 -0.00000000000E+00 -0.99624132762E+03  0.99624132762E+03  0.00000000000E+00 0.  1.
         21    1    1    2  503  504  0.67554764238E+02  0.77257398429E+01 -0.11079184912E+03  0.12999295003E+03  0.00000000000E+00 0. -1.
         21    1    1    2  504  502 -0.56272306376E+01  0.10316563538E+03  0.34997756914E+03  0.36490973260E+03  0.00000000000E+00 0. -1.
         21    1    1    2  505  503 -0.28634596633E+02  0.12869532833E+02 -0.18241171307E+02  0.36308474635E+02  0.00000000000E+00 0. -1.
          1    1    1    2  501    0 -0.33292936967E+02 -0.12376090805E+03 -0.83622601605E+03  0.84599003064E+03  0.00000000000E+00 0.  1.
<scales pt_clust_3="64.67274" pt_clust_4="103.48188" pt_clust_5="31.39371" pt_clust_6="14000.00000"></scales>
<clustering>
<clus scale="   31.394">  2  5  1 -1</clus>
<clus scale="   64.673">  2  3  1 -1</clus>
<clus scale="  103.482">  1  4  2 -1</clus>
<clus scale="  103.482">  1  3  2 -1</clus>
</clustering>
</event>
<event>
 6    0  0.1622933E+002  0.1048702E+03  0.7546771E-02  0.1270376E+00
         21   -1    0    0  505  502  0.00000000000E+00  0.00000000000E+00  0.46590983094E+02  0.46590983094E+02  0.00000000000E+00 0.  1.
          2   -1    0    0  504    0 -0.00000000000E+00 -0.00000000000E+00 -0.19585301363E+04  0.19585301363E+04  0.00000000000E+00 0.  1.
         21    1    1    2  503  501 -0.45722415411E+02 -0.10785068276E+03 -0.67538472012E+03  0.68546832838E+03  0.00000000000E+00 0.  1.
         21    1    1    2  504  502  0.28624563895E+02  0.51928627531E+02 -0.32798857421E+03  0.33330534473E+03  0.00000000000E+00 0.  1.
         21    1    1    2  505  503 -0.15318317337E+02  0.10408249444E+03 -0.35026792477E+02  0.11088143527E+03  0.00000000000E+00 0.  1.
          2    1    1    2  501    0  0.32416168853E+02 -0.48160439212E+02 -0.87353906639E+03  0.87546601100E+03  0.00000000000E+00 0.  1.
<scales pt_clust_3="14000.00000" pt_clust_4="53.57155" pt_clust_5="104.87019" pt_clust_6="58.05373"></scales>
<clustering>
<clus scale="   58.054">  2  6  1 -1</clus>
<clus scale="   53.572">  2  4  1 -1</clus>
<clus scale="  104.870">  1  5  2 -1</clus>
<clus scale="  104.870">  1  3  2 -1</clus>
</clustering>
</event>
<event>
 6    0  0.1622933E+002  0.6638712E+02  0.7546771E-02  0.1372828E+00
          1   -1    0    0  504    0 -0.00000000000E+00  0.00000000000E+00  0.10063295885E+04  0.10063295885E+04  0.00000000000E+00 0. -1.
         21   -1    0    0  505  502  0.00000000000E+00 -0.00000000000E+00 -0.10148852001E+03  0.10148852001E+03  0.00000000000E+00 0. -1.
         21    1    1    2  503  502 -0.55548829503E+02  0.34435600532E+02 -0.75349007710E+02  0.99744453510E+02  0.00000000000E+00 0. -1.
         21    1    1    2  504  503 -0.60725107905E+02 -0.11216112191E+02  0.25301891995E+03  0.26044560614E+03  0.00000000000E+00 0. -1.
         21    1    1    2  505  501  0.76584687538E+02 -0.31144692074E+02  0.17049800830E+03  0.18948555893E+03  0.00000000000E+00 0. -1.
          1    1    1    2  501    0  0.39689249870E+02  0.79252037332E+01  0.55667314798E+03  0.55814248995E+03  0.00000000000E+00 0. -1.
<scales pt_clust_3="14000.00000" pt_clust_4="38.61028" pt_clust_5="66.38712" pt_clust_6="40.47277"></scales>
<clustering>
<clus scale="   40.473">  1  6  2 -1</clus>
<clus scale="   38.610">  1  4  2 -1</clus>
<clus scale="   66.387">  1  5  2 -1</clus>
<clus scale="   66.387">  2  3  1 -1</clus>
</clustering>
</event>
<event>
 6    0  0.1622933E+002  0.1019802E+03  0.7546771E-02  0.1276186E+00
          1   -1    0    0  504    0 -0.00000000000E+00  0.00000000000E+00  0.12333169811E+04  0.12333169811E+04  0.00000000000E+00 0.  1.
         21   -1    0    0  501  502  0.00000000000E+00 -0.00000000000E+00 -0.62265260101E+02  0.62265260101E+02  0.00000000000E+00 0. -1.
         21    1    1    2  503  502 -0.25259693220E+02 -0.23866593875E+02  0.58751281334E+02  0.68259647400E+02  0.00000000000E+00 0.  1.
         21    1    1    2  504  505  0.41276203927E+02  0.14861689116E+02  0.50478180308E+03  0.50668457993E+03  0.00000000000E+00 0. -1.
         21    1    1    2  505  503  0.15545438176E+02 -0.82257228929E+02 -0.19724097291E+02  0.86005536875E+02  0.00000000000E+00 0. -1.
          1    1    1    2  501    0 -0.31561948883E+02  0.91262133688E+02  0.62724273389E+03  0.63463247701E+03  0.00000000000E+00 0.  1.
<scales pt_clust_3="34.75150" pt_clust_4="43.34391" pt_clust_5="101.98019" pt_clust_6="14000.00000"></scales>
<clustering>
<clus scale="   34.751">  2  3  1 -1</clus>
<clus scale="   43.344">  1  4  2 -1</clus>
<clus scale="  101.980">  2  5  1 -1</clus>
<clus scale="   34.751">  2  3  1 -1</clus>
</clustering>
</event>
<event>
 6    0  0.1622933E+002  0.1286513E+03  0.7546771E-02  0.1229471E+00
         21   -1    0    0  504  502  0.00000000000E+00  0.00000000000E+00  0.60076131357E+03  0.60076131357E+03  0.00000000000E+00 0. -1.
          4   -1    0    0  505    0 -0.00000000000E+00 -0.00000000000E+00 -0.32709079078E+03  0.32709079078E+03  0.00000000000E+00 0.  1.
         21    1    1    2  503  502 -0.37587560541E+02 -0.71141879673E+02 -0.14026347535E+03  0.16170291979E+03  0.00000000000E+00 0.  1.
         21    1    1    2  504  501  0.30404820250E+02  0.54736237448E+01  0.55356945749E+03  0.55443084142E+03  0.00000000000E+00 0. -1.
         21    1    1    2  505  503 -0.36807309822E+02 -0.32760178720E+02 -0.28692614056E+02  0.57019939209E+02  0.00000000000E+00 0.  1.
          4    1    1    2  501    0  0.43990050113E+02  0.98428434649E+02 -0.11094284530E+03  0.15469840394E+03  0.00000000000E+00 0.  1.
<scales pt_clust_3="40.18598" pt_clust_4="30.89359" pt_clust_5="40.18598" pt_clust_6="116.56701"></scales>
<clustering>
<clus scale="   30.894">  1  4  2 -1</clus>
<clus scale="   40.186">  3  5 -1 -1</clus>
<clus scale="  116.567">  2  6  1 -1</clus>
<clus scale="   30.894">  1  3  2 -1</clus>
</clustering>
</event>
<event>
 6    0  0.1622933E+002  0.1439769E+03  0.7546771E-02  0.1208076E+00
         21   -1    0    0  504  502  0.00000000000E+00  0.00000000000E+00  0.35191016764E+03  0.35191016764E+03  0.00000000000E+00 0.  1.
          2   -1    0    0  505    0 -0.00000000000E+00 -0.00000000000E+00 -0.24987074190E+04  0.24987074190E+04  0.00000000000E+00 0. -1.
         21    1    1    2  503  502 -0.10980277899E+02  0.32596517417E+02  0.29291699597E+03  0.29492959495E+03  0.00000000000E+00 0.  1.
         21    1    1    2  504  501 -0.51865524785E+02 -0.35718726307E+02 -0.10729300682E+03  0.12440920136E+03  0.00000000000E+00 0.  1.
         21    1    1    2  505  503 -0.28996190318E+02  0.11621683202E+03 -0.28980779880E+02  0.12323561458E+03  0.00000000000E+00 0.  1.
          2    1    1    2  501    0  0.91841993002E+02 -0.11309462313E+03 -0.23034404607E+04  0.23080431758E+04  0.00000000000E+00 0. -1.
<scales pt_clust_3="34.39621" pt_clust_4="61.77425" pt_clust_5="143.97688" pt_clust_6="14000.00000"></scales>
<clustering>
<clus scale="   34.396">  1  3  2 -1</clus>
<clus scale="   61.774">  1  4  2 -1</clus>
<clus scale="  143.977">  1  5  2 -1</clus>
<clus scale="   34.396">  1  3  2 -1</clus>
</clustering>
</event>
<event>
 6    0  0.1622933E+002  0.1111642E+03  0.7546771E-02  0.1258429E+00
         21   -1    0    0  503  502  0.00000000000E+00  0.00000000000E+00  0.34165930778E+03  0.34165930778E+03  0.00000000000E+00 0.  1.
         -1   -1    0    0    0  501 -0.00000000000E+00 -0.00000000000E+00 -0.10067469838E+04  0.10067469838E+04  0.00000000000E+00 0. -1.
         21    1    1    2  503  504 -0.16100453392E+02  0.11466602190E+03  0.28998443017E+03  0.31224748345E+03  0.00000000000E+00 0.  1.
         21    1    1    2  504  505  0.66366837179E+02 -0.70715385006E+02 -0.39706582748E+02  0.10479425303E+03  0.00000000000E+00 0.  1.
         21    1    1    2  505  501 -0.43970280617E+02  0.13807595200E+02 -0.68813399356E+02  0.82821006959E+02  0.00000000000E+00 0.  1.
         -1    1    1    2    0  502 -0.62961031698E+01 -0.57758232092E+02 -0.84655212405E+03  0.84854354810E+03  0.00000000000E+00 0. -1.
<scales pt_clust_3="14000.00000" pt_clust_4="111.16419" pt_clust_5="46.08726" pt_clust_6="64.71618"></scales>
<clustering>
<clus scale="   46.087">  2  5  1 -1</clus>
<clus scale="   64.716">  2  6  1 -1</clus>
<clus scale="  111.164">  2  4  1 -1</clus>
<clus scale="  111.164">  1  3  2 -1</clus>
</clustering>
</event>
<event>
 6    0  0.1622933E+002  0.1299941E+03  0.7546771E-02  0.1227464E+00
         21   -1    0    0  504  502  0.00000000000E+00  0.00000000000E+00  0.58594603451E+03  0.58594603451E+03  0.00000000000E+00 0. -1.
          2   -1    0    0  505    0 -0.00000000000E+00 -0.00000000000E+00 -0.89875840579E+03  0.89875840579E+03  0.00000000000E+00 0.  1.
         21    1    1    2  503  501 -0.47239564717E+02  0.67290299934E+02  0.13469613073E+02  0.83312612588E+02  0.00000000000E+00 0.  1.
         21    1    1    2  504  503 -0.74987597019E+02  0.15795395091E+02  0.51323566921E+03  0.51892531867E+03  0.00000000000E+00 0. -1.
         21    1    1    2  505  502  0.25410069772E+02  0.59108080352E+02 -0.74912983737E+02  0.98749136407E+02  0.00000000000E+00 0.  1.
          2    1    1    2  501    0  0.96817091964E+02 -0.14219377538E+03 -0.76460466982E+03  0.78371737263E+03  0.00000000000E+00 0.  1.
<scales pt_clust_3="14000.00000" pt_clust_4="76.58900" pt_clust_5="64.33846" pt_clust_6="129.99412"></scales>
<clustering>
<clus scale="   64.338">  2  5  1 -1</clus>
<clus scale="   76.589">  1  4  2 -1</clus>
<clus scale="  129.994">  2  6  1 -1</clus>
<clus scale="   76.589">  1  3  2 -1</clus>
</clustering>
</event>
<event>
 6    0  0.1622933E+002  0.7772621E+02  0.7546771E-02  0.1335631E+00
         21   -1    0    0  503  502  0.00000000000E+00  0.00000000000E+00  0.16811689942E+04  0.16811689942E+04  0.00000000000E+00 0. -1.
         -2   -1    0    0    0  501 -0.00000000000E+00 -0.00000000000E+00 -0.27172531025E+02  0.27172531025E+02  0.00000000000E+00 0. -1.
         21    1    1    2  503  505  0.30542587702E+02  0.83706651378E+02  0.11258804838E+04  0.11294009549E+04  0.00000000000E+00 0. -1.
         21    1    1    2  504  501  0.46973770890E+01 -0.32142358573E+02  0.16181197713E+01  0.32524066132E+02  0.00000000000E+00 0. -1.
         21    1    1    2  505  504  0.44331183887E+02 -0.48093211478E+02  0.27160020003E+03  0.27936513653E+03  0.00000000000E+00 0. -1.
         -2    1    1    2    0  502 -0.79571148678E+02 -0.34710813270E+01  0.25489765962E+03  0.26705136769E+03  0.00000000000E+00 0. -1.
<scales pt_clust_3="14000.00000" pt_clust_4="32.48379" pt_clust_5="74.53989" pt_clust_6="77.72621"></scales>
<clustering>
<clus scale="   32.484">  2  4  1 -1</clus>
<clus scale="   74.540">  2  5  1 -1</clus>
<clus scale="   77.726">  2  6  1 -1</clus>
<clus scale="   77.726">  1  3  2 -1</clus>
</clustering>
</event>
<event>
 6    0  0.1622933E+002  0.1429278E+03  0.7546771E-02  0.1209443E+00
         21   -1    0    0  505  502  0.00000000000E+00  0.00000000000E+00  0.14645541138E+03  0.14645541138E+03  0.00000000000E+00 0.  1.
         -1   -1    0    0    0  501 -0.00000000000E+00 -0.00000000000E+00 -0.11893319763E+04  0.11893319763E+04  0.00000000000E+00 0. -1.
         21    1    1    2  503  501  0.10856023410E+02  0.18845584109E+03  0.45683243134E+02  0.19421744512E+03  0.00000000000E+00 0.  1.
         21    1    1    2  504  502  0.30329503304E+02 -0.70754185918E+02 -0.39814775971E+03  0.40552148175E+03  0.00000000000E+00 0. -1.
         21    1    1    2  505  503 -0.58433626588E+02 -0.66015679325E+02 -0.68218003030E+02  0.11147311142E+03  0.00000000000E+00 0.  1.
         -1    1    1    2    0  504  0.17248099873E+02 -0.51685975848E+02 -0.62219404528E+03  0.62457534936E+03  0.00000000000E+00 0. -1.
<scales pt_clust_3="132.97178" pt_clust_4="44.09380" pt_clust_5="88.16212" pt_clust_6="44.09380"></scales>
<clustering>
<clus scale="   44.094">  4  6 -1 -1</clus>
<clus scale="   88.162">  1  5  2 -1</clus>
<clus scale="  132.972">  1  3  2 -1</clus>
<clus scale="   88.162">  1  3  2 -1</clus>
</clustering>
</event>
<event>
 6    0  0.2017433E+002  0.1502476E+03  0.7546771E-02  0.1200169E+00
         21   -1    0    0  501  502  0.00000000000E+00  0.00000000000E+00  0.11150467673E+04  0.11150467673E+04  0.00000000000E+00 0.  1.
          2   -1    0    0  503    0 -0.00000000000E+00 -0.00000000000E+00 -0.14351131191E+04  0.14351131191E+04  0.00000000000E+00 0.  1.
         21    1    1    2  503  505  0.75496877356E+02  0.37997389489E+02 -0.28889874776E+03  0.30100841608E+03  0.00000000000E+00 0. -1.
         21    1    1    2  504  502 -0.25472199437E+02 -0.15253415221E+03  0.10882954363E+04  0.10992281188E+04  0.00000000000E+00 0.  1.
         21    1    1    2  505  504 -0.27572743236E+01  0.74172139374E+02 -0.82013259773E+02  0.11061321621E+03  0.00000000000E+00 0.  1.
          2    1    1    2  501    0 -0.47267403595E+02  0.40364623343E+02 -0.10374497805E+04  0.10393101353E+04  0.00000000000E+00 0.  1.
<scales pt_clust_3="79.07901" pt_clust_4="150.24763" pt_clust_5="14000.00000" pt_clust_6="62.15714"></scales>
<clustering>
<clus scale="   62.157">  2  6  1 -1</clus>
<clus scale="   79.079">  2  3  1 -1</clus>
<clus scale="  150.248">  1  4  2 -1</clus>
<clus scale="  150.248">  1  3  2 -1</clus>
</clustering>
</event>
<event>
 6    0  0.1622933E+002  0.9577052E+02  0.7546771E-02  0.1289450E+00
         21   -1    0    0  505  502  0.00000000000E+00  0.00000000000E+00  0.56478464849E+03  0.56478464849E+03  0.00000000000E+00 0.  1.
          2   -1    0    0  503    0 -0.00000000000E+00 -0.00000000000E+00 -0.28978274242E+04  0.28978274242E+04  0.00000000000E+00 0. -1.
         21    1    1    2  503  504 -0.56136192280E+02  0.91484810760E+01 -0.20387678573E+04  0.20395610662E+04  0.00000000000E+00 0. -1.
         21    1    1    2  504  502  0.15253720475E+03 -0.59798372022E+02 -0.45211523176E+03  0.48088629313E+03  0.00000000000E+00 0. -1.
         21    1    1    2  505  501 -0.57314397977E+02  0.64300262600E+02  0.54552105392E+03  0.55227953452E+03  0.00000000000E+00 0.  1.
          2    1    1    2  501    0 -0.39086614492E+02 -0.13650371654E+02 -0.38768074048E+03  0.38988517876E+03  0.00000000000E+00 0. -1.
<scales pt_clust_3="14000.00000" pt_clust_4="95.77052" pt_clust_5="86.15763" pt_clust_6="41.40164"></scales>
<clustering>
<clus scale="   41.402">  2  6  1 -1</clus>
<clus scale="   86.158">  1  5  2 -1</clus>
<clus scale="   95.771">  1  4  2 -1</clus>
<clus scale="   86.158">  1  3  2 -1</clus>
</clustering>
</event>
<event>
 6    0  0.1622933E+002  0.1225897E+03  0.7546771E-02  0.1238885E+00
         21   -1    0    0  505  502  0.00000000000E+00  0.00000000000E+00  0.33426587936E+04  0.33426587936E+04  0.00000000000E+00 0.  1.
          2   -1    0    0  503    0 -0.00000000000E+00 -0.00000000000E+00 -0.94645975449E+03  0.94645975449E+03  0.00000000000E+00 0. -1.
         21    1    1    2  503  504 -0.16352845647E+02 -0.31352663200E+02  0.84791542010E+01  0.36363458395E+02  0.00000000000E+00 0. -1.
         21    1    1    2  504  502  0.15586910980E+02 -0.40493143307E+02 -0.41879475115E+03  0.42103644740E+03  0.00000000000E+00 0. -1.
         21    1    1    2  505  501 -0.28269082524E+02 -0.11912620018E+03  0.32997429189E+04  0.33020135559E+04  0.00000000000E+00 0.  1.
          2    1    1    2  501    0  0.29035017190E+02  0.19097200668E+03 -0.49322828283E+03  0.52970508639E+03  0.00000000000E+00 0. -1.
<scales pt_clust_3="35.36107" pt_clust_4="55.22698" pt_clust_5="14000.00000" pt_clust_6="122.58966"></scales>
<clustering>
<clus scale="   35.361">  2  3  1 -1</clus>
<clus scale="   55.227">  2  4  1 -1</clus>
<clus scale="  122.590">  2  6  1 -1</clus>
<clus scale="  122.590">  1  3  2 -1</clus>
</clustering>
</event>
<event>
 6    0  0.1622933E+002  0.8838952E+02  0.7546771E-02  0.1306799E+00
         -2   -1    0    0    0  501 -0.00000000000E+00  0.00000000000E+00  0.12124730597E+04  0.12124730597E+04  0.00000000000E+00 0.  1.
         21   -1    0    0  505  502  0.00000000000E+00 -0.00000000000E+00 -0.89554302402E+02  0.89554302402E+02  0.00000000000E+00 0.  1.
         21    1    1    2  503  501 -0.32636127863E+02 -0.33790876743E+01  0.35668610545E+03  0.35819200563E+03  0.00000000000E+00 0.  1.
         21    1    1    2  504  503 -0.50136911118E+02 -0.53247137353E+02  0.21032778312E+03  0.22268081157E+03  0.00000000000E+00 0. -1.
         21    1    1    2  505  504  0.42871029052E+02 -0.45519688101E+02 -0.65261276267E+02  0.90382527719E+02  0.00000000000E+00 0.  1.
         -2    1    1    2    0  502  0.39902009928E+02  0.10214591313E+03  0.62116614497E+03  0.63077201715E+03  0.00000000000E+00 0.  1.
<scales pt_clust_3="32.81059" pt_clust_4="88.38952" pt_clust_5="62.23834" pt_clust_6="14000.00000"></scales>
<clustering>
<clus scale="   32.811">  1  3  2 -1</clus>
<clus scale="   62.238">  2  5  1 -1</clus>
<clus scale="   88.390">  2  4  1 -1</clus>
<clus scale="   62.238">  2  3  1 -1</clus>
</clustering>
</event>
<event>
 6    0  0.1622933E+002  0.7737917E+02  0.7546771E-02  0.1336658E+00
         21   -1    0    0  505  502  0.00000000000E+00  0.00000000000E+00  0.41798205837E+03  0.41798205837E+03  0.00000000000E+00 0.  1.
          1   -1    0    0  503    0 -0.00000000000E+00 -0.00000000000E+00 -0.14632925234E+03  0.14632925234E+03  0.00000000000E+00 0.  1.
         21    1    1    2  503  504 -0.22331416307E+02 -0.49504090511E+02 -0.12151033464E+02  0.55650649105E+02  0.00000000000E+00 0.  1.
         21    1    1    2  504  502 -0.22537566791E+02 -0.11087128550E+03  0.26420665759E+03  0.28741179826E+03  0.00000000000E+00 0.  1.
         21    1    1    2  505  501  0.11297677539E+02  0.48701789598E+02  0.76584254366E+02  0.91458459667E+02  0.00000000000E+00 0.  1.
          1    1    1    2  501    0  0.33571305560E+02  0.11167358641E+03 -0.56987072462E+02  0.12979040367E+03  0.00000000000E+00 0.  1.
<scales pt_clust_3="51.11803" pt_clust_4="77.37917" pt_clust_5="49.99502" pt_clust_6="14000.00000"></scales>
<clustering>
<clus scale="   49.995">  1  5  2 -1</clus>
<clus scale="   51.118">  2  3  1 -1</clus>
<clus scale="   77.379">  1  4  2 -1</clus>
<clus scale="   49.995">  1  3  2 -1</clus>
</clustering>
</event>
<event>
 6    0  0.1622933E+002  0.1053720E+03  0.7546771E-02  0.1269388E+00
         21   -1    0    0  501  502  0.00000000000E+00  0.00000000000E+00  0.68343306612E+02  0.68343306612E+02  0.00000000000E+00 0.  1.
          2   -1    0    0  503    0 -0.00000000000E+00 -0.00000000000E+00 -0.56070015101E+03  0.56070015101E+03  0.00000000000E+00 0.  1.
         21    1    1    2  503  505  0.38055309097E+02 -0.10162466462E+02 -0.90371449058E+02  0.98582356839E+02  0.00000000000E+00 0.  1.
         21    1    1    2  504  502 -0.85015555417E+01 -0.34216809660E+02 -0.15205920500E+02  0.38396439004E+02  0.00000000000E+00 0.  1.
         21    1    1    2  505  504  0.98718077095E+02 -0.78567141187E+01 -0.21399933576E+02  0.10131605924E+03  0.00000000000E+00 0. -1.
          2    1    1    2  501    0 -0.12827183065E+03  0.52235990240E+02 -0.36537954127E+03  0.39074860255E+03  0.00000000000E+00 0.  1.
<scales pt_clust_3="39.51569" pt_clust_4="35.25715" pt_clust_5="105.37201" pt_clust_6="14000.00000"></scales>
<clustering>
<clus scale="   35.257">  1  4  2 -1</clus>
<clus scale="   39.516">  2  3  1 -1</clus>
<clus scale="  105.372">  1  5  2 -1</clus>
<clus scale="   35.257">  1  3  2 -1</clus>
</clustering>
</event>
<event>
 6    0  0.1622933E+002  0.1288108E+03  0.7546771E-02  0.1229231E+00
          2   -1    0    0  505    0 -0.00000000000E+00  0.00000000000E+00  0.57049755837E+03  0.57049755837E+03  0.00000000000E+00 0.  1.
         21   -1    0    0  501  502  0.00000000000E+00 -0.00000000000E+00 -0.26362621247E+03  0.26362621247E+03  0.00000000000E+00 0.  1.
         21    1    1    2  503  504  0.61164619692E+02  0.51109065562E+01  0.14222238784E+03  0.15490138693E+03  0.00000000000E+00 0. -1.
         21    1    1    2  504  502 -0.10892722892E+03 -0.72150642162E+02 -0.21542394014E+03  0.25194906301E+03  0.00000000000E+00 0.  1.
         21    1    1    2  505  503  0.94007256953E+01 -0.59727350110E+02  0.15120466002E+03  0.16284526154E+03  0.00000000000E+00 0.  1.
          2    1    1    2  501    0  0.38361883534E+02  0.12676708572E+03  0.22886823819E+03  0.26442805936E+03  0.00000000000E+00 0.  1.
<scales pt_clust_3="66.58087" pt_clust_4="128.81082" pt_clust_5="60.46263" pt_clust_6="14000.00000"></scales>
<clustering>
<clus scale="   60.463">  1  5  2 -1</clus>
<clus scale="   66.581">  1  3  2 -1</clus>
<clus scale="  128.811">  2  4  1 -1</clus>
<clus scale="  128.811">  2  3  1 -1</clus>
</clustering>
</event>
<event>
 6    0  0.1622933E+002  0.2067546E+03  0.7546771E-02  0.1144162E+00
         21   -1    0    0  505  502  0.00000000000E+00  0.00000000000E+00  0.73951098767E+03  0.73951098767E+03  0.00000000000E+00 0.  1.
          2   -1    0    0  502    0 -0.00000000000E+00 -0.00000000000E+00 -0.14839749806E+04  0.14839749806E+04  0.00000000000E+00 0.  1.
         21    1    1    2  503  504 -0.10478110113E+03  0.16152792261E+03 -0.64334571898E+01  0.19264407156E+03  0.00000000000E+00 0.  1.
         21    1    1    2  504  501  0.54668167014E+02 -0.78466407010E+02 -0.68173093857E+03  0.68840588182E+03  0.00000000000E+00 0.  1.
         21    1    1    2  505  503 -0.37512232802E+02 -0.13529911722E+02  0.63796876964E+03  0.63921387435E+03  0.00000000000E+00 0.  1.
          2    1    1    2  501    0  0.87625166916E+02 -0.69531603877E+02 -0.69426836679E+03  0.70322214054E+03  0.00000000000E+00 0.  1.
<scales pt_clust_3="204.06817" pt_clust_4="30.71721" pt_clust_5="39.87764" pt_clust_6="30.71721"></scales>
<clustering>
<clus scale="   30.717">  4  6 -1 -1</clus>
<clus scale="   39.878">  1  5  2 -1</clus>
<clus scale="  204.068">  1  3  2 -1</clus>
<clus scale="   39.878">  1  3  2 -1</clus>
</clustering>
</event>
<event>
 6    0  0.1622933E+002  0.1457616E+03  0.7546771E-02  0.1205780E+00
         21   -1    0    0  503  502  0.00000000000E+00  0.00000000000E+00  0.20564802348E+03  0.20564802348E+03  0.00000000000E+00 0.  1.
          1   -1    0    0  504    0 -0.00000000000E+00 -0.00000000000E+00 -0.93690117999E+03  0.93690117999E+03  0.00000000000E+00 0.  1.
         21    1    1    2  503  501 -0.90128601141E+02 -0.25310016810E+02 -0.28023480171E+03  0.29545779019E+03  0.00000000000E+00 0.  1.
         21    1    1    2  504  505  0.31118616311E+02  0.45821734600E+02 -0.23847141077E+03  0.24481955273E+03  0.00000000000E+00 0. -1.
         21    1    1    2  505  502  0.14034072095E+03  0.90529713512E+01  0.16392410385E+03  0.21598283744E+03  0.00000000000E+00 0.  1.
          1    1    1    2  501    0 -0.81330736119E+02 -0.29564689141E+02 -0.37647104788E+03  0.38628902311E+03  0.00000000000E+00 0.  1.
<scales pt_clust_3="31.98354" pt_clust_4="55.38953" pt_clust_5="141.91490" pt_clust_6="31.98354"></scales>
<clustering>
<clus scale="   31.984">  3  6 -1 -1</clus>
<clus scale="   55.390">  2  4  1 -1</clus>
<clus scale="  141.915">  1  5  2 -1</clus>
<clus scale="  141.915">  1  3  2 -1</clus>
</clustering>
</event>
<event>
 6    0  0.1622933E+002  0.1303132E+03  0.7546771E-02  0.1226992E+00
          1   -1    0    0  504    0 -0.00000000000E+00  0.00000000000E+00  0.14160627653E+04  0.14160627653E+04  0.00000000000E+00 0. -1.
         21   -1    0    0  503  502  0.00000000000E+00 -0.00000000000E+00 -0.11290524417E+03  0.11290524417E+03  0.00000000000E+00 0. -1.
         21    1    1    2  503  501 -0.11262373628E+02  0.49735320434E+02  0.46186435512E+03  0.46467098650E+03  0.00000000000E+00 0. -1.
         21    1    1    2  504  505 -0.20219798679E+02 -0.92574277986E+02  0.48128604036E+02  0.10627887716E+03  0.00000000000E+00 0. -1.
         21    1    1    2  505  502 -0.51933301694E+01 -0.30380690995E+02 -0.77555579550E+02  0.83455526976E+02  0.00000000000E+00 0. -1.
          1    1    1    2  501    0  0.36675502476E+02  0.73219648546E+02  0.87072014154E+03  0.87456261885E+03  0.00000000000E+00 0. -1.
<scales pt_clust_3="35.25263" pt_clust_4="122.39311" pt_clust_5="30.82137" pt_clust_6="35.25263"></scales>
<clustering>
<clus scale="   30.821">  2  5  1 -1</clus>
<clus scale="   35.253">  3  6 -1 -1</clus>
<clus scale="  122.393">  2  4  1 -1</clus>
<clus scale="   30.821">  2  3  1 -1</clus>
</clustering>
</event>
<event>
 6    0  0.1622933E+002  0.8992761E+02  0.7546771E-02  0.1303027E+00
         -3   -1    0    0    0  501 -0.00000000000E+00  0.00000000000E+00  0.14235582034E+04  0.14235582034E+04  0.00000000000E+00 0. -1.
         21   -1    0    0  505  502  0.00000000000E+00 -0.00000000000E+00 -0.58824019693E+02  0.58824019693E+02  0.00000000000E+00 0.  1.
         21    1    1    2  503  501 -0.33120340299E+02  0.40906736424E+02  0.23939206601E+03  0.24510993308E+03  0.00000000000E+00 0.  1.
         21    1    1    2  504  502 -0.21862831579E+02  0.51329288179E+02 -0.21595127897E+02  0.59824984568E+02  0.00000000000E+00 0.  1.
         21    1    1    2  505  503  0.77139069123E+02 -0.13391801420E+03  0.39691860833E+03  0.42594465856E+03  0.00000000000E+00 0. -1.
         -3    1    1    2    0  504 -0.22155897246E+02  0.41681989597E+02  0.75001863731E+03  0.75150264693E+03  0.00000000000E+00 0. -1.
<scales pt_clust_3="14000.00000" pt_clust_4="57.12770" pt_clust_5="89.92761" pt_clust_6="47.20458"></scales>
<clustering>
<clus scale="   47.205">  1  6  2 -1</clus>
<clus scale="   57.128">  2  4  1 -1</clus>
<clus scale="   89.928">  2  5  1 -1</clus>
<clus scale="   57.128">  2  3  1 -1</clus>
</clustering>
</event>
<event>
 6    0  0.1622933E+002  0.9941376E+02  0.7546771E-02  0.1281534E+00
          1   -1    0    0  503    0 -0.00000000000E+00  0.00000000000E+00  0.11755799270E+03  0.11755799270E+03  0.00000000000E+00 0.  1.
         21   -1    0    0  504  502  0.00000000000E+00 -0.00000000000E+00 -0.22059472410E+04  0.22059472410E+04  0.00000000000E+00 0.  1.
         21    1    1    2  503  505 -0.47052504296E+02  0.34824730206E+02 -0.74145507102E+02  0.94468281544E+02  0.00000000000E+00 0. -1.
         21    1    1    2  504  501  0.57438091265E+02 -0.27004643378E+02 -0.39021794631E+02  0.74505607496E+02  0.00000000000E+00 0.  1.
         21    1    1    2  505  502 -0.83502892222E+02  0.58697759664E+02 -0.20359584956E+04  0.20385154294E+04  0.00000000000E+00 0.  1.
          1    1    1    2  501    0  0.73117305253E+02 -0.66517846492E+02  0.60736548981E+02  0.11601591534E+03  0.00000000000E+00 0.  1.
<scales pt_clust_3="58.53802" pt_clust_4="14000.00000" pt_clust_5="99.41376" pt_clust_6="51.15326"></scales>
<clustering>
<clus scale="   58.538">  1  3  2 -1</clus>
<clus scale="   51.153">  1  6  2 -1</clus>
<clus scale="   99.414">  2  5  1 -1</clus>
<clus scale="   99.414">  2  3  1 -1</clus>
</clustering>
</event>
<event>
 6    0  0.1622933E+002  0.1252182E+03  0.7546771E-02  0.1234729E+00
         -1   -1    0    0    0  501 -0.00000000000E+00  0.00000000000E+00  0.11585364119E+03  0.11585364119E+03  0.00000000000E+00 0. -1.
         21   -1    0    0  504  502  0.00000000000E+00 -0.00000000000E+00 -0.67515789833E+03  0.67515789833E+03  0.00000000000E+00 0. -1.
         21    1    1    2  503  505 -0.35220386944E+02  0.10937241138E+02  0.34870351739E+01  0.37044005108E+02  0.00000000000E+00 0. -1.
         21    1    1    2  504  501  0.13602538220E+03  0.49560138010E+02 -0.16683996170E+03  0.22089518941E+03  0.00000000000E+00 0. -1.
         21    1    1    2  505  502 -0.35250461419E+02 -0.14529861787E+02 -0.44002797112E+03  0.44167672259E+03  0.00000000000E+00 0.  1.
         -1    1    1    2    0  503 -0.65554533834E+02 -0.45967517361E+02  0.44076640510E+02  0.91395622418E+02  0.00000000000E+00 0. -1.
<scales pt_clust_3="36.24310" pt_clust_4="113.26020" pt_clust_5="38.12757" pt_clust_6="36.24310"></scales>
<clustering>
<clus scale="   36.243">  3  6 -1 -1</clus>
<clus scale="   38.128">  2  5  1 -1</clus>
<clus scale="  113.260">  2  4  1 -1</clus>
<clus scale="   38.128">  2  3  1 -1</clus>
</clustering>
</event>
<event>
 6    0  0.1622933E+002  0.9765254E+02  0.7546771E-02  0.1285311E+00
          3   -1    0    0  503    0 -0.00000000000E+00  0.00000000000E+00  0.39049081728E+03  0.39049081728E+03  0.00000000000E+00 0. -1.
         21   -1    0    0  505  502  0.00000000000E+00 -0.00000000000E+00 -0.22878018379E+03  0.22878018379E+03  0.00000000000E+00 0. -1.
         21    1    1    2  503  504  0.33732811946E+02  0.54658167990E+01  0.17955754714E+03  0.18278044340E+03  0.00000000000E+00 0. -1.
         21    1    1    2  504  502  0.21432428492E+01  0.42964650226E+02  0.32918076923E+02  0.54167835911E+02  0.00000000000E+00 0.  1.
         21    1    1    2  505  501  0.68215448724E+02 -0.70761011440E+02 -0.18590387180E+03  0.21028722676E+03  0.00000000000E+00 0. -1.
          3    1    1    2  501    0 -0.10409150352E+03  0.22330544415E+02  0.13513888123E+03  0.17203549500E+03  0.00000000000E+00 0. -1.
<scales pt_clust_3="34.17276" pt_clust_4="45.04294" pt_clust_5="14000.00000" pt_clust_6="97.65254"></scales>
<clustering>
<clus scale="   34.173">  1  3  2 -1</clus>
<clus scale="   45.043">  1  4  2 -1</clus>
<clus scale="   97.653">  1  6  2 -1</clus>
<clus scale="   97.653">  2  3  1 -1</clus>
</clustering>
</event>
<event>
 6    0  0.1622933E+002  0.8755460E+02  0.7546771E-02  0.1308884E+00
          1   -1    0    0  505    0 -0.00000000000E+00  0.00000000000E+00  0.55909363433E+02  0.55909363433E+02  0.00000000000E+00 0. -1.
         21   -1    0    0  501  502  0.00000000000E+00 -0.00000000000E+00 -0.68024755193E+03  0.68024755193E+03  0.00000000000E+00 0.  1.
         21    1    1    2  503  504 -0.91675553839E+01 -0.54414983755E+02 -0.13138414760E+03  0.14250203076E+03  0.00000000000E+00 0. -1.
         21    1    1    2  504  502  0.26662251452E+02  0.95655539268E+02 -0.40875622350E+03  0.42064534717E+03  0.00000000000E+00 0.  1.
         21    1    1    2  505  503  0.46620322563E+02  0.14520089171E+00  0.13970829633E+02  0.48668877528E+02  0.00000000000E+00 0.  1.
          1    1    1    2  501    0 -0.64115018632E+02 -0.41385756405E+02 -0.98168647030E+02  0.12434065991E+03  0.00000000000E+00 0. -1.
<scales pt_clust_3="54.39946" pt_clust_4="87.55460" pt_clust_5="46.62055" pt_clust_6="14000.00000"></scales>
<clustering>
<clus scale="   46.621">  1  5  2 -1</clus>
<clus scale="   54.399">  1  3  2 -1</clus>
<clus scale="   87.555">  2  4  1 -1</clus>
<clus scale="   87.555">  2  3  1 -1</clus>
</clustering>
</event>
<event>
 6    0  0.1622933E+002  0.1109203E+03  0.7546771E-02  0.1258875E+00
          2   -1    0    0  503    0 -0.00000000000E+00  0.00000000000E+00  0.35969815330E+03  0.35969815330E+03  0.00000000000E+00 0. -1.
         21   -1    0    0  505  502  0.00000000000E+00 -0.00000000000E+00 -0.47774023323E+03  0.47774023323E+03  0.00000000000E+00 0. -1.
         21    1    1    2  503  502  0.11667669246E+02  0.95209504024E+02  0.11379904802E+03  0.14883281726E+03  0.00000000000E+00 0. -1.
         21    1    1    2  504  501  0.16800874822E+02 -0.40223835828E+02  0.39042236816E+02  0.58519420871E+02  0.00000000000E+00 0. -1.
         21    1    1    2  505  504 -0.58357539575E+02  0.62624564307E+01 -0.44200901969E+03  0.44588876895E+03  0.00000000000E+00 0. -1.
          2    1    1    2  501    0  0.29888995508E+02 -0.61248124626E+02  0.17112565492E+03  0.18419737945E+03  0.00000000000E+00 0. -1.
<scales pt_clust_3="100.19441" pt_clust_4="38.05737" pt_clust_5="58.69260" pt_clust_6="38.05737"></scales>
<clustering>
<clus scale="   38.057">  4  6 -1 -1</clus>
<clus scale="   58.693">  2  5  1 -1</clus>
<clus scale="  100.194">  2  3  1 -1</clus>
<clus scale="   58.693">  2  3  1 -1</clus>
</clustering>
</event>
<event>
 6    0  0.1622933E+002  0.1569710E+03  0.7546771E-02  0.1192160E+00
          2   -1    0    0  505    0 -0.00000000000E+00  0.00000000000E+00  0.24645102540E+03  0.24645102540E+03  0.00000000000E+00 0. -1.
         21   -1    0    0  503  502  0.00000000000E+00 -0.00000000000E+00 -0.15941114527E+04  0.15941114527E+04  0.00000000000E+00 0.  1.
         21    1    1    2  503  501 -0.19500910186E+01 -0.64434678346E+02  0.26234683336E+02  0.69598054845E+02  0.00000000000E+00 0. -1.
         21    1    1    2  504  502 -0.89683714576E+02  0.11281077911E+03 -0.14972467452E+04  0.15041666320E+04  0.00000000000E+00 0.  1.
         21    1    1    2  505  504  0.15270367878E+02  0.72787455201E+02  0.95251357896E+02  0.12084708913E+03  0.00000000000E+00 0. -1.
          2    1    1    2  501    0  0.76363437717E+02 -0.12116355597E+03  0.28100276716E+02  0.14595070218E+03  0.00000000000E+00 0. -1.
<scales pt_clust_3="39.83203" pt_clust_4="145.30992" pt_clust_5="74.37202" pt_clust_6="39.83203"></scales>
<clustering>
<clus scale="   39.832">  3  6 -1 -1</clus>
<clus scale="   74.372">  1  5  2 -1</clus>
<clus scale="  145.310">  2  4  1 -1</clus>
<clus scale="  145.310">  2  3  1 -1</clus>
</clustering>
</event>
<event>
 6    0  0.1622933E+002  0.7514801E+02  0.7546771E-02  0.1343413E+00
         21   -1    0    0  501  502  0.00000000000E+00  0.00000000000E+00  0.56240515670E+02  0.56240515670E+02  0.00000000000E+00 0. -1.
          1   -1    0    0  504    0 -0.00000000000E+00 -0.00000000000E+00 -0.16289764295E+04  0.16289764295E+04  0.00000000000E+00 0.  1.
         21    1    1    2  503  502  0.47208499749E+02  0.27990972377E+02  0.33362569872E+02  0.64227704705E+02  0.00000000000E+00 0. -1.
         21    1    1    2  504  505  0.42036386055E+02 -0.70760725590E+02 -0.87835104337E+03  0.88219878340E+03  0.00000000000E+00 0.  1.
         21    1    1    2  505  503 -0.28380092543E+02  0.56637780456E+02 -0.31023321954E+03  0.31663530809E+03  0.00000000000E+00 0. -1.
          1    1    1    2  501    0 -0.60864793261E+02 -0.13868027243E+02 -0.41751422082E+03  0.42215514899E+03  0.00000000000E+00 0.  1.
<scales pt_clust_3="54.88294" pt_clust_4="14000.00000" pt_clust_5="75.14801" pt_clust_6="46.43737"></scales>
<clustering>
<clus scale="   54.883">  1  3  2 -1</clus>
<clus scale="   46.437">  1  6  2 -1</clus>
<clus scale="   75.148">  1  5  2 -1</clus>
<clus scale="   54.883">  1  3  2 -1</clus>
</clustering>
</event>
<event>
 6    0  0.1622933E+002  0.1026634E+03  0.7546771E-02  0.1274793E+00
         21   -1    0    0  503  502  0.00000000000E+00  0.00000000000E+00  0.41654661912E+03  0.41654661912E+03  0.00000000000E+00 0.  1.
         -1   -1    0    0    0  501 -0.00000000000E+00 -0.00000000000E+00 -0.20754486168E+04  0.20754486168E+04  0.00000000000E+00 0. -1.
         21    1    1    2  503  505 -0.63730195171E+01 -0.58140561326E+02  0.39291715073E+03  0.39724655768E+03  0.00000000000E+00 0.  1.
         21    1    1    2  504  501 -0.36214131232E+02 -0.33682796292E+02 -0.39077783941E+03  0.39389505435E+03  0.00000000000E+00 0. -1.
         21    1    1    2  505  504  0.10848115733E+03  0.26518199352E+02 -0.15020082295E+03  0.18716747476E+03  0.00000000000E+00 0.  1.
         -1    1    1    2    0  502 -0.65894006582E+02  0.65305158265E+02 -0.15108404861E+04  0.15136861492E+04  0.00000000000E+00 0. -1.
<scales pt_clust_3="58.53696" pt_clust_4="49.45699" pt_clust_5="14000.00000" pt_clust_6="102.66338"></scales>
<clustering>
<clus scale="   49.457">  2  4  1 -1</clus>
<clus scale="   58.537">  1  3  2 -1</clus>
<clus scale="  102.663">  2  6  1 -1</clus>
<clus scale="   58.537">  1  3  2 -1</clus>
</clustering>
</event>
<event>
 6    0  0.1622933E+002  0.8435056E+02  0.7546771E-02  0.1317140E+00
         21   -1    0    0  503  502  0.00000000000E+00  0.00000000000E+00  0.11103789434E+03  0.11103789434E+03  0.00000000000E+00 0.  1.
         -2   -1    0    0    0  501 -0.00000000000E+00 -0.00000000000E+00 -0.22294461908E+04  0.22294461908E+04  0.00000000000E+00 0.  1.
         21    1    1    2  503  504 -0.35687304653E+02  0.44219683024E+02 -0.11926538569E+03  0.13211054577E+03  0.00000000000E+00 0.  1.
         21    1    1    2  504  501  0.11927053080E+03 -0.74888514975E+02 -0.95415784104E+03  0.96449517096E+03  0.00000000000E+00 0.  1.
         21    1    1    2  505  502 -0.34754294154E+02  0.77575712964E+01  0.95601051164E+02  0.10201765464E+03  0.00000000000E+00 0.  1.
         -2    1    1    2    0  505 -0.48828931994E+02  0.22911260655E+02 -0.11405861209E+04  0.11418607137E+04  0.00000000000E+00 0.  1.
<scales pt_clust_3="14000.00000" pt_clust_4="84.35056" pt_clust_5="35.60956" pt_clust_6="55.74981"></scales>
<clustering>
<clus scale="   35.610">  1  5  2 -1</clus>
<clus scale="   55.750">  2  6  1 -1</clus>
<clus scale="   84.351">  2  4  1 -1</clus>
<clus scale="   35.610">  1  3  2 -1</clus>
</clustering>
</event>
<event>
 6    0  0.1622933E+002  0.1265832E+03  0.7546771E-02  0.1232616E+00
          2   -1    0    0  505    0 -0.00000000000E+00  0.00000000000E+00  0.22924673748E+04  0.22924673748E+04  0.00000000000E+00 0.  1.
         21   -1    0    0  504  502  0.00000000000E+00 -0.00000000000E+00 -0.38717679763E+02  0.38717679763E+02  0.00000000000E+00 0.  1.
         21    1    1    2  503  501  0.58262061927E+02 -0.38052905288E+02  0.43187034754E+03  0.43744084005E+03  0.00000000000E+00 0. -1.
         21    1    1    2  504  503 -0.47537988334E+02  0.21855004982E+02 -0.75904157065E+00  0.52326644472E+02  0.00000000000E+00 0.  1.
         21    1    1    2  505  502 -0.12854677430E+03 -0.16620881380E+02  0.11921413755E+04  0.11991670385E+04  0.00000000000E+00 0.  1.
          2    1    1    2  501    0  0.11782270071E+03  0.32818781686E+02  0.63049701355E+03  0.64225053159E+03  0.00000000000E+00 0.  1.
<scales pt_clust_3="57.77555" pt_clust_4="52.32114" pt_clust_5="14000.00000" pt_clust_6="126.58321"></scales>
<clustering>
<clus scale="   52.321">  2  4  1 -1</clus>
<clus scale="   57.776">  2  3  1 -1</clus>
<clus scale="  126.583">  2  6  1 -1</clus>
<clus scale="   52.321">  2  3  1 -1</clus>
</clustering>
</event>
<event>
 6    0  0.1622933E+002  0.1023810E+03  0.7546771E-02  0.1275367E+00
          2   -1    0    0  504    0 -0.00000000000E+00  0.00000000000E+00  0.32997409805E+03  0.32997409805E+03  0.00000000000E+00 0.  1.
         21   -1    0    0  505  502  0.00000000000E+00 -0.00000000000E+00 -0.78364465648E+03  0.78364465648E+03  0.00000000000E+00 0. -1.
         21    1    1    2  503  502  0.59063852620E+02  0.38817035252E+01  0.18933436119E+02  0.62145645960E+02  0.00000000000E+00 0.  1.
         21    1    1    2  504  503 -0.91468202310E+01  0.85710104402E+02  0.12720947024E+03  0.15366240801E+03  0.00000000000E+00 0.  1.
         21    1    1    2  505  501 -0.89036228569E+02 -0.59732626838E+02 -0.74078103743E+03  0.74849982106E+03  0.00000000000E+00 0. -1.
          2    1    1    2  501    0  0.39119196181E+02 -0.29859181089E+02  0.14096757264E+03  0.14931087951E+03  0.00000000000E+00 0.  1.
<scales pt_clust_3="102.38098" pt_clust_4="66.29705" pt_clust_5="14000.00000" pt_clust_6="49.21262"></scales>
<clustering>
<clus scale="   49.213">  1  6  2 -1</clus>
<clus scale="   66.297">  1  4  2 -1</clus>
<clus scale="  102.381">  1  3  2 -1</clus>
<clus scale="  102.381">  2  3  1 -1</clus>
</clustering>
</event>
<event>
 6    0  0.1622933E+002  0.8357510E+02  0.7546771E-02  0.1319201E+00
          2   -1    0    0  504    0 -0.00000000000E+00  0.00000000000E+00  0.30106460752E+04  0.30106460752E+04  0.00000000000E+00 0.  1.
         21   -1    0    0  503  502  0.00000000000E+00 -0.00000000000E+00 -0.15691656189E+03  0.15691656189E+03  0.00000000000E+00 0. -1.
         21    1    1    2  503  501 -0.32108815398E+02 -0.17051085011E+02 -0.13907105006E+03  0.14374446943E+03  0.00000000000E+00 0. -1.
         21    1    1    2  504  505 -0.17098814655E+02  0.31740451847E+02  0.28094766727E+03  0.28325150925E+03  0.00000000000E+00 0. -1.
         21    1    1    2  505  502  0.10120307371E+03  0.55687100323E+02  0.23195840440E+03  0.25912895755E+03  0.00000000000E+00 0. -1.
          2    1    1    2  501    0 -0.51995443657E+02 -0.70376467159E+02  0.24798944917E+04  0.24814377008E+04  0.00000000000E+00 0.  1.
<scales pt_clust_3="36.35560" pt_clust_4="36.05310" pt_clust_5="83.57510" pt_clust_6="14000.00000"></scales>
<clustering>
<clus scale="   36.053">  1  4  2 -1</clus>
<clus scale="   36.356">  2  3  1 -1</clus>
<clus scale="   83.575">  2  5  1 -1</clus>
<clus scale="   36.356">  2  3  1 -1</clus>
</clustering>
</event>
<event>
 6    0  0.1622933E+002  0.8342250E+02  0.7546771E-02  0.1319610E+00
         21   -1    0    0  501  502  0.00000000000E+00  0.00000000000E+00  0.90635241226E+02  0.90635241226E+02  0.00000000000E+00 0. -1.
          1   -1    0    0  503    0 -0.00000000000E+00 -0.00000000000E+00 -0.39681364335E+03  0.39681364335E+03  0.00000000000E+00 0. -1.
         21    1    1    2  503  504  0.26772968992E+02  0.66588968546E+02 -0.14631397112E+03  0.16296828141E+03  0.00000000000E+00 0. -1.
         21    1    1    2  504  505 -0.46199795275E+02  0.33918924210E+02 -0.13219598298E+03  0.14408571206E+03  0.00000000000E+00 0. -1.
         21    1    1    2  505  502  0.44099333585E+02 -0.77912020042E+02  0.45143472204E+02  0.10026448610E+03  0.00000000000E+00 0. -1.
          1    1    1    2  501    0 -0.24672507301E+02 -0.22595872714E+02 -0.72811920226E+02  0.80130405011E+02  0.00000000000E+00 0. -1.
<scales pt_clust_3="57.63058" pt_clust_4="14000.00000" pt_clust_5="83.42250" pt_clust_6="33.45603"></scales>
<clustering>
<clus scale="   33.456">  2  6  1 -1</clus>
<clus scale="   57.631">  2  3  1 -1</clus>
<clus scale="   83.422">  1  5  2 -1</clus>
<clus scale="   83.422">  1  3  2 -1</clus>
</clustering>
</event>
<event>
 6    0  0.1622933E+002  0.1607687E+03  0.7546771E-02  0.1187832E+00
         -1   -1    0    0    0  501 -0.00000000000E+00  0.00000000000E+00  0.61068645232E+02  0.61068645232E+02  0.00000000000E+00 0.  1.
         21   -1    0    0  503  502  0.00000000000E+00 -0.00000000000E+00 -0.20074549657E+04  0.20074549657E+04  0.00000000000E+00 0. -1.
         21    1    1    2  503  505  0.46679212079E+01 -0.12035264504E+03 -0.36502846310E+03  0.38438564948E+03  0.00000000000E+00 0.  1.
         21    1    1    2  504  501 -0.63013385555E+02 -0.76010986380E+02 -0.59369528940E+02  0.11520893097E+03  0.00000000000E+00 0.  1.
         21    1    1    2  505  504  0.17697985573E+03  0.18113590111E+03 -0.87205084508E+03  0.90807750793E+03  0.00000000000E+00 0. -1.
         -1    1    1    2    0  502 -0.11863439138E+03  0.15227730307E+02 -0.64993748339E+03  0.66085152259E+03  0.00000000000E+00 0.  1.
<scales pt_clust_3="14000.00000" pt_clust_4="98.73377" pt_clust_5="160.76874" pt_clust_6="129.03629"></scales>
<clustering>
<clus scale="   98.734">  1  4  2 -1</clus>
<clus scale="  129.036">  2  6  1 -1</clus>
<clus scale="  160.769">  1  5  2 -1</clus>
<clus scale="  129.036">  2  3  1 -1</clus>
</clustering>
</event>
<event>
 6    0  0.1622933E+002  0.1193728E+03  0.7546771E-02  0.1244135E+00
         21   -1    0    0  505  502  0.00000000000E+00  0.00000000000E+00  0.23249800127E+03  0.23249800127E+03  0.00000000000E+00 0. -1.
          2   -1    0    0  504    0 -0.00000000000E+00 -0.00000000000E+00 -0.11034482009E+04  0.11034482009E+04  0.00000000000E+00 0.  1.
         21    1    1    2  503  501 -0.10907875119E+02 -0.91531254985E+02 -0.85790131157E+02  0.12592417950E+03  0.00000000000E+00 0. -1.
         21    1    1    2  504  502 -0.39907439816E+02  0.67651557980E+02 -0.75359951809E+02  0.10885062878E+03  0.00000000000E+00 0.  1.
         21    1    1    2  505  503  0.34588583033E+02  0.11986315219E+03  0.17285073948E+03  0.21316876757E+03  0.00000000000E+00 0. -1.
          2    1    1    2  501    0  0.16226731902E+02 -0.95983455181E+02 -0.88265085616E+03  0.88800262634E+03  0.00000000000E+00 0.  1.
<scales pt_clust_3="119.37280" pt_clust_4="78.54513" pt_clust_5="14000.00000" pt_clust_6="41.24803"></scales>
<clustering>
<clus scale="   78.545">  2  4  1 -1</clus>
<clus scale="   41.248">  2  6  1 -1</clus>
<clus scale="  119.373">  2  3  1 -1</clus>
<clus scale="  119.373">  1  3  2 -1</clus>
</clustering>
</event>
<event>
 6    0  0.1622933E+002  0.1010763E+03  0.7546771E-02  0.1278049E+00
         21   -1    0    0  501  502  0.00000000000E+00  0.00000000000E+00  0.16056789438E+04  0.16056789438E+04  0.00000000000E+00 0.  1.
          2   -1    0    0  504    0 -0.00000000000E+00 -0.00000000000E+00 -0.75294368585E+03  0.75294368585E+03  0.00000000000E+00 0.  1.
         21    1    1    2  503  502  0.97801434680E+02 -0.25131664302E+02  0.15785170354E+04  0.15817435798E+04  0.00000000000E+00 0.  1.
         21    1    1    2  504  505  0.42035044455E+02  0.33685264241E+01 -0.28729500226E+03  0.29037339799E+03  0.00000000000E+00 0. -1.
         21    1    1    2  505  503 -0.25015917755E+02 -0.40060029592E+02 -0.26036140924E+02  0.53930350882E+02  0.00000000000E+00 0.  1.
          2    1    1    2  501    0 -0.11482056138E+03  0.61823167470E+02 -0.41245063424E+03  0.43257530100E+03  0.00000000000E+00 0.  1.
<scales pt_clust_3="101.07632" pt_clust_4="42.16980" pt_clust_5="45.15936" pt_clust_6="14000.00000"></scales>
<clustering>
<clus scale="   42.170">  2  4  1 -1</clus>
<clus scale="   45.159">  2  5  1 -1</clus>
<clus scale="  101.076">  1  3  2 -1</clus>
<clus scale="  101.076">  1  3  2 -1</clus>
</clustering>
</event>
<event>
 6    0  0.1622933E+002  0.1125739E+03  0.7546771E-02  0.1255876E+00
         21   -1    0    0  503  502  0.00000000000E+00  0.00000000000E+00  0.12736778242E+03  0.12736778242E+03  0.00000000000E+00 0.  1.
          2   -1    0    0  504    0 -0.00000000000E+00 -0.00000000000E+00 -0.48348479657E+03  0.48348479657E+03  0.00000000000E+00 0.  1.
         21    1    1    2  503  501  0.75237887336E+02  0.60754389418E+02 -0.38867792614E+02  0.10422351379E+03  0.00000000000E+00 0.  1.
         21    1    1    2  504  505 -0.13329397250E+02 -0.30722307773E+02 -0.11802602992E+03  0.12268527526E+03  0.00000000000E+00 0.  1.
         21    1    1    2  505  502 -0.10265277068E+03 -0.65991388812E+02  0.47763862491E+02  0.13104900338E+03  0.00000000000E+00 0.  1.
          2    1    1    2  501    0  0.40744280599E+02  0.35959307167E+02 -0.24698705410E+03  0.25289478656E+03  0.00000000000E+00 0.  1.
<scales pt_clust_3="112.57385" pt_clust_4="33.48930" pt_clust_5="14000.00000" pt_clust_6="34.87229"></scales>
<clustering>
<clus scale="   33.489">  2  4  1 -1</clus>
<clus scale="   34.872">  2  6  1 -1</clus>
<clus scale="  112.574">  2  3  1 -1</clus>
<clus scale="  112.574">  1  3  2 -1</clus>
</clustering>
</event>
<event>
 6    0  0.1622933E+002  0.1343435E+03  0.7546771E-02  0.1221149E+00
          3   -1    0    0  503    0 -0.00000000000E+00  0.00000000000E+00  0.20925781168E+04  0.20925781168E+04  0.00000000000E+00 0.  1.
         21   -1    0    0  504  502  0.00000000000E+00 -0.00000000000E+00 -0.44824190212E+02  0.44824190212E+02  0.00000000000E+00 0.  1.
         21    1    1    2  503  502 -0.52566954862E+02 -0.28249276754E+02  0.61574027078E+03  0.61862540155E+03  0.00000000000E+00 0.  1.
         21    1    1    2  504  505  0.30340688920E+02 -0.11935757938E+03  0.58708526958E+02  0.13643122919E+03  0.00000000000E+00 0.  1.
         21    1    1    2  505  501 -0.93092276332E+01  0.93821209508E+02  0.90804134585E+03  0.91292287015E+03  0.00000000000E+00 0.  1.
          3    1    1    2  501    0  0.31535493575E+02  0.53785646628E+02  0.46526378302E+03  0.46942280615E+03  0.00000000000E+00 0.  1.
<scales pt_clust_3="59.67668" pt_clust_4="124.16672" pt_clust_5="41.71038" pt_clust_6="41.71038"></scales>
<clustering>
<clus scale="   41.710">  5  6 -1 -1</clus>
<clus scale="   59.677">  1  3  2 -1</clus>
<clus scale="  124.167">  2  4  1 -1</clus>
<clus scale="  124.167">  2  3  1 -1</clus>
</clustering>
</event>
<event>
 6    0  0.1622933E+002  0.1741432E+03  0.7546771E-02  0.1173595E+00
         -1   -1    0    0    0  501 -0.00000000000E+00  0.00000000000E+00  0.27770938014E+03  0.27770938014E+03  0.00000000000E+00 0. -1.
         21   -1    0    0  505  502  0.00000000000E+00 -0.00000000000E+00 -0.15939440248E+04  0.15939440248E+04  0.00000000000E+00 0. -1.
         21    1    1    2  503  504 -0.16094406303E+03  0.43217436017E+02 -0.24400020086E+02  0.16842238325E+03  0.00000000000E+00 0. -1.
         21    1    1    2  504  502 -0.25333893971E+02  0.52448457748E+02 -0.13996591654E+04  0.14008705959E+04  0.00000000000E+00 0. -1.
         21    1    1    2  505  501  0.35588322549E+02  0.23758383952E+01 -0.51162373580E+02  0.62367954755E+02  0.00000000000E+00 0. -1.
         -1    1    1    2    0  503  0.15068963445E+03 -0.98041732160E+02  0.15898691449E+03  0.23999247104E+03  0.00000000000E+00 0. -1.
<scales pt_clust_3="174.14321" pt_clust_4="55.07029" pt_clust_5="35.66754" pt_clust_6="14000.00000"></scales>
<clustering>
<clus scale="   35.668">  2  5  1 -1</clus>
<clus scale="   55.070">  2  4  1 -1</clus>
<clus scale="  174.143">  2  3  1 -1</clus>
<clus scale="   35.668">  2  3  1 -1</clus>
</clustering>
</event>
<event>
 6    0  0.1622933E+002  0.7635605E+02  0.7546771E-02  0.1339722E+00
          1   -1    0    0  505    0 -0.00000000000E+00  0.00000000000E+00  0.82523331362E+03  0.82523331362E+03  0.00000000000E+00 0.  1.
         21   -1    0    0  503  502  0.00000000000E+00 -0.00000000000E+00 -0.10101260527E+03  0.10101260527E+03  0.00000000000E+00 0.  1.
         21    1    1    2  503  504  0.16658065791E+02 -0.43589847152E+02 -0.72586935852E+02  0.86292694865E+02  0.00000000000E+00 0.  1.
         21    1    1    2  504  501 -0.50452109171E+02  0.57479858362E+01  0.38725600231E+02  0.63860212764E+02  0.00000000000E+00 0.  1.
         21    1    1    2  505  502 -0.52329692970E+02 -0.26484016434E+02  0.25591839587E+03  0.26255289988E+03  0.00000000000E+00 0. -1.
          1    1    1    2  501    0  0.86123736350E+02  0.64325877749E+02  0.50216364811E+03  0.51354011138E+03  0.00000000000E+00 0.  1.
<scales pt_clust_3="46.66440" pt_clust_4="45.23642" pt_clust_5="14000.00000" pt_clust_6="76.35605"></scales>
<clustering>
<clus scale="   46.664">  2  3  1 -1</clus>
<clus scale="   45.236">  2  4  1 -1</clus>
<clus scale="   76.356">  2  6  1 -1</clus>
<clus scale="   46.664">  2  3  1 -1</clus>
</clustering>
</event>
<event>
 6    0  0.1622933E+002  0.1911086E+03  0.7546771E-02  0.1157465E+00
         21   -1    0    0  505  502  0.00000000000E+00  0.00000000000E+00  0.91958962186E+03  0.91958962186E+03  0.00000000000E+00 0.  1.
          3   -1    0    0  504    0 -0.00000000000E+00 -0.00000000000E+00 -0.16489703792E+03  0.16489703792E+03  0.00000000000E+00 0. -1.
         21    1    1    2  503  501  0.88419458625E+02  0.25917994696E+02  0.38809659259E+01  0.92221499712E+02  0.00000000000E+00 0.  1.
         21    1    1    2  504  502 -0.56815091837E+02 -0.14689152955E+03  0.12904619908E+03  0.20361237097E+03  0.00000000000E+00 0.  1.
         21    1    1    2  505  503 -0.13643402021E+03  0.41001541480E+02  0.63989436997E+03  0.65556096055E+03  0.00000000000E+00 0.  1.
          3    1    1    2  501    0  0.10482965342E+03  0.79971993375E+02 -0.18128951040E+02  0.13309182855E+03  0.00000000000E+00 0. -1.
<scales pt_clust_3="37.43331" pt_clust_4="185.78839" pt_clust_5="142.46181" pt_clust_6="37.43331"></scales>
<clustering>
<clus scale="   37.433">  3  6 -1 -1</clus>
<clus scale="  142.462">  1  5  2 -1</clus>
<clus scale="  185.788">  1  4  2 -1</clus>
<clus scale="  142.462">  1  3  2 -1</clus>
</clustering>
</event>
<event>
 6    0  0.1622933E+002  0.1603721E+03  0.7546771E-02  0.1188277E+00
          3   -1    0    0  505    0 -0.00000000000E+00  0.00000000000E+00  0.52742865910E+03  0.52742865910E+03  0.00000000000E+00 0.  1.
         21   -1    0    0  504  502  0.00000000000E+00 -0.00000000000E+00 -0.15066976393E+03  0.15066976393E+03  0.00000000000E+00 0.  1.
         21    1    1    2  503  501  0.13881779433E+02 -0.41013493247E+02  0.52455875233E+02  0.68017859971E+02  0.00000000000E+00 0.  1.
         21    1    1    2  504  503 -0.10950164822E+03  0.91610748051E+02 -0.82657878801E+02  0.16497110368E+03  0.00000000000E+00 0.  1.
         21    1    1    2  505  502 -0.26566272826E+02  0.24350195195E+02  0.10097515804E+03  0.10721325198E+03  0.00000000000E+00 0.  1.
          3    1    1    2  501    0  0.12218614162E+03 -0.74947449999E+02  0.30598574069E+03  0.33789620740E+03  0.00000000000E+00 0.  1.
<scales pt_clust_3="37.98261" pt_clust_4="146.26960" pt_clust_5="36.03746" pt_clust_6="37.98261"></scales>
<clustering>
<clus scale="   36.037">  1  5  2 -1</clus>
<clus scale="   37.983">  3  6 -1 -1</clus>
<clus scale="  146.270">  2  4  1 -1</clus>
<clus scale="  146.270">  2  3  1 -1</clus>
</clustering>
</event>
<event>
 6    0  0.1622933E+002  0.1108545E+03  0.7546771E-02  0.1258996E+00
          1   -1    0    0  505    0 -0.00000000000E+00  0.00000000000E+00  0.11246731513E+04  0.11246731513E+04  0.00000000000E+00 0.  1.
         21   -1    0    0  501  502  0.00000000000E+00 -0.00000000000E+00 -0.70634236066E+02  0.70634236066E+02  0.00000000000E+00 0.  1.
         21    1    1    2  503  502  0.41881239282E+02 -0.63920613267E+02 -0.25554328355E+02  0.80578574707E+02  0.00000000000E+00 0.  1.
         21    1    1    2  504  503 -0.59031218555E+02 -0.80578133929E+02  0.27720140097E+03  0.29464917636E+03  0.00000000000E+00 0.  1.
         21    1    1    2  505  504  0.51650425027E+02  0.10459328477E+03  0.55428989153E+03  0.56643164237E+03  0.00000000000E+00 0.  1.
          1    1    1    2  501    0 -0.34500445755E+02  0.39905462422E+02  0.24810195111E+03  0.25364799395E+03  0.00000000000E+00 0.  1.
<scales pt_clust_3="74.77317" pt_clust_4="110.85453" pt_clust_5="14000.00000" pt_clust_6="52.75156"></scales>
<clustering>
<clus scale="   52.752">  1  6  2 -1</clus>
<clus scale="   74.773">  2  3  1 -1</clus>
<clus scale="  110.855">  2  4  1 -1</clus>
<clus scale="   74.773">  2  3  1 -1</clus>
</clustering>
</event>
<event>
 6    0  0.1622933E+002  0.1767300E+03  0.7546771E-02  0.1171006E+00
         -3   -1    0    0    0  501 -0.00000000000E+00  0.00000000000E+00  0.76002172562E+02  0.76002172562E+02  0.00000000000E+00 0. -1.
         21   -1    0    0  503  502  0.00000000000E+00 -0.00000000000E+00 -0.13052093882E+04  0.13052093882E+04  0.00000000000E+00 0. -1.
         21    1    1    2  503  501  0.16170811461E+03  0.59604993752E+02 -0.98812476320E+03  0.10030417824E+04  0.00000000000E+00 0. -1.
         21    1    1    2  504  502 -0.91559982032E+02  0.90493243060E+01 -0.17346914998E+03  0.19635851541E+03  0.00000000000E+00 0.  1.
         21    1    1    2  505  504 -0.71913010403E+02  0.17829550158E+02 -0.59321910591E+02  0.94912923252E+02  0.00000000000E+00 0.  1.
         -3    1    1    2    0  505  0.17648778250E+01 -0.86483868216E+02 -0.82913918276E+01  0.86898339649E+02  0.00000000000E+00 0. -1.
<scales pt_clust_3="167.42768" pt_clust_4="50.77475" pt_clust_5="50.77475" pt_clust_6="86.50187"></scales>
<clustering>
<clus scale="   50.775">  4  5 -1 -1</clus>
<clus scale="   86.502">  1  6  2 -1</clus>
<clus scale="  167.428">  2  3  1 -1</clus>
<clus scale="  167.428">  2  3  1 -1</clus>
</clustering>
</event>
<event>
 6    0  0.1622933E+002  0.9135684E+02  0.7546771E-02  0.1299599E+00
          3   -1    0    0  504    0 -0.00000000000E+00  0.00000000000E+00  0.58764602864E+03  0.58764602864E+03  0.00000000000E+00 0. -1.
         21   -1    0    0  505  502  0.00000000000E+00 -0.00000000000E+00 -0.75316215594E+02  0.75316215594E+02  0.00000000000E+00 0.  1.
         21    1    1    2  503  502 -0.99654979979E+01 -0.30820252100E+02 -0.34835392607E+02  0.47567884837E+02  0.00000000000E+00 0.  1.
         21    1    1    2  504  503  0.19141156547E+02 -0.79800899449E+02  0.24239431174E+03  0.25590929993E+03  0.00000000000E+00 0.  1.
         21    1    1    2  505  501 -0.56694999075E+02 -0.61296278801E+01  0.52669937635E+02  0.77627428069E+02  0.00000000000E+00 0.  1.
          3    1    1    2  501    0  0.47519340526E+02  0.11675077943E+03  0.25210095628E+03  0.28185763140E+03  0.00000000000E+00 0. -1.
<scales pt_clust_3="32.39134" pt_clust_4="91.35684" pt_clust_5="62.79988" pt_clust_6="14000.00000"></scales>
<clustering>
<clus scale="   32.391">  2  3  1 -1</clus>
<clus scale="   62.800">  2  5  1 -1</clus>
<clus scale="   91.357">  1  4  2 -1</clus>
<clus scale="   32.391">  2  3  1 -1</clus>
</clustering>
</event>
<event>
 6    0  0.1622933E+002  0.9222912E+02  0.7546771E-02  0.1297542E+00
         21   -1    0    0  504  502  0.00000000000E+00  0.00000000000E+00  0.73998402052E+03  0.73998402052E+03  0.00000000000E+00 0. -1.
          2   -1    0    0  505    0 -0.00000000000E+00 -0.00000000000E+00 -0.78010472589E+03  0.78010472589E+03  0.00000000000E+00 0. -1.
         21    1    1    2  503  502  0.27535143908E+02 -0.28664541824E+02  0.71189448687E+03  0.71300322618E+03  0.00000000000E+00 0. -1.
         21    1    1    2  504  501  0.98511593429E+02 -0.44516150767E+01 -0.12812093579E+03  0.16167660654E+03  0.00000000000E+00 0. -1.
         21    1    1    2  505  503 -0.40465457837E+02  0.50593539524E-01 -0.50458936527E+02  0.64680446141E+02  0.00000000000E+00 0. -1.
          2    1    1    2  501    0 -0.85581279500E+02  0.33065563362E+02 -0.57343531993E+03  0.58072846755E+03  0.00000000000E+00 0. -1.
<scales pt_clust_3="39.74720" pt_clust_4="14000.00000" pt_clust_5="34.15532" pt_clust_6="92.22912"></scales>
<clustering>
<clus scale="   39.747">  1  3  2 -1</clus>
<clus scale="   34.155">  1  5  2 -1</clus>
<clus scale="   92.229">  2  6  1 -1</clus>
<clus scale="   39.747">  1  3  2 -1</clus>
</clustering>
</event>
<event>
 6    0  0.1622933E+002  0.8011714E+02  0.7546771E-02  0.1328719E+00
         21   -1    0    0  503  502  0.00000000000E+00  0.00000000000E+00  0.62436497811E+03  0.62436497811E+03  0.00000000000E+00 0. -1.
          3   -1    0    0  504    0 -0.00000000000E+00 -0.00000000000E+00 -0.49648074390E+03  0.49648074390E+03  0.00000000000E+00 0.  1.
         21    1    1    2  503  505 -0.21420911101E+02 -0.22393762302E+02  0.55233858003E+03  0.55320723333E+03  0.00000000000E+00 0. -1.
         21    1    1    2  504  502  0.30885830625E+02  0.71465599384E+02 -0.40831411266E+02  0.87911720349E+02  0.00000000000E+00 0.  1.
         21    1    1    2  505  501  0.15195532031E+02 -0.12127298727E+03 -0.41309337455E+02  0.12901357679E+03  0.00000000000E+00 0.  1.
          3    1    1    2  501    0 -0.24660451556E+02  0.72201150185E+02 -0.34231359711E+03  0.35071319154E+03  0.00000000000E+00 0.  1.
<scales pt_clust_3="30.98929" pt_clust_4="68.39275" pt_clust_5="80.11714" pt_clust_6="14000.00000"></scales>
<clustering>
<clus scale="   30.989">  1  3  2 -1</clus>
<clus scale="   68.393">  1  4  2 -1</clus>
<clus scale="   80.117">  1  5  2 -1</clus>
<clus scale="   30.989">  1  3  2 -1</clus>
</clustering>
</event>
<event>
 6    0  0.1622933E+002  0.1074851E+03  0.7546771E-02  0.1265299E+00
         21   -1    0    0  503  502  0.00000000000E+00  0.00000000000E+00  0.20483292022E+03  0.20483292022E+03  0.00000000000E+00 0. -1.
          2   -1    0    0  504    0 -0.00000000000E+00 -0.00000000000E+00 -0.51816455421E+03  0.51816455421E+03  0.00000000000E+00 0.  1.
         21    1    1    2  503  505  0.39407817813E+02  0.97946867773E+01  0.16247022434E+03  0.16746786495E+03  0.00000000000E+00 0. -1.
         21    1    1    2  504  502 -0.42000075024E+02 -0.92110648866E+01 -0.12859726082E+03  0.13559537421E+03  0.00000000000E+00 0.  1.
         21    1    1    2  505  501  0.59332833079E+02 -0.81039151332E+02 -0.61566519819E+02  0.11780562589E+03  0.00000000000E+00 0. -1.
          2    1    1    2  501    0 -0.56740575868E+02  0.80455529442E+02 -0.28563807770E+03  0.30212860937E+03  0.00000000000E+00 0.  1.
<scales pt_clust_3="40.60680" pt_clust_4="39.43548" pt_clust_5="14000.00000" pt_clust_6="107.48510"></scales>
<clustering>
<clus scale="   40.607">  1  3  2 -1</clus>
<clus scale="   39.435">  2  4  1 -1</clus>
<clus scale="  107.485">  2  6  1 -1</clus>
<clus scale="   40.607">  1  3  2 -1</clus>
</clustering>
</event>
<event>
 6    0  0.1622933E+002  0.2119648E+03  0.7546771E-02  0.1140019E+00
         -3   -1    0    0    0  501 -0.00000000000E+00  0.00000000000E+00  0.17584903526E+04  0.17584903526E+04  0.00000000000E+00 0. -1.
         21   -1    0    0  505  502  0.00000000000E+00 -0.00000000000E+00 -0.88857095764E+02  0.88857095764E+02  0.00000000000E+00 0. -1.
         21    1    1    2  503  504 -0.23421464892E+02  0.27160153658E+02  0.28317227758E+02  0.45695780465E+02  0.00000000000E+00 0. -1.
         21    1    1    2  504  502 -0.55412146295E+02  0.55247421337E+02 -0.18398474615E+02  0.80382133522E+02  0.00000000000E+00 0. -1.
         21    1    1    2  505  501  0.23631105647E+02 -0.24154225698E+03  0.13195933929E+04  0.13417256850E+04  0.00000000000E+00 0. -1.
         -3    1    1    2    0  503  0.55202505540E+02  0.15913468199E+03  0.34012111072E+03  0.37954384936E+03  0.00000000000E+00 0. -1.
<scales pt_clust_3="35.76951" pt_clust_4="125.68715" pt_clust_5="211.96479" pt_clust_6="14000.00000"></scales>
<clustering>
<clus scale="   35.770">  3  4 -1 -1</clus>
<clus scale="  125.687">  2  3  1 -1</clus>
<clus scale="  211.965">  1  5  2 -1</clus>
<clus scale="  125.687">  2  3  1 -1</clus>
</clustering>
</event>
<event>
 6    0  0.1622933E+002  0.1745317E+03  0.7546771E-02  0.1173203E+00
         21   -1    0    0  505  502  0.00000000000E+00  0.00000000000E+00  0.65314313395E+03  0.65314313395E+03  0.00000000000E+00 0.  1.
          2   -1    0    0  503    0 -0.00000000000E+00 -0.00000000000E+00 -0.78714158987E+03  0.78714158987E+03  0.00000000000E+00 0.  1.
         21    1    1    2  503  502 -0.63005723876E+02  0.30257710800E+02 -0.21523423193E+02  0.73133494720E+02  0.00000000000E+00 0. -1.
         21    1    1    2  504  501 -0.39908449298E+02 -0.80793097164E+02 -0.49084693985E+03  0.49905002478E+03  0.00000000000E+00 0.  1.
         21    1    1    2  505  504  0.15029592016E+03  0.78343060865E+02  0.60841871745E+03  0.63158517600E+03  0.00000000000E+00 0.  1.
          2    1    1    2  501    0 -0.47381746987E+02 -0.27807674501E+02 -0.23004681033E+03  0.23651602832E+03  0.00000000000E+00 0.  1.
<scales pt_clust_3="69.89457" pt_clust_4="34.53214" pt_clust_5="168.83542" pt_clust_6="34.53214"></scales>
<clustering>
<clus scale="   34.532">  4  6 -1 -1</clus>
<clus scale="   69.895">  2  3  1 -1</clus>
<clus scale="  168.835">  1  5  2 -1</clus>
<clus scale="  168.835">  1  3  2 -1</clus>
</clustering>
</event>
<event>
 6    0  0.1622933E+002  0.1263921E+03  0.7546771E-02  0.1232910E+00
         -3   -1    0    0    0  501 -0.00000000000E+00  0.00000000000E+00  0.35829719667E+03  0.35829719667E+03  0.00000000000E+00 0.  1.
         21   -1    0    0  505  502  0.00000000000E+00 -0.00000000000E+00 -0.20112777170E+03  0.20112777170E+03  0.00000000000E+00 0.  1.
         21    1    1    2  503  502 -0.19745931782E+02  0.28835072450E+02 -0.50745885240E+02  0.61615810422E+02  0.00000000000E+00 0.  1.
         21    1    1    2  504  503 -0.45148829526E+02  0.67974225888E+02  0.14366296838E+02  0.82857122068E+02  0.00000000000E+00 0.  1.
         21    1    1    2  505  501  0.16162063493E+02 -0.20203490800E+03  0.16558171834E+02  0.20335557382E+03  0.00000000000E+00 0.  1.
         -3    1    1    2    0  504  0.48732697814E+02  0.10522560967E+03  0.17699084154E+03  0.21159646206E+03  0.00000000000E+00 0.  1.
<scales pt_clust_3="34.94801" pt_clust_4="89.85828" pt_clust_5="126.39214" pt_clust_6="14000.00000"></scales>
<clustering>
<clus scale="   34.948">  2  3  1 -1</clus>
<clus scale="   89.858">  2  4  1 -1</clus>
<clus scale="  126.392">  2  5  1 -1</clus>
<clus scale="   34.948">  2  3  1 -1</clus>
</clustering>
</event>
<event>
 6    0  0.1622933E+002  0.1002136E+03  0.7546771E-02  0.1279847E+00
          1   -1    0    0  502    0 -0.00000000000E+00  0.00000000000E+00  0.63205436734E+03  0.63205436734E+03  0.00000000000E+00 0. -1.
         21   -1    0    0  503  502  0.00000000000E+00 -0.00000000000E+00 -0.78411336507E+02  0.78411336507E+02  0.00000000000E+00 0.  1.
         21    1    1    2  503  505 -0.75857717032E+01  0.49376588026E+02 -0.46428065560E+02  0.68199388920E+02  0.00000000000E+00 0.  1.
         21    1    1    2  504  501 -0.13309176930E+02  0.49243286227E+02  0.14911964486E+03  0.15760299462E+03  0.00000000000E+00 0. -1.
         21    1    1    2  505  504  0.45185543738E+02 -0.11999915709E+03  0.24839276096E+03  0.27953621368E+03  0.00000000000E+00 0. -1.
          1    1    1    2  501    0 -0.24290595105E+02  0.21379282833E+02  0.20255869057E+03  0.20512710663E+03  0.00000000000E+00 0. -1.
<scales pt_clust_3="49.95589" pt_clust_4="30.78730" pt_clust_5="92.45857" pt_clust_6="30.78730"></scales>
<clustering>
<clus scale="   30.787">  4  6 -1 -1</clus>
<clus scale="   49.956">  2  3  1 -1</clus>
<clus scale="   92.459">  2  5  1 -1</clus>
<clus scale="   49.956">  2  3  1 -1</clus>
</clustering>
</event>
<event>
 6    0  0.1622933E+002  0.9401330E+02  0.7546771E-02  0.1293414E+00
          2   -1    0    0  504    0 -0.00000000000E+00  0.00000000000E+00  0.10870512839E+04  0.10870512839E+04  0.00000000000E+00 0. -1.
         21   -1    0    0  505  502  0.00000000000E+00 -0.00000000000E+00 -0.34769872237E+03  0.34769872237E+03  0.00000000000E+00 0.  1.
         21    1    1    2  503  502 -0.80815840570E+02 -0.98681371078E+01 -0.32226187424E+03  0.33238726782E+03  0.00000000000E+00 0.  1.
         21    1    1    2  504  503 -0.72136129907E+02  0.34610719941E+02  0.10415315905E+03  0.13133698532E+03  0.00000000000E+00 0.  1.
         21    1    1    2  505  501  0.53683124752E+02 -0.93398158846E+01  0.21491516351E+03  0.22171521722E+03  0.00000000000E+00 0. -1.
          2    1    1    2  501    0  0.99268845725E+02 -0.15402766949E+02  0.74254611320E+03  0.74931053589E+03  0.00000000000E+00 0. -1.
<scales pt_clust_3="81.76848" pt_clust_4="80.00952" pt_clust_5="34.16884" pt_clust_6="34.16884"></scales>
<clustering>
<clus scale="   34.169">  5  6 -1 -1</clus>
<clus scale="   80.010">  1  4  2 -1</clus>
<clus scale="   81.768">  2  3  1 -1</clus>
<clus scale="   81.768">  2  3  1 -1</clus>
</clustering>
</event>
<event>
 6    0  0.1622933E+002  0.9285481E+02  0.7546771E-02  0.1296082E+00
         21   -1    0    0  503  502  0.00000000000E+00  0.00000000000E+00  0.45761287676E+03  0.45761287676E+03  0.00000000000E+00 0. -1.
          2   -1    0    0  504    0 -0.00000000000E+00 -0.00000000000E+00 -0.88589598344E+03  0.88589598344E+03  0.00000000000E+00 0. -1.
         21    1    1    2  503  501  0.91067641844E+01 -0.94731377863E+02 -0.13434804473E+03  0.16464010516E+03  0.00000000000E+00 0. -1.
         21    1    1    2  504  505  0.28847652871E+02  0.98878870489E+01 -0.36597106987E+02  0.47637229414E+02  0.00000000000E+00 0. -1.
         21    1    1    2  505  502 -0.88234598417E+02  0.29380417430E+02  0.42994282446E+03  0.43988565059E+03  0.00000000000E+00 0. -1.
          2    1    1    2  501    0  0.50280181361E+02  0.55463073384E+02 -0.68728077944E+03  0.69134587504E+03  0.00000000000E+00 0. -1.
<scales pt_clust_3="14000.00000" pt_clust_4="30.49520" pt_clust_5="92.85481" pt_clust_6="85.86628"></scales>
<clustering>
<clus scale="   30.495">  2  4  1 -1</clus>
<clus scale="   92.855">  1  5  2 -1</clus>
<clus scale="   85.866">  2  6  1 -1</clus>
<clus scale="   92.855">  1  3  2 -1</clus>
</clustering>
</event>
<event>
 6    0  0.1622933E+002  0.1260723E+03  0.7546771E-02  0.1233403E+00
         -1   -1    0    0    0  501 -0.00000000000E+00  0.00000000000E+00  0.11374878916E+04  0.11374878916E+04  0.00000000000E+00 0.  1.
         21   -1    0    0  505  502  0.00000000000E+00 -0.00000000000E+00 -0.15845223366E+03  0.15845223366E+03  0.00000000000E+00 0.  1.
         21    1    1    2  503  501  0.20897429297E+02 -0.64422884317E+02  0.64332004578E+02  0.93411013205E+02  0.00000000000E+00 0.  1.
         21    1    1    2  504  502  0.69865616644E+02  0.87948885745E+01  0.12419699571E+03  0.14277061391E+03  0.00000000000E+00 0. -1.
         21    1    1    2  505  503  0.17727996873E+02 -0.55061517406E+02 -0.12155737597E+03  0.13461889996E+03  0.00000000000E+00 0.  1.
         -1    1    1    2    0  504 -0.10849104281E+03  0.11068951315E+03  0.91206403358E+03  0.92513959814E+03  0.00000000000E+00 0.  1.
<scales pt_clust_3="126.07231" pt_clust_4="75.71637" pt_clust_5="57.84507" pt_clust_6="14000.00000"></scales>
<clustering>
<clus scale="   57.845">  2  5  1 -1</clus>
<clus scale="   75.716">  2  4  1 -1</clus>
<clus scale="  126.072">  2  3  1 -1</clus>
<clus scale="   57.845">  2  3  1 -1</clus>
</clustering>
</event>
<event>
 6    0  0.1622933E+002  0.3237376E+03  0.7546771E-02  0.1073942E+00
         -1   -1    0    0    0  501 -0.00000000000E+00  0.00000000000E+00  0.51388651600E+03  0.51388651600E+03  0.00000000000E+00 0. -1.
         21   -1    0    0  505  502  0.00000000000E+00 -0.00000000000E+00 -0.68207042071E+03  0.68207042071E+03  0.00000000000E+00 0. -1.
         21    1    1    2  503  502  0.11847494377E+03  0.29287362896E+03 -0.55826624573E+03  0.64146120379E+03  0.00000000000E+00 0. -1.
         21    1    1    2  504  503 -0.10323547168E+02 -0.68110582242E+02  0.84918429566E+02  0.10934700142E+03  0.00000000000E+00 0.  1.
         21    1    1    2  505  501  0.46215557398E+02 -0.19748935726E+00  0.18932927250E+02  0.49943693114E+02  0.00000000000E+00 0.  1.
         -1    1    1    2    0  504 -0.15436695400E+03 -0.22456555736E+03  0.28623098421E+03  0.39520503838E+03  0.00000000000E+00 0. -1.
<scales pt_clust_3="317.43884" pt_clust_4="31.95223" pt_clust_5="46.21598" pt_clust_6="31.95223"></scales>
<clustering>
<clus scale="   31.952">  4  6 -1 -1</clus>
<clus scale="   46.216">  1  5  2 -1</clus>
<clus scale="  317.439">  2  3  1 -1</clus>
<clus scale="  317.439">  2  3  1 -1</clus>
</clustering>
</event>
<event>
 6    0  0.1622933E+002  0.1167405E+03  0.7546771E-02  0.1248573E+00
          1   -1    0    0  505    0 -0.00000000000E+00  0.00000000000E+00  0.32145832999E+04  0.32145832999E+04  0.00000000000E+00 0.  1.
         21   -1    0    0  501  502  0.00000000000E+00 -0.00000000000E+00 -0.65202805851E+03  0.65202805851E+03  0.00000000000E+00 0.  1.
         21    1    1    2  503  504  0.37077731471E+02 -0.39407896548E+02  0.61493735693E+03  0.61731328629E+03  0.00000000000E+00 0.  1.
         21    1    1    2  504  502 -0.10286589463E+03  0.53805186877E+01 -0.64569847698E+03  0.65386303262E+03  0.00000000000E+00 0.  1.
         21    1    1    2  505  503  0.53478017136E+02 -0.13914254378E+02  0.14225631125E+04  0.14236359485E+04  0.00000000000E+00 0.  1.
          1    1    1    2  501    0  0.12310146020E+02  0.47941632238E+02  0.11707532489E+04  0.11717990910E+04  0.00000000000E+00 0.  1.
<scales pt_clust_3="47.13667" pt_clust_4="102.98700" pt_clust_5="47.13667" pt_clust_6="49.49687"></scales>
<clustering>
<clus scale="   49.497">  1  6  2 -1</clus>
<clus scale="   47.137">  3  5 -1 -1</clus>
<clus scale="  102.987">  2  4  1 -1</clus>
<clus scale="  102.987">  2  3  1 -1</clus>
</clustering>
</event>
<event>
 6    0  0.1622933E+002  0.1715886E+03  0.7546771E-02  0.1176201E+00
          2   -1    0    0  505    0 -0.00000000000E+00  0.00000000000E+00  0.30589364254E+04  0.30589364254E+04  0.00000000000E+00 0.  1.
         21   -1    0    0  504  502  0.00000000000E+00 -0.00000000000E+00 -0.10922667336E+03  0.10922667336E+03  0.00000000000E+00 0.  1.
         21    1    1    2  503  501  0.10615819830E+02 -0.42595403743E+02  0.48266829585E+03  0.48466044595E+03  0.00000000000E+00 0.  1.
         21    1    1    2  504  503 -0.62021251761E+01 -0.32497569847E+02  0.83939425132E+02  0.90224084889E+02  0.00000000000E+00 0. -1.
         21    1    1    2  505  502 -0.76607974337E+02  0.17289006246E+03 -0.17215966199E+02  0.18988455683E+03  0.00000000000E+00 0.  1.
          2    1    1    2  501    0  0.72194279683E+02 -0.97797088871E+02  0.24003179973E+04  0.24033940111E+04  0.00000000000E+00 0.  1.
<scales pt_clust_3="31.11590" pt_clust_4="33.08411" pt_clust_5="163.58979" pt_clust_6="31.11590"></scales>
<clustering>
<clus scale="   31.116">  3  6 -1 -1</clus>
<clus scale="   33.084">  2  4  1 -1</clus>
<clus scale="  163.590">  2  5  1 -1</clus>
<clus scale="   33.084">  2  3  1 -1</clus>
</clustering>
</event>
<event>
 6    0  0.1622933E+002  0.1887384E+03  0.7546771E-02  0.1159604E+00
         21   -1    0    0  504  502  0.00000000000E+00  0.00000000000E+00  0.91894676317E+03  0.91894676317E+03  0.00000000000E+00 0. -1.
          2   -1    0    0  503    0 -0.00000000000E+00 -0.00000000000E+00 -0.15395839880E+03  0.15395839880E+03  0.00000000000E+00 0.  1.
         21    1    1    2  503  505  0.61676547600E+02  0.21762839828E+02  0.42919433537E+02  0.78228482641E+02  0.00000000000E+00 0.  1.
         21    1    1    2  504  501 -0.53848318573E+02  0.19438195065E+03  0.72458361935E+03  0.75213390136E+03  0.00000000000E+00 0. -1.
         21    1    1    2  505  502  0.22884296679E+02 -0.69335184468E+02 -0.46101110160E+02  0.86350281978E+02  0.00000000000E+00 0.  1.
          2    1    1    2  501    0 -0.30712525707E+02 -0.14680960601E+03  0.43586421644E+02  0.15619249599E+03  0.00000000000E+00 0.  1.
<scales pt_clust_3="65.40350" pt_clust_4="14000.00000" pt_clust_5="79.03237" pt_clust_6="188.73838"></scales>
<clustering>
<clus scale="   65.403">  2  3  1 -1</clus>
<clus scale="   79.032">  2  5  1 -1</clus>
<clus scale="  188.738">  2  6  1 -1</clus>
<clus scale="  188.738">  1  3  2 -1</clus>
</clustering>
</event>
<event>
 6    0  0.1622933E+002  0.3413034E+03  0.7546771E-02  0.1066242E+00
         -1   -1    0    0    0  501 -0.00000000000E+00  0.00000000000E+00  0.89362712275E+03  0.89362712275E+03  0.00000000000E+00 0. -1.
         21   -1    0    0  505  502  0.00000000000E+00 -0.00000000000E+00 -0.20920165002E+04  0.20920165002E+04  0.00000000000E+00 0. -1.
         21    1    1    2  503  501 -0.30813811266E+03  0.18567900817E+03 -0.16598582018E+03  0.39620333549E+03  0.00000000000E+00 0.  1.
         21    1    1    2  504  502  0.22593341027E+03 -0.90499850544E+02  0.53135375240E+03  0.58444241720E+03  0.00000000000E+00 0. -1.
         21    1    1    2  505  503  0.30341484398E+02 -0.16708212823E+02 -0.17741751675E+04  0.17745132558E+04  0.00000000000E+00 0. -1.
         -1    1    1    2    0  504  0.51863217992E+02 -0.78470944806E+02  0.21041785788E+03  0.23048461440E+03  0.00000000000E+00 0. -1.
<scales pt_clust_3="329.13397" pt_clust_4="56.11156" pt_clust_5="34.63770" pt_clust_6="56.11156"></scales>
<clustering>
<clus scale="   34.638">  2  5  1 -1</clus>
<clus scale="   56.112">  4  6 -1 -1</clus>
<clus scale="  329.134">  2  3  1 -1</clus>
<clus scale="   34.638">  2  3  1 -1</clus>
</clustering>
</event>
<event>
 6    0  0.3713862E+002  0.1271240E+03  0.7546771E-02  0.1231787E+00
         21   -1    0    0  505  502  0.00000000000E+00  0.00000000000E+00  0.78210183630E+03  0.78210183630E+03  0.00000000000E+00 0. -1.
         -1   -1    0    0    0  501 -0.00000000000E+00 -0.00000000000E+00 -0.11607121824E+04  0.11607121824E+04  0.00000000000E+00 0. -1.
         21    1    1    2  503  502 -0.12512783637E+02  0.32411043517E+02 -0.30896430809E+02  0.46493385905E+02  0.00000000000E+00 0. -1.
         21    1    1    2  504  503 -0.54242772956E+02  0.91444398303E+01 -0.46843125158E+02  0.72250796344E+02  0.00000000000E+00 0. -1.
         21    1    1    2  505  501 -0.20745836529E+02  0.51341661504E+02  0.75675202937E+03  0.75877532240E+03  0.00000000000E+00 0. -1.
         -1    1    1    2    0  504  0.87501393122E+02 -0.92897144851E+02 -0.10576228195E+04  0.10652945141E+04  0.00000000000E+00 0. -1.
<scales pt_clust_3="34.39960" pt_clust_4="34.39960" pt_clust_5="55.37469" pt_clust_6="119.52796"></scales>
<clustering>
<clus scale="   34.400">  3  4 -1 -1</clus>
<clus scale="   55.375">  1  5  2 -1</clus>
<clus scale="  119.528">  2  6  1 -1</clus>
<clus scale="   55.375">  1  3  2 -1</clus>
</clustering>
</event>
<event>
 6    0  0.1622933E+002  0.1259338E+03  0.7546771E-02  0.1233617E+00
         21   -1    0    0  504  502  0.00000000000E+00  0.00000000000E+00  0.56278180701E+02  0.56278180701E+02  0.00000000000E+00 0. -1.
         -2   -1    0    0    0  501 -0.00000000000E+00 -0.00000000000E+00 -0.12722670028E+04  0.12722670028E+04  0.00000000000E+00 0.  1.
         21    1    1    2  503  502 -0.12542714243E+02  0.62590191158E+02 -0.38728159401E+03  0.39250717798E+03  0.00000000000E+00 0. -1.
         21    1    1    2  504  505  0.37275936479E+02 -0.34096817945E+02  0.29114327931E+02  0.58307225326E+02  0.00000000000E+00 0. -1.
         21    1    1    2  505  501 -0.46075979632E+02 -0.10057709962E+03 -0.49804938432E+03  0.51018813989E+03  0.00000000000E+00 0. -1.
         -2    1    1    2    0  503  0.21342757396E+02  0.72083726409E+02 -0.35977217172E+03  0.36754264032E+03  0.00000000000E+00 0.  1.
<scales pt_clust_3="34.13073" pt_clust_4="50.51820" pt_clust_5="120.36377" pt_clust_6="34.13073"></scales>
<clustering>
<clus scale="   34.131">  3  6 -1 -1</clus>
<clus scale="   50.518">  1  4  2 -1</clus>
<clus scale="  120.364">  2  5  1 -1</clus>
<clus scale="   50.518">  1  3  2 -1</clus>
</clustering>
</event>
<event>
 6    0  0.1622933E+002  0.4586037E+03  0.7546771E-02  0.1025187E+00
          1   -1    0    0  502    0 -0.00000000000E+00  0.00000000000E+00  0.29795452630E+04  0.29795452630E+04  0.00000000000E+00 0.  1.
         21   -1    0    0  503  502  0.00000000000E+00 -0.00000000000E+00 -0.28758260467E+03  0.28758260467E+03  0.00000000000E+00 0.  1.
         21    1    1    2  503  505 -0.17593759296E+03  0.36745949644E+03 -0.11469933534E+03  0.42324514843E+03  0.00000000000E+00 0.  1.
         21    1    1    2  504  501  0.44219067042E+02 -0.25026325284E+02  0.62479206912E+03  0.62685466616E+03  0.00000000000E+00 0. -1.
         21    1    1    2  505  504  0.70875143154E+02 -0.17743856943E+03  0.73175453136E+03  0.75628858646E+03  0.00000000000E+00 0.  1.
          1    1    1    2  501    0  0.60843382763E+02 -0.16499460173E+03  0.14501153932E+04  0.14607394667E+04  0.00000000000E+00 0.  1.
<scales pt_clust_3="407.40707" pt_clust_4="40.44728" pt_clust_5="178.89814" pt_clust_6="178.89814"></scales>
<clustering>
<clus scale="   40.447">  4  6 -1 -1</clus>
<clus scale="  178.898">  4  5 -1 -1</clus>
<clus scale="  407.407">  2  3  1 -1</clus>
<clus scale="  407.407">  2  3  1 -1</clus>
</clustering>
</event>
<event>
 6    0  0.1622933E+002  0.2007479E+03  0.7546771E-02  0.1149110E+00
         21   -1    0    0  503  502  0.00000000000E+00  0.00000000000E+00  0.12089807192E+04  0.12089807192E+04  0.00000000000E+00 0. -1.
          1   -1    0    0  504    0 -0.00000000000E+00 -0.00000000000E+00 -0.16806205316E+04  0.16806205316E+04  0.00000000000E+00 0. -1.
         21    1    1    2  503  505  0.67727499761E+01 -0.44558692197E+02  0.11224540934E+04  0.11233585977E+04  0.00000000000E+00 0. -1.
         21    1    1    2  504  502 -0.31384459477E+02 -0.97565253098E+01 -0.13476265559E+03  0.13871246312E+03  0.00000000000E+00 0. -1.
         21    1    1    2  505  501  0.46310411284E+02  0.23581628071E+03 -0.10728048248E+03  0.26317878783E+03  0.00000000000E+00 0. -1.
          1    1    1    2  501    0 -0.21698701783E+02 -0.18150106321E+03 -0.13520507678E+04  0.13643514021E+04  0.00000000000E+00 0. -1.
<scales pt_clust_3="45.07191" pt_clust_4="32.86600" pt_clust_5="14000.00000" pt_clust_6="200.74789"></scales>
<clustering>
<clus scale="   32.866">  2  4  1 -1</clus>
<clus scale="   45.072">  1  3  2 -1</clus>
<clus scale="  200.748">  2  6  1 -1</clus>
<clus scale="   45.072">  1  3  2 -1</clus>
</clustering>
</event>
<event>
 6    0  0.1622933E+002  0.1005834E+03  0.7546771E-02  0.1279074E+00
          2   -1    0    0  504    0 -0.00000000000E+00  0.00000000000E+00  0.10669622097E+04  0.10669622097E+04  0.00000000000E+00 0. -1.
         21   -1    0    0  505  502  0.00000000000E+00 -0.00000000000E+00 -0.41440043362E+02  0.41440043362E+02  0.00000000000E+00 0. -1.
         21    1    1    2  503  502  0.12697585122E+02  0.39867614708E+02  0.63364531107E+02  0.75932332855E+02  0.00000000000E+00 0. -1.
         21    1    1    2  504  503  0.14210785940E+02 -0.27509514441E+02  0.13751065921E+03  0.14095354276E+03  0.00000000000E+00 0. -1.
         21    1    1    2  505  501  0.78163200815E+02  0.12437205637E+02  0.22702851470E+02  0.82338262738E+02  0.00000000000E+00 0. -1.
          2    1    1    2  501    0 -0.10507157188E+03 -0.24795305904E+02  0.80194412455E+03  0.80917811470E+03  0.00000000000E+00 0. -1.
<scales pt_clust_3="40.23032" pt_clust_4="30.96320" pt_clust_5="14000.00000" pt_clust_6="100.58343"></scales>
<clustering>
<clus scale="   30.963">  1  4  2 -1</clus>
<clus scale="   40.230">  2  3  1 -1</clus>
<clus scale="  100.583">  1  6  2 -1</clus>
<clus scale="   40.230">  2  3  1 -1</clus>
</clustering>
</event>
<event>
 6    0  0.1622933E+002  0.1986757E+03  0.7546771E-02  0.1150861E+00
         -2   -1    0    0    0  501 -0.00000000000E+00  0.00000000000E+00  0.13215391063E+04  0.13215391063E+04  0.00000000000E+00 0. -1.
         21   -1    0    0  505  502  0.00000000000E+00 -0.00000000000E+00 -0.11685976575E+03  0.11685976575E+03  0.00000000000E+00 0. -1.
         21    1    1    2  503  501 -0.88096225045E+02 -0.10064669672E+03  0.15465024324E+03  0.20446857989E+03  0.00000000000E+00 0. -1.
         21    1    1    2  504  503 -0.48069657328E+02 -0.16112955041E+01  0.11937431651E+03  0.12869932273E+03  0.00000000000E+00 0.  1.
         21    1    1    2  505  504 -0.27574406738E+02  0.18627104861E+02 -0.75451044331E+02  0.82463185926E+02  0.00000000000E+00 0. -1.
         -2    1    1    2    0  502  0.16374028911E+03  0.83630887367E+02  0.10061058252E+04  0.10227677835E+04  0.00000000000E+00 0. -1.
<scales pt_clust_3="50.74182" pt_clust_4="50.74182" pt_clust_5="33.27637" pt_clust_6="180.43975"></scales>
<clustering>
<clus scale="   33.276">  2  5  1 -1</clus>
<clus scale="   50.742">  3  4 -1 -1</clus>
<clus scale="  180.440">  1  6  2 -1</clus>
<clus scale="   33.276">  2  3  1 -1</clus>
</clustering>
</event>
<event>
 6    0  0.3058692E+002  0.7913053E+02  0.7546771E-02  0.1331537E+00
         21   -1    0    0  503  502  0.00000000000E+00  0.00000000000E+00  0.81383551584E+03  0.81383551584E+03  0.00000000000E+00 0. -1.
          2   -1    0    0  504    0 -0.00000000000E+00 -0.00000000000E+00 -0.13751315270E+04  0.13751315270E+04  0.00000000000E+00 0. -1.
         21    1    1    2  503  501 -0.68100102953E+02 -0.41862883582E+02  0.78983678407E+03  0.79387169651E+03  0.00000000000E+00 0. -1.
         21    1    1    2  504  505 -0.46708808561E+02  0.84633126570E+01 -0.11431810310E+03  0.12378194196E+03  0.00000000000E+00 0. -1.
         21    1    1    2  505  502  0.39368873911E+02  0.44671768090E+02 -0.39237704197E+02  0.71309694488E+02  0.00000000000E+00 0. -1.
          2    1    1    2  501    0  0.75440037603E+02 -0.11272197166E+02 -0.11975769879E+04  0.12000037099E+04  0.00000000000E+00 0. -1.
<scales pt_clust_3="14000.00000" pt_clust_4="47.46936" pt_clust_5="79.13053" pt_clust_6="31.02660"></scales>
<clustering>
<clus scale="   47.469">  2  4  1 -1</clus>
<clus scale="   31.027">  2  6  1 -1</clus>
<clus scale="   79.131">  2  5  1 -1</clus>
<clus scale="   79.131">  1  3  2 -1</clus>
</clustering>
</event>
<event>
 6    0  0.1622933E+002  0.1112265E+03  0.7546771E-02  0.1258315E+00
          2   -1    0    0  504    0 -0.00000000000E+00  0.00000000000E+00  0.26444521326E+04  0.26444521326E+04  0.00000000000E+00 0.  1.
         21   -1    0    0  503  502  0.00000000000E+00 -0.00000000000E+00 -0.18191394320E+02  0.18191394320E+02  0.00000000000E+00 0.  1.
         21    1    1    2  503  505  0.88577404213E+02  0.20650288104E+02  0.43753650281E+03  0.44688989945E+03  0.00000000000E+00 0.  1.
         21    1    1    2  504  502 -0.25518230144E+02  0.82744786761E+02  0.15030127737E+03  0.17345994865E+03  0.00000000000E+00 0.  1.
         21    1    1    2  505  501 -0.19586856303E+02 -0.63298504289E+02  0.11447625408E+04  0.11466785166E+04  0.00000000000E+00 0. -1.
          2    1    1    2  501    0 -0.43472317766E+02 -0.40096570576E+02  0.89366041731E+03  0.89561516225E+03  0.00000000000E+00 0.  1.
<scales pt_clust_3="106.03312" pt_clust_4="86.59030" pt_clust_5="31.73453" pt_clust_6="31.73453"></scales>
<clustering>
<clus scale="   31.735">  5  6 -1 -1</clus>
<clus scale="   86.590">  2  4  1 -1</clus>
<clus scale="  106.033">  2  3  1 -1</clus>
<clus scale="   86.590">  2  3  1 -1</clus>
</clustering>
</event>
<event>
 6    0  0.1622933E+002  0.1034867E+03  0.7546771E-02  0.1273130E+00
         21   -1    0    0  503  502  0.00000000000E+00  0.00000000000E+00  0.39473688431E+03  0.39473688431E+03  0.00000000000E+00 0.  1.
          2   -1    0    0  504    0 -0.00000000000E+00 -0.00000000000E+00 -0.74344421569E+03  0.74344421569E+03  0.00000000000E+00 0. -1.
         21    1    1    2  503  501 -0.10340661688E+03  0.11073323486E+02  0.37334536265E+03  0.38755942347E+03  0.00000000000E+00 0.  1.
         21    1    1    2  504  505  0.16197172299E+02  0.29179222392E+02 -0.61188715352E+02  0.69698165660E+02  0.00000000000E+00 0.  1.
         21    1    1    2  505  502  0.20940527273E+02 -0.58346394773E+02 -0.11402263617E+03  0.12978431733E+03  0.00000000000E+00 0. -1.
          2    1    1    2  501    0  0.66268917307E+02  0.18093848895E+02 -0.54684134251E+03  0.55113919353E+03  0.00000000000E+00 0. -1.
<scales pt_clust_3="14000.00000" pt_clust_4="33.37327" pt_clust_5="58.21139" pt_clust_6="103.48670"></scales>
<clustering>
<clus scale="   33.373">  2  4  1 -1</clus>
<clus scale="   58.211">  2  5  1 -1</clus>
<clus scale="  103.487">  2  6  1 -1</clus>
<clus scale="  103.487">  1  3  2 -1</clus>
</clustering>
</event>
<event>
 6    0  0.1622933E+002  0.6145637E+02  0.7546771E-02  0.1391820E+00
          1   -1    0    0  505    0 -0.00000000000E+00  0.00000000000E+00  0.10656040787E+04  0.10656040787E+04  0.00000000000E+00 0. -1.
         21   -1    0    0  504  502  0.00000000000E+00 -0.00000000000E+00 -0.81581255574E+03  0.81581255574E+03  0.00000000000E+00 0.  1.
         21    1    1    2  503  502 -0.68456657048E+02 -0.22520623007E+02  0.20434845817E+03  0.21668360509E+03  0.00000000000E+00 0. -1.
         21    1    1    2  504  501  0.54082248903E+02 -0.16898436081E+02 -0.80233410092E+03  0.80433230464E+03  0.00000000000E+00 0.  1.
         21    1    1    2  505  503 -0.58119154378E+02 -0.24840301079E+01  0.46153643779E+03  0.46518801567E+03  0.00000000000E+00 0. -1.
          1    1    1    2  501    0  0.72493562523E+02  0.41903089196E+02  0.38624072791E+03  0.39521270904E+03  0.00000000000E+00 0. -1.
<scales pt_clust_3="14000.00000" pt_clust_4="56.66080" pt_clust_5="50.45071" pt_clust_6="61.45637"></scales>
<clustering>
<clus scale="   56.661">  2  4  1 -1</clus>
<clus scale="   50.451">  1  5  2 -1</clus>
<clus scale="   61.456">  1  6  2 -1</clus>
<clus scale="   56.661">  2  3  1 -1</clus>
</clustering>
</event>
<event>
 6    0  0.1622933E+002  0.1188534E+03  0.7546771E-02  0.1245001E+00
         21   -1    0    0  505  502  0.00000000000E+00  0.00000000000E+00  0.39314501562E+03  0.39314501562E+03  0.00000000000E+00 0.  1.
          2   -1    0    0  504    0 -0.00000000000E+00 -0.00000000000E+00 -0.23352793348E+04  0.23352793348E+04  0.00000000000E+00 0. -1.
         21    1    1    2  503  502  0.73671932439E+02  0.71187889980E+02 -0.21863411255E+03  0.24144594525E+03  0.00000000000E+00 0.  1.
         21    1    1    2  504  503  0.29524186210E+02  0.31760078785E+02 -0.20199813637E+03  0.20660016281E+03  0.00000000000E+00 0.  1.
         21    1    1    2  505  501 -0.28994143435E+02 -0.30680116525E+02  0.37684781108E+03  0.37920469752E+03  0.00000000000E+00 0.  1.
          2    1    1    2  501    0 -0.74201975214E+02 -0.72267852240E+02 -0.18983498813E+04  0.19011735448E+04  0.00000000000E+00 0. -1.
<scales pt_clust_3="32.95718" pt_clust_4="32.95718" pt_clust_5="42.21291" pt_clust_6="107.51753"></scales>
<clustering>
<clus scale="   32.957">  3  4 -1 -1</clus>
<clus scale="   42.213">  1  5  2 -1</clus>
<clus scale="  107.518">  2  6  1 -1</clus>
<clus scale="   42.213">  1  3  2 -1</clus>
</clustering>
</event>
<event>
 6    0  0.1622933E+002  0.1113877E+03  0.7546771E-02  0.1258021E+00
         21   -1    0    0  504  502  0.00000000000E+00  0.00000000000E+00  0.14809600843E+03  0.14809600843E+03  0.00000000000E+00 0. -1.
          2   -1    0    0  503    0 -0.00000000000E+00 -0.00000000000E+00 -0.12209860829E+04  0.12209860829E+04  0.00000000000E+00 0. -1.
         21    1    1    2  503  505  0.20614450898E+02 -0.24224994605E+02 -0.61517755287E+03  0.61599937297E+03  0.00000000000E+00 0.  1.
         21    1    1    2  504  501 -0.43949068393E+02  0.30788688789E+01 -0.12410416042E+03  0.13169222710E+03  0.00000000000E+00 0. -1.
         21    1    1    2  505  502  0.97214420115E+02  0.28618946854E+02  0.12266662960E+03  0.15911250615E+03  0.00000000000E+00 0. -1.
          2    1    1    2  501    0 -0.73879802620E+02 -0.74728211282E+01 -0.45627499080E+03  0.46227798512E+03  0.00000000000E+00 0. -1.
<scales pt_clust_3="31.80890" pt_clust_4="35.78121" pt_clust_5="101.73255" pt_clust_6="35.78121"></scales>
<clustering>
<clus scale="   31.809">  2  3  1 -1</clus>
<clus scale="   35.781">  4  6 -1 -1</clus>
<clus scale="  101.733">  1  5  2 -1</clus>
<clus scale="  101.733">  1  3  2 -1</clus>
</clustering>
</event>
<event>
 6    0  0.1622933E+002  0.1500920E+03  0.7546771E-02  0.1200360E+00
          3   -1    0    0  505    0 -0.00000000000E+00  0.00000000000E+00  0.16681894477E+03  0.16681894477E+03  0.00000000000E+00 0. -1.
         21   -1    0    0  501  502  0.00000000000E+00 -0.00000000000E+00 -0.42771325527E+03  0.42771325527E+03  0.00000000000E+00 0.  1.
         21    1    1    2  503  504 -0.11880123886E+03  0.15854851963E+02 -0.77866571409E+02  0.14292765173E+03  0.00000000000E+00 0.  1.
         21    1    1    2  504  502 -0.52709017010E+02  0.22307315013E+02 -0.15089605502E+03  0.16138610906E+03  0.00000000000E+00 0.  1.
         21    1    1    2  505  503 -0.22784113138E+01  0.44161911818E+02  0.61968255273E+02  0.76128380222E+02  0.00000000000E+00 0. -1.
          3    1    1    2  501    0  0.17378866719E+03 -0.82324078794E+02 -0.94099939338E+02  0.21409005903E+03  0.00000000000E+00 0. -1.
<scales pt_clust_3="14000.00000" pt_clust_4="58.31009" pt_clust_5="44.22065" pt_clust_6="150.09199"></scales>
<clustering>
<clus scale="   44.221">  1  5  2 -1</clus>
<clus scale="   58.310">  2  4  1 -1</clus>
<clus scale="  150.092">  2  6  1 -1</clus>
<clus scale="   58.310">  2  3  1 -1</clus>
</clustering>
</event>
<event>
 6    0  0.1622933E+002  0.1152744E+03  0.7546771E-02  0.1251103E+00
          2   -1    0    0  503    0 -0.00000000000E+00  0.00000000000E+00  0.15139031759E+04  0.15139031759E+04  0.00000000000E+00 0.  1.
         21   -1    0    0  505  502  0.00000000000E+00 -0.00000000000E+00 -0.22235223058E+02  0.22235223058E+02  0.00000000000E+00 0. -1.
         21    1    1    2  503  502  0.61378927493E+01  0.29604842157E+02  0.15538662230E+03  0.15830073530E+03  0.00000000000E+00 0.  1.
         21    1    1    2  504  501  0.11687501007E+02 -0.55619563754E+02  0.32611541609E+03  0.33103081150E+03  0.00000000000E+00 0. -1.
         21    1    1    2  505  504 -0.37404005629E+02  0.93959229207E+02  0.13443797001E+03  0.16822890409E+03  0.00000000000E+00 0. -1.
          2    1    1    2  501    0  0.19578611872E+02 -0.67944507610E+02  0.87572794445E+03  0.87857794808E+03  0.00000000000E+00 0.  1.
<scales pt_clust_3="30.23442" pt_clust_4="47.93781" pt_clust_5="103.96132" pt_clust_6="47.93781"></scales>
<clustering>
<clus scale="   30.234">  1  3  2 -1</clus>
<clus scale="   47.938">  4  6 -1 -1</clus>
<clus scale="  103.961">  2  5  1 -1</clus>
<clus scale="  103.961">  2  3  1 -1</clus>
</clustering>
</event>
<event>
 6    0  0.1622933E+002  0.1287649E+03  0.7546771E-02  0.1229300E+00
          1   -1    0    0  503    0 -0.00000000000E+00  0.00000000000E+00  0.56639726899E+02  0.56639726899E+02  0.00000000000E+00 0. -1.
         21   -1    0    0  504  502  0.00000000000E+00 -0.00000000000E+00 -0.81852943890E+03  0.81852943890E+03  0.00000000000E+00 0. -1.
         21    1    1    2  503  502  0.45250178841E+02  0.12039775497E+02  0.13547969627E+02  0.48745075240E+02  0.00000000000E+00 0. -1.
         21    1    1    2  504  505 -0.83427092158E+02  0.91044234386E+02 -0.60524646481E+03  0.61771548101E+03  0.00000000000E+00 0. -1.
         21    1    1    2  505  501 -0.85866624229E+01 -0.41414522549E+02 -0.47056191957E+02  0.63270677656E+02  0.00000000000E+00 0. -1.
          1    1    1    2  501    0  0.46763575740E+02 -0.61669487335E+02 -0.12313502486E+03  0.14543793189E+03  0.00000000000E+00 0. -1.
<scales pt_clust_3="46.82451" pt_clust_4="118.61687" pt_clust_5="37.03953" pt_clust_6="37.03953"></scales>
<clustering>
<clus scale="   37.040">  5  6 -1 -1</clus>
<clus scale="   46.825">  1  3  2 -1</clus>
<clus scale="  118.617">  2  4  1 -1</clus>
<clus scale="  118.617">  2  3  1 -1</clus>
</clustering>
</event>
<event>
 6    0  0.1622933E+002  0.1116714E+03  0.7546771E-02  0.1257506E+00
          2   -1    0    0  504    0 -0.00000000000E+00  0.00000000000E+00  0.20551906004E+04  0.20551906004E+04  0.00000000000E+00 0.  1.
         21   -1    0    0  501  502  0.00000000000E+00 -0.00000000000E+00 -0.42896014088E+03  0.42896014088E+03  0.00000000000E+00 0. -1.
         21    1    1    2  503  502  0.11177040573E+03  0.26946496329E+01 -0.41093748782E+03  0.42587498592E+03  0.00000000000E+00 0. -1.
         21    1    1    2  504  505  0.31041642759E+02  0.76612954727E+01  0.62004576678E+03  0.62086957724E+03  0.00000000000E+00 0.  1.
         21    1    1    2  505  503 -0.55128601996E+02  0.87453070554E+01  0.81554733580E+02  0.98827211449E+02  0.00000000000E+00 0. -1.
          2    1    1    2  501    0 -0.87683446497E+02 -0.19101252161E+02  0.13355674470E+04  0.13385789667E+04  0.00000000000E+00 0.  1.
<scales pt_clust_3="14000.00000" pt_clust_4="31.97310" pt_clust_5="53.97180" pt_clust_6="111.67136"></scales>
<clustering>
<clus scale="   31.973">  1  4  2 -1</clus>
<clus scale="   53.972">  1  5  2 -1</clus>
<clus scale="  111.671">  1  6  2 -1</clus>
<clus scale="  111.671">  2  3  1 -1</clus>
</clustering>
</event>
<event>
 6    0  0.1622933E+002  0.1069611E+03  0.7546771E-02  0.1266303E+00
          2   -1    0    0  505    0 -0.00000000000E+00  0.00000000000E+00  0.12391772722E+04  0.12391772722E+04  0.00000000000E+00 0.  1.
         21   -1    0    0  503  502  0.00000000000E+00 -0.00000000000E+00 -0.24739196834E+03  0.24739196834E+03  0.00000000000E+00 0. -1.
         21    1    1    2  503  501  0.99450047402E+01 -0.29249972481E+02 -0.22416577868E+03  0.22628468870E+03  0.00000000000E+00 0. -1.
         21    1    1    2  504  502 -0.76248301124E+02  0.40248324054E+02  0.18042353830E+03  0.19996595757E+03  0.00000000000E+00 0.  1.
         21    1    1    2  505  504  0.39958306075E+02 -0.11349308648E+03  0.48415834424E+03  0.49888540688E+03  0.00000000000E+00 0.  1.
          2    1    1    2  501    0  0.26344990310E+02  0.10249473491E+03  0.55136919995E+03  0.56143318735E+03  0.00000000000E+00 0.  1.
<scales pt_clust_3="30.89440" pt_clust_4="76.89467" pt_clust_5="106.96107" pt_clust_6="14000.00000"></scales>
<clustering>
<clus scale="   30.894">  2  3  1 -1</clus>
<clus scale="   76.895">  2  4  1 -1</clus>
<clus scale="  106.961">  2  5  1 -1</clus>
<clus scale="   30.894">  2  3  1 -1</clus>
</clustering>
</event>
<event>
 6    0  0.1622933E+002  0.1495977E+03  0.7546771E-02  0.1200968E+00
          2   -1    0    0  505    0 -0.00000000000E+00  0.00000000000E+00  0.25870595675E+04  0.25870595675E+04  0.00000000000E+00 0.  1.
         21   -1    0    0  501  502  0.00000000000E+00 -0.00000000000E+00 -0.80112586399E+02  0.80112586399E+02  0.00000000000E+00 0.  1.
         21    1    1    2  503  502  0.60870212137E+01 -0.65072131687E+02 -0.52169434815E+02  0.83624661903E+02  0.00000000000E+00 0.  1.
         21    1    1    2  504  503  0.56222869507E+01 -0.42889344854E+02  0.93799031812E+02  0.10329261533E+03  0.00000000000E+00 0.  1.
         21    1    1    2  505  504 -0.34591755583E+02 -0.48521152413E+02  0.18284237024E+03  0.19230762892E+03  0.00000000000E+00 0. -1.
          2    1    1    2  501    0  0.22882447419E+02  0.15648262895E+03  0.22824750138E+04  0.22879472477E+04  0.00000000000E+00 0.  1.
<scales pt_clust_3="65.35621" pt_clust_4="34.64965" pt_clust_5="34.64965" pt_clust_6="143.96373"></scales>
<clustering>
<clus scale="   34.650">  4  5 -1 -1</clus>
<clus scale="   65.356">  2  3  1 -1</clus>
<clus scale="  143.964">  1  6  2 -1</clus>
<clus scale="   65.356">  2  3  1 -1</clus>
</clustering>
</event>
<event>
 6    0  0.1622933E+002  0.1022852E+03  0.7546771E-02  0.1275563E+00
         -3   -1    0    0    0  501 -0.00000000000E+00  0.00000000000E+00  0.71113085343E+02  0.71113085343E+02  0.00000000000E+00 0.  1.
         21   -1    0    0  504  502  0.00000000000E+00 -0.00000000000E+00 -0.43871357090E+03  0.43871357090E+03  0.00000000000E+00 0.  1.
         21    1    1    2  503  501  0.48999271964E+02  0.25139271953E+02  0.93270959603E+01  0.55856122013E+02  0.00000000000E+00 0.  1.
         21    1    1    2  504  505  0.30903829884E+02 -0.46726766389E+01 -0.51404671311E+02  0.60160791560E+02  0.00000000000E+00 0.  1.
         21    1    1    2  505  503  0.11053407102E+02  0.83063566450E+02 -0.12013370745E+03  0.14647129939E+03  0.00000000000E+00 0.  1.
         -3    1    1    2    0  502 -0.90956508950E+02 -0.10353016176E+03 -0.20538920276E+03  0.24733844328E+03  0.00000000000E+00 0.  1.
<scales pt_clust_3="56.62366" pt_clust_4="31.25509" pt_clust_5="102.28517" pt_clust_6="14000.00000"></scales>
<clustering>
<clus scale="   31.255">  2  4  1 -1</clus>
<clus scale="   56.624">  1  3  2 -1</clus>
<clus scale="  102.285">  2  5  1 -1</clus>
<clus scale="   31.255">  2  3  1 -1</clus>
</clustering>
</event>
<event>
 6    0  0.1622933E+002  0.2280578E+03  0.7546771E-02  0.1128014E+00
          2   -1    0    0  503    0 -0.00000000000E+00  0.00000000000E+00  0.37799462412E+04  0.37799462412E+04  0.00000000000E+00 0. -1.
         21   -1    0    0  501  502  0.00000000000E+00 -0.00000000000E+00 -0.10650384880E+03  0.10650384880E+03  0.00000000000E+00 0. -1.
         21    1    1    2  503  504  0.20481864401E+02  0.48711440482E+02  0.11355627124E+04  0.11367915310E+04  0.00000000000E+00 0.  1.
         21    1    1    2  504  505  0.27166788147E+00  0.66675926236E+02  0.36594896428E+03  0.37197365149E+03  0.00000000000E+00 0.  1.
         21    1    1    2  505  502  0.19011240273E+03 -0.13098914487E+03  0.38808552091E+02  0.23410891794E+03  0.00000000000E+00 0. -1.
          2    1    1    2  501    0 -0.21086593501E+03  0.15601778154E+02  0.21331221637E+04  0.21435759896E+04  0.00000000000E+00 0. -1.
<scales pt_clust_3="52.84232" pt_clust_4="73.54068" pt_clust_5="228.05779" pt_clust_6="14000.00000"></scales>
<clustering>
<clus scale="   52.842">  1  3  2 -1</clus>
<clus scale="   73.541">  1  4  2 -1</clus>
<clus scale="  228.058">  2  5  1 -1</clus>
<clus scale="  228.058">  2  3  1 -1</clus>
</clustering>
</event>
<event>
 6    0  0.1622933E+002  0.6826998E+02  0.7546771E-02  0.1366077E+00
         21   -1    0    0  504  502  0.00000000000E+00  0.00000000000E+00  0.40151583622E+02  0.40151583622E+02  0.00000000000E+00 0. -1.
          1   -1    0    0  505    0 -0.00000000000E+00 -0.00000000000E+00 -0.10127779622E+04  0.10127779622E+04  0.00000000000E+00 0. -1.
         21    1    1    2  503  501 -0.83958361413E+02 -0.49607542510E+02 -0.13416649172E+03  0.16586308277E+03  0.00000000000E+00 0. -1.
         21    1    1    2  504  503  0.35017316365E+02  0.42708313635E+02 -0.19556428362E+03  0.20321319231E+03  0.00000000000E+00 0. -1.
         21    1    1    2  505  502  0.13001278028E+02 -0.48506214854E+02 -0.14882395460E+02  0.52377206918E+02  0.00000000000E+00 0. -1.
          1    1    1    2  501    0  0.35939767020E+02  0.55405443729E+02 -0.62801320777E+03  0.63147606383E+03  0.00000000000E+00 0. -1.
<scales pt_clust_3="68.26998" pt_clust_4="50.52835" pt_clust_5="50.21838" pt_clust_6="14000.00000"></scales>
<clustering>
<clus scale="   50.218">  1  5  2 -1</clus>
<clus scale="   50.528">  1  4  2 -1</clus>
<clus scale="   68.270">  1  3  2 -1</clus>
<clus scale="   50.218">  1  3  2 -1</clus>
</clustering>
</event>
<event>
 6    0  0.1622933E+002  0.9372858E+02  0.7546771E-02  0.1294066E+00
          2   -1    0    0  503    0 -0.00000000000E+00  0.00000000000E+00  0.14343058669E+03  0.14343058669E+03  0.00000000000E+00 0. -1.
         21   -1    0    0  501  502  0.00000000000E+00 -0.00000000000E+00 -0.11378479012E+04  0.11378479012E+04  0.00000000000E+00 0.  1.
         21    1    1    2  503  505 -0.66152725152E+01  0.58670261337E+02  0.83632685246E+02  0.10237376342E+03  0.00000000000E+00 0. -1.
         21    1    1    2  504  502  0.91511701703E+02 -0.16378734155E+02 -0.84381218028E+03  0.84891792893E+03  0.00000000000E+00 0.  1.
         21    1    1    2  505  504  0.28076799599E+02  0.57812727640E+02 -0.18855869573E+02  0.66978817325E+02  0.00000000000E+00 0.  1.
          2    1    1    2  501    0 -0.11297322879E+03 -0.10010425482E+03 -0.21538194987E+03  0.26300797818E+03  0.00000000000E+00 0. -1.
<scales pt_clust_3="59.04203" pt_clust_4="14000.00000" pt_clust_5="89.35276" pt_clust_6="93.72858"></scales>
<clustering>
<clus scale="   59.042">  1  3  2 -1</clus>
<clus scale="   89.353">  1  5  2 -1</clus>
<clus scale="   93.729">  1  6  2 -1</clus>
<clus scale="   93.729">  2  3  1 -1</clus>
</clustering>
</event>
<event>
 6    0  0.1622933E+002  0.1152008E+03  0.7546771E-02  0.1251231E+00
         21   -1    0    0  505  502  0.00000000000E+00  0.00000000000E+00  0.89262023038E+03  0.89262023038E+03  0.00000000000E+00 0.  1.
          2   -1    0    0  503    0 -0.00000000000E+00 -0.00000000000E+00 -0.17455414397E+04  0.17455414397E+04  0.00000000000E+00 0. -1.
         21    1    1    2  503  502 -0.21683154856E+02 -0.48059118793E+02 -0.15414931171E+03  0.16291669161E+03  0.00000000000E+00 0. -1.
         21    1    1    2  504  501  0.92830939935E+02  0.12014545105E+03 -0.93258197188E+03  0.94486064956E+03  0.00000000000E+00 0. -1.
         21    1    1    2  505  504 -0.11522601791E+03  0.43586625153E+01  0.87529552702E+03  0.88285802526E+03  0.00000000000E+00 0.  1.
          2    1    1    2  501    0  0.44078232829E+02 -0.76444994773E+02 -0.64148545274E+03  0.64752630365E+03  0.00000000000E+00 0. -1.
<scales pt_clust_3="52.72417" pt_clust_4="115.20083" pt_clust_5="14000.00000" pt_clust_6="102.23960"></scales>
<clustering>
<clus scale="   52.724">  2  3  1 -1</clus>
<clus scale="  102.240">  2  6  1 -1</clus>
<clus scale="  115.201">  2  4  1 -1</clus>
<clus scale="  115.201">  1  3  2 -1</clus>
</clustering>
</event>
<event>
 6    0  0.1622933E+002  0.2250022E+03  0.7546771E-02  0.1130208E+00
         21   -1    0    0  504  502  0.00000000000E+00  0.00000000000E+00  0.51553497884E+02  0.51553497884E+02  0.00000000000E+00 0. -1.
          2   -1    0    0  505    0 -0.00000000000E+00 -0.00000000000E+00 -0.21270605258E+04  0.21270605258E+04  0.00000000000E+00 0. -1.
         21    1    1    2  503  501 -0.40467051055E+02 -0.26733109359E+01 -0.13343326741E+03  0.13946026554E+03  0.00000000000E+00 0.  1.
         21    1    1    2  504  503  0.21709138027E+02  0.75432642410E+02 -0.34019141749E+02  0.85549238571E+02  0.00000000000E+00 0. -1.
         21    1    1    2  505  502  0.14184587314E+03  0.11939079095E+03 -0.10191530230E+04  0.10358799627E+04  0.00000000000E+00 0. -1.
          2    1    1    2  501    0 -0.12308796012E+03 -0.19215012243E+03 -0.88890159572E+03  0.91772455691E+03  0.00000000000E+00 0. -1.
<scales pt_clust_3="37.14805" pt_clust_4="78.49440" pt_clust_5="207.02957" pt_clust_6="37.14805"></scales>
<clustering>
<clus scale="   37.148">  3  6 -1 -1</clus>
<clus scale="   78.494">  1  4  2 -1</clus>
<clus scale="  207.030">  2  5  1 -1</clus>
<clus scale="   78.494">  1  3  2 -1</clus>
</clustering>
</event>
<event>
 6    0  0.1622933E+002  0.1065859E+03  0.7546771E-02  0.1267026E+00
          2   -1    0    0  503    0 -0.00000000000E+00  0.00000000000E+00  0.48854760096E+03  0.48854760096E+03  0.00000000000E+00 0.  1.
         21   -1    0    0  504  502  0.00000000000E+00 -0.00000000000E+00 -0.12676504710E+03  0.12676504710E+03  0.00000000000E+00 0.  1.
         21    1    1    2  503  502  0.90179618051E+02  0.32913258222E+02  0.11995692953E+03  0.15364019989E+03  0.00000000000E+00 0.  1.
         21    1    1    2  504  505 -0.53746035160E+01  0.47048155780E+02 -0.76688478780E+02  0.90130672375E+02  0.00000000000E+00 0.  1.
         21    1    1    2  505  501 -0.10721723090E+03 -0.51267050266E+02  0.11702488810E+03  0.16678929666E+03  0.00000000000E+00 0.  1.
          2    1    1    2  501    0  0.22412216364E+02 -0.28694363736E+02  0.20148921500E+03  0.20475247914E+03  0.00000000000E+00 0.  1.
<scales pt_clust_3="106.58589" pt_clust_4="46.62508" pt_clust_5="14000.00000" pt_clust_6="36.40981"></scales>
<clustering>
<clus scale="   36.410">  1  6  2 -1</clus>
<clus scale="   46.625">  2  4  1 -1</clus>
<clus scale="  106.586">  1  3  2 -1</clus>
<clus scale="   46.625">  2  3  1 -1</clus>
</clustering>
</event>
<event>
 6    0  0.1622933E+002  0.7933187E+02  0.7546771E-02  0.1330958E+00
         -3   -1    0    0    0  501 -0.00000000000E+00  0.00000000000E+00  0.53951572254E+03  0.53951572254E+03  0.00000000000E+00 0. -1.
         21   -1    0    0  505  502  0.00000000000E+00 -0.00000000000E+00 -0.93507893538E+02  0.93507893538E+02  0.00000000000E+00 0.  1.
         21    1    1    2  503  504  0.35192085832E+02  0.10997328478E+03  0.63191134811E+01  0.11563968811E+03  0.00000000000E+00 0.  1.
         21    1    1    2  504  501 -0.63934231849E+01 -0.50350000870E+02  0.41510817235E+03  0.41819946580E+03  0.00000000000E+00 0. -1.
         21    1    1    2  505  503 -0.32615566818E+02 -0.24344058833E+01  0.26106642361E+02  0.41848038260E+02  0.00000000000E+00 0.  1.
         -3    1    1    2    0  502  0.38169041712E+01 -0.57188878026E+02 -0.15260991929E+01  0.57336423904E+02  0.00000000000E+00 0. -1.
<scales pt_clust_3="79.33187" pt_clust_4="50.87533" pt_clust_5="32.70629" pt_clust_6="14000.00000"></scales>
<clustering>
<clus scale="   32.706">  2  5  1 -1</clus>
<clus scale="   50.875">  1  4  2 -1</clus>
<clus scale="   79.332">  1  3  2 -1</clus>
<clus scale="   32.706">  2  3  1 -1</clus>
</clustering>
</event>
