<event>
 5    0  0.5648525E-005  0.1043743E+04  0.7546771E-02  0.9261828E-01
         21   -1    0    0  502  501  0.00000000000E+00  0.00000000000E+00  0.87803361757E+03  0.87803361757E+03  0.00000000000E+00 0.  1.
         21   -1    0    0  501  502 -0.00000000000E+00 -0.00000000000E+00 -0.12407259511E+04  0.12407259511E+04  0.00000000000E+00 0.  1.
         25    1    1    2    0    0  0.27547973639E+03 -0.50634203499E+03 -0.36215428964E+03  0.69213587616E+03  0.12500000000E+03 0.  0.
         25    1    1    2    0    0 -0.32731977143E+02  0.21359967560E+02 -0.59678280965E+03  0.61098473993E+03  0.12500000000E+03 0.  0.
         25    1    1    2    0    0 -0.24274775925E+03  0.48498206743E+03  0.59624476572E+03  0.81563895260E+03  0.12500000000E+03 0.  0.
</event>
<event>
 5    0  0.5648525E-005  0.5475843E+03  0.7546771E-02  0.1002055E+00
         21   -1    0    0  502  501  0.00000000000E+00  0.00000000000E+00  0.95582934038E+03  0.95582934038E+03  0.00000000000E+00 0. -1.
         21   -1    0    0  501  502 -0.00000000000E+00 -0.00000000000E+00 -0.31370511585E+03  0.31370511585E+03  0.00000000000E+00 0. -1.
         25    1    1    2    0    0 -0.12026622333E+03 -0.66905348149E+02  0.75017275978E+03  0.77286768570E+03  0.12500000000E+03 0.  0.
         25    1    1    2    0    0  0.17750380556E+03  0.69301708395E+02 -0.22195067219E+03  0.31811543292E+03  0.12500000000E+03 0.  0.
         25    1    1    2    0    0 -0.57237582236E+02 -0.23963602465E+01  0.11390213694E+03  0.17855133761E+03  0.12500000000E+03 0.  0.
</event>
<event>
 5    0  0.5648525E-005  0.3826661E+03  0.7546771E-02  0.1049953E+00
         21   -1    0    0  502  501  0.00000000000E+00  0.00000000000E+00  0.62325984426E+03  0.62325984426E+03  0.00000000000E+00 0. -1.
         21   -1    0    0  501  502 -0.00000000000E+00 -0.00000000000E+00 -0.23494753523E+03  0.23494753523E+03  0.00000000000E+00 0. -1.
         25    1    1    2    0    0  0.77205565853E+02 -0.10928906398E+03 -0.94817045473E+01  0.18335676051E+03  0.12500000000E+03 0.  0.
         25    1    1    2    0    0  0.18364929807E+03  0.44860303831E+02  0.80049231820E+02  0.24035887971E+03  0.12500000000E+03 0.  0.
         25    1    1    2    0    0 -0.26085486392E+03  0.64428760145E+02  0.31774478176E+03  0.43449173927E+03  0.12500000000E+03 0.  0.
</event>
<event>
 5    0  0.5648525E-005  0.3529616E+03  0.7546771E-02  0.1061406E+00
         21   -1    0    0  502  501  0.00000000000E+00  0.00000000000E+00  0.44565625938E+03  0.44565625938E+03  0.00000000000E+00 0. -1.
         21   -1    0    0  501  502 -0.00000000000E+00 -0.00000000000E+00 -0.27954708050E+03  0.27954708050E+03  0.00000000000E+00 0. -1.
         25    1    1    2    0    0  0.19053997936E+03 -0.59446526751E+02  0.26997413792E+03  0.35826025236E+03  0.12500000000E+03 0.  0.
         25    1    1    2    0    0 -0.82014284390E+02  0.10187097104E+03 -0.58526983651E+02  0.19014322339E+03  0.12500000000E+03 0.  0.
         25    1    1    2    0    0 -0.10852569497E+03 -0.42424444288E+02 -0.45337975384E+02  0.17679986413E+03  0.12500000000E+03 0.  0.
</event>
<event>
 5    0  0.5648525E-005  0.3270448E+03  0.7546771E-02  0.1072452E+00
         21   -1    0    0  502  501  0.00000000000E+00  0.00000000000E+00  0.10891876864E+03  0.10891876864E+03  0.00000000000E+00 0.  1.
         21   -1    0    0  501  502 -0.00000000000E+00 -0.00000000000E+00 -0.98200083594E+03  0.98200083594E+03  0.00000000000E+00 0.  1.
         25    1    1    2    0    0  0.14903682903E+03 -0.20959782002E+03 -0.43459769495E+03  0.52023396566E+03  0.12500000000E+03 0.  0.
         25    1    1    2    0    0 -0.58031887480E+02  0.12140540880E+03 -0.18268501164E+03  0.25904784641E+03  0.12500000000E+03 0.  0.
         25    1    1    2    0    0 -0.91004941548E+02  0.88192411223E+02 -0.25579936070E+03  0.31163779250E+03  0.12500000000E+03 0.  0.
</event>
<event>
 5    0  0.6771565E-005  0.4873229E+03  0.7546771E-02  0.1017142E+00
         21   -1    0    0  502  501  0.00000000000E+00  0.00000000000E+00  0.31755135176E+03  0.31755135176E+03  0.00000000000E+00 0.  1.
         21   -1    0    0  501  502 -0.00000000000E+00 -0.00000000000E+00 -0.74785881893E+03  0.74785881893E+03  0.00000000000E+00 0.  1.
         25    1    1    2    0    0 -0.16830900589E+03  0.60728803601E+01 -0.49249340276E+03  0.53529389414E+03  0.12500000000E+03 0.  0.
         25    1    1    2    0    0  0.24255179959E+03  0.12973115979E+02 -0.11820262797E+03  0.29765170667E+03  0.12500000000E+03 0.  0.
         25    1    1    2    0    0 -0.74242793699E+02 -0.19045996339E+02  0.18038856355E+03  0.23246456989E+03  0.12500000000E+03 0.  0.
</event>
<event>
 5    0  0.5648525E-005  0.3092783E+03  0.7546771E-02  0.1080692E+00
         21   -1    0    0  502  501  0.00000000000E+00  0.00000000000E+00  0.24837971245E+03  0.24837971245E+03  0.00000000000E+00 0.  1.
         21   -1    0    0  501  502 -0.00000000000E+00 -0.00000000000E+00 -0.38510814196E+03  0.38510814196E+03  0.00000000000E+00 0.  1.
         25    1    1    2    0    0  0.82809688710E+02 -0.35234877907E+02 -0.25656083431E+03  0.29924472070E+03  0.12500000000E+03 0.  0.
         25    1    1    2    0    0  0.13783848019E+02  0.76592373700E+02  0.40606838546E+02  0.15274259888E+03  0.12500000000E+03 0.  0.
         25    1    1    2    0    0 -0.96593536729E+02 -0.41357495793E+02  0.79225566252E+02  0.18150053483E+03  0.12500000000E+03 0.  0.
</event>
<event>
 5    0  0.5648525E-005  0.4667049E+03  0.7546771E-02  0.1022854E+00
         21   -1    0    0  502  501  0.00000000000E+00  0.00000000000E+00  0.45760792860E+03  0.45760792860E+03  0.00000000000E+00 0.  1.
         21   -1    0    0  501  502 -0.00000000000E+00 -0.00000000000E+00 -0.47598270328E+03  0.47598270328E+03  0.00000000000E+00 0.  1.
         25    1    1    2    0    0 -0.52289357786E+02 -0.29624096904E+03  0.49953381606E+01  0.32579570605E+03  0.12500000000E+03 0.  0.
         25    1    1    2    0    0 -0.14538989717E+03 -0.24787685816E+00 -0.10902698744E+03  0.22056783000E+03  0.12500000000E+03 0.  0.
         25    1    1    2    0    0  0.19767925496E+03  0.29648884590E+03  0.85656874600E+02  0.38722709583E+03  0.12500000000E+03 0.  0.
</event>
<event>
 5    0  0.5648525E-005  0.3791405E+03  0.7546771E-02  0.1051252E+00
         21   -1    0    0  502  501  0.00000000000E+00  0.00000000000E+00  0.24322617362E+03  0.24322617362E+03  0.00000000000E+00 0.  1.
         21   -1    0    0  501  502 -0.00000000000E+00 -0.00000000000E+00 -0.59100359237E+03  0.59100359237E+03  0.00000000000E+00 0.  1.
         25    1    1    2    0    0 -0.10016123856E+03 -0.90855507872E+02  0.14777941073E+03  0.23611596994E+03  0.12500000000E+03 0.  0.
         25    1    1    2    0    0  0.56763862222E+02  0.13558338223E+03 -0.25250892468E+03  0.31779041306E+03  0.12500000000E+03 0.  0.
         25    1    1    2    0    0  0.43397376342E+02 -0.44727874357E+02 -0.24304790481E+03  0.28032338299E+03  0.12500000000E+03 0.  0.
</event>
<event>
 5    0  0.5648525E-005  0.2664632E+03  0.7546771E-02  0.1103321E+00
         21   -1    0    0  502  501  0.00000000000E+00  0.00000000000E+00  0.13374840799E+04  0.13374840799E+04  0.00000000000E+00 0.  1.
         21   -1    0    0  501  502 -0.00000000000E+00 -0.00000000000E+00 -0.53086718724E+02  0.53086718724E+02  0.00000000000E+00 0.  1.
         25    1    1    2    0    0 -0.14465163494E+03  0.10200692158E+03  0.59294731370E+03  0.63130105684E+03  0.12500000000E+03 0.  0.
         25    1    1    2    0    0  0.11002010127E+03 -0.55247740175E+02  0.40465303733E+03  0.44105080898E+03  0.12500000000E+03 0.  0.
         25    1    1    2    0    0  0.34631533677E+02 -0.46759181408E+02  0.28679701015E+03  0.31821893282E+03  0.12500000000E+03 0.  0.
</event>
<event>
 5    0  0.6634989E-005  0.2944732E+03  0.7546771E-02  0.1088036E+00
         21   -1    0    0  502  501  0.00000000000E+00  0.00000000000E+00  0.64549253336E+03  0.64549253336E+03  0.00000000000E+00 0. -1.
         21   -1    0    0  501  502 -0.00000000000E+00 -0.00000000000E+00 -0.13433847232E+03  0.13433847232E+03  0.00000000000E+00 0. -1.
         25    1    1    2    0    0 -0.31860476660E+01 -0.92147747826E+02  0.72531942315E+02  0.17142707191E+03  0.12500000000E+03 0.  0.
         25    1    1    2    0    0  0.12638422685E+03  0.11299514117E+02  0.68421912702E+02  0.19080673456E+03  0.12500000000E+03 0.  0.
         25    1    1    2    0    0 -0.12319817918E+03  0.80848233709E+02  0.37020020602E+03  0.41759719921E+03  0.12500000000E+03 0.  0.
</event>
<event>
 5    0  0.5648525E-005  0.2787545E+03  0.7546771E-02  0.1096371E+00
         21   -1    0    0  502  501  0.00000000000E+00  0.00000000000E+00  0.23254646472E+03  0.23254646472E+03  0.00000000000E+00 0. -1.
         21   -1    0    0  501  502 -0.00000000000E+00 -0.00000000000E+00 -0.33414431046E+03  0.33414431046E+03  0.00000000000E+00 0. -1.
         25    1    1    2    0    0  0.92177333891E+01 -0.14849138053E+03 -0.68909675589E+02  0.20617516846E+03  0.12500000000E+03 0.  0.
         25    1    1    2    0    0 -0.13889809414E+02  0.57318353175E+02  0.88334946690E+02  0.16403165311E+03  0.12500000000E+03 0.  0.
         25    1    1    2    0    0  0.46720760245E+01  0.91173027356E+02 -0.12102311684E+03  0.19648395360E+03  0.12500000000E+03 0.  0.
</event>
<event>
 5    0  0.5648525E-005  0.2953046E+03  0.7546771E-02  0.1087612E+00
         21   -1    0    0  502  501  0.00000000000E+00  0.00000000000E+00  0.18049142541E+03  0.18049142541E+03  0.00000000000E+00 0.  1.
         21   -1    0    0  501  502 -0.00000000000E+00 -0.00000000000E+00 -0.48315218576E+03  0.48315218576E+03  0.00000000000E+00 0.  1.
         25    1    1    2    0    0 -0.95745559377E+02 -0.12416393464E+03 -0.61450047312E+01  0.20061569203E+03  0.12500000000E+03 0.  0.
         25    1    1    2    0    0  0.67519127608E+02 -0.12186618537E+02 -0.44963440267E+02  0.14951273265E+03  0.12500000000E+03 0.  0.
         25    1    1    2    0    0  0.28226431769E+02  0.13635055318E+03 -0.25155231535E+03  0.31351518649E+03  0.12500000000E+03 0.  0.
</event>
<event>
 5    0  0.6320632E-005  0.2583813E+03  0.7546771E-02  0.1108120E+00
         21   -1    0    0  502  501  0.00000000000E+00  0.00000000000E+00  0.17801864650E+03  0.17801864650E+03  0.00000000000E+00 0. -1.
         21   -1    0    0  501  502 -0.00000000000E+00 -0.00000000000E+00 -0.37502193042E+03  0.37502193042E+03  0.00000000000E+00 0. -1.
         25    1    1    2    0    0 -0.88484689897E+02 -0.45144410908E+02  0.62089796545E+02  0.17131170718E+03  0.12500000000E+03 0.  0.
         25    1    1    2    0    0  0.40894653442E+02  0.22394222670E+02 -0.75020684595E+02  0.15305873711E+03  0.12500000000E+03 0.  0.
         25    1    1    2    0    0  0.47590036454E+02  0.22750188237E+02 -0.18407239587E+03  0.22867013263E+03  0.12500000000E+03 0.  0.
</event>
<event>
 5    0  0.5648525E-005  0.2268513E+03  0.7546771E-02  0.1128876E+00
         21   -1    0    0  502  501  0.00000000000E+00  0.00000000000E+00  0.77044947062E+02  0.77044947062E+02  0.00000000000E+00 0.  1.
         21   -1    0    0  501  502 -0.00000000000E+00 -0.00000000000E+00 -0.66794169870E+03  0.66794169870E+03  0.00000000000E+00 0.  1.
         25    1    1    2    0    0  0.26539570392E+02  0.91755002972E+02 -0.17169483695E+03  0.23286787327E+03  0.12500000000E+03 0.  0.
         25    1    1    2    0    0 -0.74301902967E+02 -0.46130758501E+02 -0.22774506176E+03  0.27411974176E+03  0.12500000000E+03 0.  0.
         25    1    1    2    0    0  0.47762332575E+02 -0.45624244471E+02 -0.19145685292E+03  0.23799903073E+03  0.12500000000E+03 0.  0.
</event>
<event>
 5    0  0.5905036E-005  0.5593611E+03  0.7546771E-02  0.9993501E-01
         21   -1    0    0  502  501  0.00000000000E+00  0.00000000000E+00  0.12016594342E+04  0.12016594342E+04  0.00000000000E+00 0. -1.
         21   -1    0    0  501  502 -0.00000000000E+00 -0.00000000000E+00 -0.26037733444E+03  0.26037733444E+03  0.00000000000E+00 0. -1.
         25    1    1    2    0    0  0.66754643174E+02 -0.76282888327E+02  0.82181703162E+03  0.83742671017E+03  0.12500000000E+03 0.  0.
         25    1    1    2    0    0 -0.84631518296E+02 -0.22893713044E+03  0.26030188998E+01  0.27423799753E+03  0.12500000000E+03 0.  0.
         25    1    1    2    0    0  0.17876875122E+02  0.30522001877E+03  0.11686204921E+03  0.35037206091E+03  0.12500000000E+03 0.  0.
</event>
<event>
 5    0  0.5648525E-005  0.2518324E+03  0.7546771E-02  0.1112152E+00
         21   -1    0    0  502  501  0.00000000000E+00  0.00000000000E+00  0.66736000165E+02  0.66736000165E+02  0.00000000000E+00 0.  1.
         21   -1    0    0  501  502 -0.00000000000E+00 -0.00000000000E+00 -0.95030469578E+03  0.95030469578E+03  0.00000000000E+00 0.  1.
         25    1    1    2    0    0  0.26027854606E+02  0.20668157205E+02 -0.20997564415E+03  0.24661588164E+03  0.12500000000E+03 0.  0.
         25    1    1    2    0    0 -0.10587348464E+03  0.88743276376E+02 -0.38976474381E+03  0.43200245297E+03  0.12500000000E+03 0.  0.
         25    1    1    2    0    0  0.79845630029E+02 -0.10941143358E+03 -0.28382830765E+03  0.33842236134E+03  0.12500000000E+03 0.  0.
</event>
<event>
 5    0  0.5648525E-005  0.3778153E+03  0.7546771E-02  0.1051744E+00
         21   -1    0    0  502  501  0.00000000000E+00  0.00000000000E+00  0.43766378765E+03  0.43766378765E+03  0.00000000000E+00 0. -1.
         21   -1    0    0  501  502 -0.00000000000E+00 -0.00000000000E+00 -0.32615077375E+03  0.32615077375E+03  0.00000000000E+00 0. -1.
         25    1    1    2    0    0  0.18839490306E+03 -0.17016024168E+03 -0.29654967981E+02  0.28451988415E+03  0.12500000000E+03 0.  0.
         25    1    1    2    0    0 -0.18233564756E+03  0.16508896717E+03 -0.18306153202E+02  0.27651540770E+03  0.12500000000E+03 0.  0.
         25    1    1    2    0    0 -0.60592554996E+01  0.50712745170E+01  0.15947413508E+03  0.20277926955E+03  0.12500000000E+03 0.  0.
</event>
<event>
 5    0  0.5648525E-005  0.2570089E+03  0.7546771E-02  0.1108954E+00
         21   -1    0    0  502  501  0.00000000000E+00  0.00000000000E+00  0.66376992390E+02  0.66376992390E+02  0.00000000000E+00 0. -1.
         21   -1    0    0  501  502 -0.00000000000E+00 -0.00000000000E+00 -0.99512769949E+03  0.99512769949E+03  0.00000000000E+00 0. -1.
         25    1    1    2    0    0  0.65844103033E+02 -0.11597457707E+02 -0.13219613833E+03  0.19383179801E+03  0.12500000000E+03 0.  0.
         25    1    1    2    0    0  0.70090833749E+02  0.21585325208E+02 -0.23149641688E+03  0.27311946519E+03  0.12500000000E+03 0.  0.
         25    1    1    2    0    0 -0.13593493678E+03 -0.99878675011E+01 -0.56505815189E+03  0.59455342867E+03  0.12500000000E+03 0.  0.
</event>
<event>
 5    0  0.5648525E-005  0.3167228E+03  0.7546771E-02  0.1077168E+00
         21   -1    0    0  502  501  0.00000000000E+00  0.00000000000E+00  0.13044229570E+03  0.13044229570E+03  0.00000000000E+00 0. -1.
         21   -1    0    0  501  502 -0.00000000000E+00 -0.00000000000E+00 -0.76902477012E+03  0.76902477012E+03  0.00000000000E+00 0. -1.
         25    1    1    2    0    0 -0.12953948064E+03  0.11936194862E+03 -0.13776550420E+03  0.25618759917E+03  0.12500000000E+03 0.  0.
         25    1    1    2    0    0  0.76491819099E+02  0.59148115265E+02 -0.10956429981E+03  0.19229881363E+03  0.12500000000E+03 0.  0.
         25    1    1    2    0    0  0.53047661536E+02 -0.17851006388E+03 -0.39125267041E+03  0.45098065302E+03  0.12500000000E+03 0.  0.
</event>
<event>
 5    0  0.5648525E-005  0.3077941E+03  0.7546771E-02  0.1081408E+00
         21   -1    0    0  502  501  0.00000000000E+00  0.00000000000E+00  0.11077008671E+04  0.11077008671E+04  0.00000000000E+00 0.  1.
         21   -1    0    0  501  502 -0.00000000000E+00 -0.00000000000E+00 -0.85526010902E+02  0.85526010902E+02  0.00000000000E+00 0.  1.
         25    1    1    2    0    0 -0.79563936905E+02 -0.14505897414E+02  0.35490274605E+02  0.15305358770E+03  0.12500000000E+03 0.  0.
         25    1    1    2    0    0 -0.53225600139E+02  0.26751670106E+02  0.54158769993E+03  0.55900881306E+03  0.12500000000E+03 0.  0.
         25    1    1    2    0    0  0.13278953704E+03 -0.12245772692E+02  0.44509688169E+03  0.48116447727E+03  0.12500000000E+03 0.  0.
</event>
<event>
 5    0  0.5648525E-005  0.3427679E+03  0.7546771E-02  0.1065623E+00
         21   -1    0    0  502  501  0.00000000000E+00  0.00000000000E+00  0.37886692011E+03  0.37886692011E+03  0.00000000000E+00 0.  1.
         21   -1    0    0  501  502 -0.00000000000E+00 -0.00000000000E+00 -0.31010850058E+03  0.31010850058E+03  0.00000000000E+00 0.  1.
         25    1    1    2    0    0 -0.97024829259E+02  0.28271961809E+01  0.25856312623E+03  0.30315293298E+03  0.12500000000E+03 0.  0.
         25    1    1    2    0    0  0.40166002652E+02 -0.61866964499E+02 -0.18648194760E+03  0.23630773548E+03  0.12500000000E+03 0.  0.
         25    1    1    2    0    0  0.56858826608E+02  0.59039768319E+02 -0.33227590977E+01  0.14951475223E+03  0.12500000000E+03 0.  0.
</event>
<event>
 5    0  0.5648525E-005  0.2435495E+03  0.7546771E-02  0.1117451E+00
         21   -1    0    0  502  501  0.00000000000E+00  0.00000000000E+00  0.27604100638E+03  0.27604100638E+03  0.00000000000E+00 0.  1.
         21   -1    0    0  501  502 -0.00000000000E+00 -0.00000000000E+00 -0.21488238170E+03  0.21488238170E+03  0.00000000000E+00 0.  1.
         25    1    1    2    0    0 -0.96327317230E+02 -0.21909207449E+02 -0.38215218528E+02  0.16384251079E+03  0.12500000000E+03 0.  0.
         25    1    1    2    0    0  0.90687915583E+02 -0.17699260621E+02 -0.10665121832E+02  0.15580855780E+03  0.12500000000E+03 0.  0.
         25    1    1    2    0    0  0.56394016468E+01  0.39608468070E+02  0.11003896504E+03  0.17127231948E+03  0.12500000000E+03 0.  0.
</event>
<event>
 5    0  0.5648525E-005  0.3660889E+03  0.7546771E-02  0.1056199E+00
         21   -1    0    0  502  501  0.00000000000E+00  0.00000000000E+00  0.10739118964E+04  0.10739118964E+04  0.00000000000E+00 0. -1.
         21   -1    0    0  501  502 -0.00000000000E+00 -0.00000000000E+00 -0.12479707397E+03  0.12479707397E+03  0.00000000000E+00 0. -1.
         25    1    1    2    0    0 -0.23496703626E+03 -0.11980135726E+03  0.47382335047E+03  0.55650286683E+03  0.12500000000E+03 0.  0.
         25    1    1    2    0    0  0.50744353482E+02  0.11985371866E+03  0.33073690756E+03  0.37676492048E+03  0.12500000000E+03 0.  0.
         25    1    1    2    0    0  0.18422268278E+03 -0.52361392586E-01  0.14455456444E+03  0.26544118311E+03  0.12500000000E+03 0.  0.
</event>
<event>
 5    0  0.5648525E-005  0.4087814E+03  0.7546771E-02  0.1040781E+00
         21   -1    0    0  502  501  0.00000000000E+00  0.00000000000E+00  0.57537079075E+03  0.57537079075E+03  0.00000000000E+00 0. -1.
         21   -1    0    0  501  502 -0.00000000000E+00 -0.00000000000E+00 -0.29042525714E+03  0.29042525714E+03  0.00000000000E+00 0. -1.
         25    1    1    2    0    0 -0.17131969784E+03 -0.13640281895E+03 -0.56816139306E+02  0.25847483740E+03  0.12500000000E+03 0.  0.
         25    1    1    2    0    0  0.10099758659E+03  0.26104038571E+03  0.16658885302E+03  0.34888313433E+03  0.12500000000E+03 0.  0.
         25    1    1    2    0    0  0.70322111253E+02 -0.12463756676E+03  0.17517281990E+03  0.25843807617E+03  0.12500000000E+03 0.  0.
</event>
<event>
 5    0  0.5648525E-005  0.2641559E+03  0.7546771E-02  0.1104672E+00
         21   -1    0    0  502  501  0.00000000000E+00  0.00000000000E+00  0.60632238282E+02  0.60632238282E+02  0.00000000000E+00 0.  1.
         21   -1    0    0  501  502 -0.00000000000E+00 -0.00000000000E+00 -0.11508455504E+04  0.11508455504E+04  0.00000000000E+00 0.  1.
         25    1    1    2    0    0  0.55807313069E+02 -0.57721391610E+02 -0.23627399430E+03  0.27909965178E+03  0.12500000000E+03 0.  0.
         25    1    1    2    0    0 -0.10771988603E+03  0.13909998864E+03 -0.46744370954E+03  0.51486017740E+03  0.12500000000E+03 0.  0.
         25    1    1    2    0    0  0.51912572960E+02 -0.81378597033E+02 -0.38649560830E+03  0.41751795952E+03  0.12500000000E+03 0.  0.
</event>
<event>
 5    0  0.7328577E-005  0.4051069E+03  0.7546771E-02  0.1042026E+00
         21   -1    0    0  502  501  0.00000000000E+00  0.00000000000E+00  0.15661751425E+03  0.15661751425E+03  0.00000000000E+00 0.  1.
         21   -1    0    0  501  502 -0.00000000000E+00 -0.00000000000E+00 -0.10478496087E+04  0.10478496087E+04  0.00000000000E+00 0.  1.
         25    1    1    2    0    0  0.97184010089E+02  0.42701453081E+02 -0.78920081404E+00  0.16399319727E+03  0.12500000000E+03 0.  0.
         25    1    1    2    0    0 -0.22768693334E+03 -0.98473148553E+02 -0.25356533871E+03  0.37610993286E+03  0.12500000000E+03 0.  0.
         25    1    1    2    0    0  0.13050292325E+03  0.55771695473E+02 -0.63687755496E+03  0.66436399286E+03  0.12500000000E+03 0.  0.
</event>
<event>
 5    0  0.5648525E-005  0.6850728E+03  0.7546771E-02  0.9743106E-01
         21   -1    0    0  502  501  0.00000000000E+00  0.00000000000E+00  0.26611700477E+04  0.26611700477E+04  0.00000000000E+00 0.  1.
         21   -1    0    0  501  502 -0.00000000000E+00 -0.00000000000E+00 -0.17636031302E+03  0.17636031302E+03  0.00000000000E+00 0.  1.
         25    1    1    2    0    0 -0.15187672387E+03  0.25723685397E+02  0.16571998617E+04  0.16690310449E+04  0.12500000000E+03 0.  0.
         25    1    1    2    0    0  0.27469685806E+03  0.31636409356E+03  0.49235500187E+03  0.65847023577E+03  0.12500000000E+03 0.  0.
         25    1    1    2    0    0 -0.12282013419E+03 -0.34208777896E+03  0.33525487106E+03  0.51002907999E+03  0.12500000000E+03 0.  0.
</event>
<event>
 5    0  0.5648525E-005  0.3430893E+03  0.7546771E-02  0.1065488E+00
         21   -1    0    0  502  501  0.00000000000E+00  0.00000000000E+00  0.11163041678E+03  0.11163041678E+03  0.00000000000E+00 0. -1.
         21   -1    0    0  501  502 -0.00000000000E+00 -0.00000000000E+00 -0.10544642994E+04  0.10544642994E+04  0.00000000000E+00 0. -1.
         25    1    1    2    0    0  0.11035487994E+02  0.46998364009E+02  0.86518560466E+01  0.13427763339E+03  0.12500000000E+03 0.  0.
         25    1    1    2    0    0  0.79710186145E+02  0.43103127737E+02 -0.73492664242E+03  0.75096855003E+03  0.12500000000E+03 0.  0.
         25    1    1    2    0    0 -0.90745674139E+02 -0.90101491747E+02 -0.21655909629E+03  0.28084853280E+03  0.12500000000E+03 0.  0.
</event>
<event>
 5    0  0.5648525E-005  0.3504989E+03  0.7546771E-02  0.1062410E+00
         21   -1    0    0  502  501  0.00000000000E+00  0.00000000000E+00  0.55065373595E+03  0.55065373595E+03  0.00000000000E+00 0.  1.
         21   -1    0    0  501  502 -0.00000000000E+00 -0.00000000000E+00 -0.22309752994E+03  0.22309752994E+03  0.00000000000E+00 0.  1.
         25    1    1    2    0    0  0.88290035169E+02 -0.92280703746E+02  0.97596990242E+02  0.20361982000E+03  0.12500000000E+03 0.  0.
         25    1    1    2    0    0 -0.10112664560E+03  0.17010654155E+03  0.32044414478E+03  0.39682777606E+03  0.12500000000E+03 0.  0.
         25    1    1    2    0    0  0.12836610427E+02 -0.77825837803E+02 -0.90484929015E+02  0.17330366983E+03  0.12500000000E+03 0.  0.
</event>
<event>
 5    0  0.5648525E-005  0.3187696E+03  0.7546771E-02  0.1076217E+00
         21   -1    0    0  502  501  0.00000000000E+00  0.00000000000E+00  0.19632123379E+03  0.19632123379E+03  0.00000000000E+00 0. -1.
         21   -1    0    0  501  502 -0.00000000000E+00 -0.00000000000E+00 -0.51759077517E+03  0.51759077517E+03  0.00000000000E+00 0. -1.
         25    1    1    2    0    0  0.98920295302E+01 -0.18842640770E+03 -0.35798982360E+02  0.22914827188E+03  0.12500000000E+03 0.  0.
         25    1    1    2    0    0  0.24776587209E+02  0.17395181698E+03 -0.59311647963E+02  0.22364253953E+03  0.12500000000E+03 0.  0.
         25    1    1    2    0    0 -0.34668616739E+02  0.14474590722E+02 -0.22615891105E+03  0.26112119755E+03  0.12500000000E+03 0.  0.
</event>
<event>
 5    0  0.6912727E-005  0.2852183E+03  0.7546771E-02  0.1092872E+00
         21   -1    0    0  502  501  0.00000000000E+00  0.00000000000E+00  0.15052461643E+03  0.15052461643E+03  0.00000000000E+00 0. -1.
         21   -1    0    0  501  502 -0.00000000000E+00 -0.00000000000E+00 -0.54043957456E+03  0.54043957456E+03  0.00000000000E+00 0. -1.
         25    1    1    2    0    0  0.20885019923E+02 -0.15039384065E+02  0.79813122614E+01  0.12787129653E+03  0.12500000000E+03 0.  0.
         25    1    1    2    0    0  0.79816292800E+02  0.60750679711E+02 -0.35689815639E+03  0.39123213022E+03  0.12500000000E+03 0.  0.
         25    1    1    2    0    0 -0.10070131272E+03 -0.45711295646E+02 -0.40998113997E+02  0.17186076424E+03  0.12500000000E+03 0.  0.
</event>
<event>
 5    0  0.5648525E-005  0.3980723E+03  0.7546771E-02  0.1044449E+00
         21   -1    0    0  502  501  0.00000000000E+00  0.00000000000E+00  0.87595482294E+03  0.87595482294E+03  0.00000000000E+00 0.  1.
         21   -1    0    0  501  502 -0.00000000000E+00 -0.00000000000E+00 -0.18090148122E+03  0.18090148122E+03  0.00000000000E+00 0.  1.
         25    1    1    2    0    0  0.24149988261E+03 -0.15577036921E+03  0.27548987608E+03  0.41726043791E+03  0.12500000000E+03 0.  0.
         25    1    1    2    0    0  0.36528547256E+02  0.11164576025E+03  0.18615488590E+03  0.25313583723E+03  0.12500000000E+03 0.  0.
         25    1    1    2    0    0 -0.27802842987E+03  0.44124608958E+02  0.23340857975E+03  0.38646002902E+03  0.12500000000E+03 0.  0.
</event>
<event>
 5    0  0.5648525E-005  0.3208365E+03  0.7546771E-02  0.1075265E+00
         21   -1    0    0  502  501  0.00000000000E+00  0.00000000000E+00  0.45185460553E+03  0.45185460553E+03  0.00000000000E+00 0.  1.
         21   -1    0    0  501  502 -0.00000000000E+00 -0.00000000000E+00 -0.22780794190E+03  0.22780794190E+03  0.00000000000E+00 0.  1.
         25    1    1    2    0    0 -0.89032471976E+02  0.78486924672E+02 -0.81878887158E+01  0.17256598718E+03  0.12500000000E+03 0.  0.
         25    1    1    2    0    0  0.10769508860E+03 -0.20492731936E+03  0.88092787906E+02  0.27745049578E+03  0.12500000000E+03 0.  0.
         25    1    1    2    0    0 -0.18662616624E+02  0.12644039469E+03  0.14414176444E+03  0.22964606446E+03  0.12500000000E+03 0.  0.
</event>
<event>
 5    0  0.5648525E-005  0.3446954E+03  0.7546771E-02  0.1064814E+00
         21   -1    0    0  502  501  0.00000000000E+00  0.00000000000E+00  0.76980650274E+02  0.76980650274E+02  0.00000000000E+00 0. -1.
         21   -1    0    0  501  502 -0.00000000000E+00 -0.00000000000E+00 -0.15434384754E+04  0.15434384754E+04  0.00000000000E+00 0. -1.
         25    1    1    2    0    0 -0.46030756540E+02 -0.90651316122E+02 -0.37503277340E+03  0.40818019646E+03  0.12500000000E+03 0.  0.
         25    1    1    2    0    0 -0.16022906201E+03  0.32523217447E+02 -0.20015620349E+03  0.28708642911E+03  0.12500000000E+03 0.  0.
         25    1    1    2    0    0  0.20625981855E+03  0.58128098675E+02 -0.89126884828E+03  0.92515250014E+03  0.12500000000E+03 0.  0.
</event>
<event>
 5    0  0.5648525E-005  0.2838380E+03  0.7546771E-02  0.1093611E+00
         21   -1    0    0  502  501  0.00000000000E+00  0.00000000000E+00  0.27308120353E+03  0.27308120353E+03  0.00000000000E+00 0. -1.
         21   -1    0    0  501  502 -0.00000000000E+00 -0.00000000000E+00 -0.29501848554E+03  0.29501848554E+03  0.00000000000E+00 0. -1.
         25    1    1    2    0    0  0.10522162520E+03 -0.67347291633E+01 -0.69034721127E+01  0.16367530331E+03  0.12500000000E+03 0.  0.
         25    1    1    2    0    0  0.36080484718E+00 -0.47079079181E+02 -0.13856372136E+03  0.19246161891E+03  0.12500000000E+03 0.  0.
         25    1    1    2    0    0 -0.10558243005E+03  0.53813808344E+02  0.12352991147E+03  0.21196276685E+03  0.12500000000E+03 0.  0.
</event>
<event>
 5    0  0.5648525E-005  0.3827512E+03  0.7546771E-02  0.1049922E+00
         21   -1    0    0  502  501  0.00000000000E+00  0.00000000000E+00  0.14827550920E+04  0.14827550920E+04  0.00000000000E+00 0.  1.
         21   -1    0    0  501  502 -0.00000000000E+00 -0.00000000000E+00 -0.98801531860E+02  0.98801531860E+02  0.00000000000E+00 0.  1.
         25    1    1    2    0    0 -0.20678551335E+02  0.13217780588E+03  0.21634458995E+03  0.28342292860E+03  0.12500000000E+03 0.  0.
         25    1    1    2    0    0  0.16215378077E+02 -0.29787248014E+03  0.91891180872E+03  0.97417393986E+03  0.12500000000E+03 0.  0.
         25    1    1    2    0    0  0.44631732586E+01  0.16569467426E+03  0.24869716146E+03  0.32395975539E+03  0.12500000000E+03 0.  0.
</event>
<event>
 5    0  0.5723752E-005  0.3185216E+03  0.7546771E-02  0.1076332E+00
         21   -1    0    0  502  501  0.00000000000E+00  0.00000000000E+00  0.42011386720E+03  0.42011386720E+03  0.00000000000E+00 0.  1.
         21   -1    0    0  501  502 -0.00000000000E+00 -0.00000000000E+00 -0.24149639842E+03  0.24149639842E+03  0.00000000000E+00 0.  1.
         25    1    1    2    0    0  0.53937379237E+02 -0.98538696748E+02 -0.19641496145E+02  0.16920373520E+03  0.12500000000E+03 0.  0.
         25    1    1    2    0    0  0.35178625782E+02  0.10974829785E+03 -0.69404215677E+02  0.18364141621E+03  0.12500000000E+03 0.  0.
         25    1    1    2    0    0 -0.89116005019E+02 -0.11209601099E+02  0.26766318060E+03  0.30876511421E+03  0.12500000000E+03 0.  0.
</event>
<event>
 5    0  0.5648525E-005  0.3732919E+03  0.7546771E-02  0.1053441E+00
         21   -1    0    0  502  501  0.00000000000E+00  0.00000000000E+00  0.11855847128E+03  0.11855847128E+03  0.00000000000E+00 0.  1.
         21   -1    0    0  501  502 -0.00000000000E+00 -0.00000000000E+00 -0.11753425193E+04  0.11753425193E+04  0.00000000000E+00 0.  1.
         25    1    1    2    0    0  0.25405333881E+03  0.12267653445E+03 -0.25848140692E+03  0.40252983590E+03  0.12500000000E+03 0.  0.
         25    1    1    2    0    0 -0.16901309794E+03 -0.94363242492E+02 -0.36572298438E+03  0.43225935514E+03  0.12500000000E+03 0.  0.
         25    1    1    2    0    0 -0.85040240870E+02 -0.28313291959E+02 -0.43257965675E+03  0.45911179957E+03  0.12500000000E+03 0.  0.
</event>
<event>
 5    0  0.5648525E-005  0.3357069E+03  0.7546771E-02  0.1068639E+00
         21   -1    0    0  502  501  0.00000000000E+00  0.00000000000E+00  0.42968616826E+03  0.42968616826E+03  0.00000000000E+00 0. -1.
         21   -1    0    0  501  502 -0.00000000000E+00 -0.00000000000E+00 -0.26228243579E+03  0.26228243579E+03  0.00000000000E+00 0. -1.
         25    1    1    2    0    0  0.45402893865E+02 -0.33278721794E+01  0.90068213971E+02  0.16065422706E+03  0.12500000000E+03 0.  0.
         25    1    1    2    0    0 -0.21138210411E+03  0.37186710870E+02  0.17032678244E+03  0.30116682789E+03  0.12500000000E+03 0.  0.
         25    1    1    2    0    0  0.16597921024E+03 -0.33858838690E+02 -0.92991263935E+02  0.23014754910E+03  0.12500000000E+03 0.  0.
</event>
<event>
 5    0  0.5648525E-005  0.2590743E+03  0.7546771E-02  0.1107701E+00
         21   -1    0    0  502  501  0.00000000000E+00  0.00000000000E+00  0.97198789321E+03  0.97198789321E+03  0.00000000000E+00 0. -1.
         21   -1    0    0  501  502 -0.00000000000E+00 -0.00000000000E+00 -0.69053848826E+02  0.69053848826E+02  0.00000000000E+00 0. -1.
         25    1    1    2    0    0  0.80405700279E+02 -0.73003520138E+02  0.10766259028E+03  0.19751157924E+03  0.12500000000E+03 0.  0.
         25    1    1    2    0    0 -0.43417571652E+02  0.34407609343E+01  0.41310613845E+03  0.43379558088E+03  0.12500000000E+03 0.  0.
         25    1    1    2    0    0 -0.36988128627E+02  0.69562759204E+02  0.38216531565E+03  0.40973458191E+03  0.12500000000E+03 0.  0.
</event>
<event>
 5    0  0.5648525E-005  0.3434745E+03  0.7546771E-02  0.1065326E+00
         21   -1    0    0  502  501  0.00000000000E+00  0.00000000000E+00  0.71437252208E+02  0.71437252208E+02  0.00000000000E+00 0.  1.
         21   -1    0    0  501  502 -0.00000000000E+00 -0.00000000000E+00 -0.16514452910E+04  0.16514452910E+04  0.00000000000E+00 0.  1.
         25    1    1    2    0    0 -0.15113621353E+03 -0.95684007461E+02 -0.51665589458E+03  0.56085283072E+03  0.12500000000E+03 0.  0.
         25    1    1    2    0    0  0.18937683733E+03 -0.14411714509E+02 -0.28219370714E+03  0.36239422234E+03  0.12500000000E+03 0.  0.
         25    1    1    2    0    0 -0.38240623800E+02  0.11009572197E+03 -0.78115843705E+03  0.79963549014E+03  0.12500000000E+03 0.  0.
</event>
<event>
 5    0  0.5648525E-005  0.2397033E+03  0.7546771E-02  0.1119991E+00
         21   -1    0    0  502  501  0.00000000000E+00  0.00000000000E+00  0.34883118448E+02  0.34883118448E+02  0.00000000000E+00 0.  1.
         21   -1    0    0  501  502 -0.00000000000E+00 -0.00000000000E+00 -0.16471483493E+04  0.16471483493E+04  0.00000000000E+00 0.  1.
         25    1    1    2    0    0  0.12941508566E+01 -0.37486601395E+02 -0.65041536198E+03  0.66337927554E+03  0.12500000000E+03 0.  0.
         25    1    1    2    0    0  0.48362624742E+02 -0.71497663821E+02 -0.32595301271E+03  0.35961260531E+03  0.12500000000E+03 0.  0.
         25    1    1    2    0    0 -0.49656775598E+02  0.10898426522E+03 -0.63589685617E+03  0.65903958691E+03  0.12500000000E+03 0.  0.
</event>
<event>
 5    0  0.5648525E-005  0.3654429E+03  0.7546771E-02  0.1056449E+00
         21   -1    0    0  502  501  0.00000000000E+00  0.00000000000E+00  0.94634990766E+02  0.94634990766E+02  0.00000000000E+00 0. -1.
         21   -1    0    0  501  502 -0.00000000000E+00 -0.00000000000E+00 -0.14111959664E+04  0.14111959664E+04  0.00000000000E+00 0. -1.
         25    1    1    2    0    0  0.25824088257E+03  0.21750231984E+02 -0.59657058202E+03  0.66233140146E+03  0.12500000000E+03 0.  0.
         25    1    1    2    0    0 -0.24898638273E+03 -0.89754402290E+02 -0.42756887936E+03  0.51816041736E+03  0.12500000000E+03 0.  0.
         25    1    1    2    0    0 -0.92544998412E+01  0.68004170307E+02 -0.29242151423E+03  0.32533913834E+03  0.12500000000E+03 0.  0.
</event>
<event>
 5    0  0.5648525E-005  0.2934704E+03  0.7546771E-02  0.1088551E+00
         21   -1    0    0  502  501  0.00000000000E+00  0.00000000000E+00  0.94993977339E+03  0.94993977339E+03  0.00000000000E+00 0.  1.
         21   -1    0    0  501  502 -0.00000000000E+00 -0.00000000000E+00 -0.90663484819E+02  0.90663484819E+02  0.00000000000E+00 0.  1.
         25    1    1    2    0    0  0.40804387398E+02  0.14670740941E+03  0.35408555445E+03  0.40520321060E+03  0.12500000000E+03 0.  0.
         25    1    1    2    0    0  0.88161445026E+01  0.44450650253E+02  0.28408520032E+03  0.31366062193E+03  0.12500000000E+03 0.  0.
         25    1    1    2    0    0 -0.49620531900E+02 -0.19115805966E+03  0.22110553381E+03  0.32173942568E+03  0.12500000000E+03 0.  0.
</event>
<event>
 5    0  0.5648525E-005  0.2174198E+03  0.7546771E-02  0.1135821E+00
         21   -1    0    0  502  501  0.00000000000E+00  0.00000000000E+00  0.36298550364E+03  0.36298550364E+03  0.00000000000E+00 0.  1.
         21   -1    0    0  501  502 -0.00000000000E+00 -0.00000000000E+00 -0.13022940811E+03  0.13022940811E+03  0.00000000000E+00 0.  1.
         25    1    1    2    0    0  0.84825306370E+02  0.23882068808E+02  0.57263660723E+02  0.16330894847E+03  0.12500000000E+03 0.  0.
         25    1    1    2    0    0 -0.47577413136E+01 -0.33325727911E+02  0.96684210950E+02  0.16157375062E+03  0.12500000000E+03 0.  0.
         25    1    1    2    0    0 -0.80067565056E+02  0.94436591033E+01  0.78808223856E+02  0.16833221266E+03  0.12500000000E+03 0.  0.
</event>
<event>
 5    0  0.5648525E-005  0.2402863E+03  0.7546771E-02  0.1119602E+00
         21   -1    0    0  502  501  0.00000000000E+00  0.00000000000E+00  0.15388353097E+03  0.15388353097E+03  0.00000000000E+00 0. -1.
         21   -1    0    0  501  502 -0.00000000000E+00 -0.00000000000E+00 -0.37520259435E+03  0.37520259435E+03  0.00000000000E+00 0. -1.
         25    1    1    2    0    0 -0.52222775271E+02  0.44934821672E+01 -0.20782844477E+03  0.24812309867E+03  0.12500000000E+03 0.  0.
         25    1    1    2    0    0  0.43691625852E+02 -0.37636065366E+02 -0.49769005105E+02  0.14638096002E+03  0.12500000000E+03 0.  0.
         25    1    1    2    0    0  0.85311494187E+01  0.33142583199E+02  0.36278386494E+02  0.13458206663E+03  0.12500000000E+03 0.  0.
</event>
<event>
 5    0  0.5648525E-005  0.3104921E+03  0.7546771E-02  0.1080110E+00
         21   -1    0    0  502  501  0.00000000000E+00  0.00000000000E+00  0.38322724656E+03  0.38322724656E+03  0.00000000000E+00 0. -1.
         21   -1    0    0  501  502 -0.00000000000E+00 -0.00000000000E+00 -0.25156179821E+03  0.25156179821E+03  0.00000000000E+00 0. -1.
         25    1    1    2    0    0 -0.27614906006E+02  0.58102115798E+02 -0.60339672415E+02  0.15298468865E+03  0.12500000000E+03 0.  0.
         25    1    1    2    0    0 -0.88767806050E+02  0.15623324037E+02 -0.62722250473E+02  0.16638176688E+03  0.12500000000E+03 0.  0.
         25    1    1    2    0    0  0.11638271206E+03 -0.73725439836E+02  0.25472737124E+03  0.31542258924E+03  0.12500000000E+03 0.  0.
</event>
<event>
 5    0  0.6633966E-005  0.2965114E+03  0.7546771E-02  0.1086998E+00
         21   -1    0    0  502  501  0.00000000000E+00  0.00000000000E+00  0.32455308921E+03  0.32455308921E+03  0.00000000000E+00 0.  1.
         21   -1    0    0  501  502 -0.00000000000E+00 -0.00000000000E+00 -0.27089250353E+03  0.27089250353E+03  0.00000000000E+00 0.  1.
         25    1    1    2    0    0 -0.39763588347E+02 -0.21233746919E+02 -0.10125149077E+03  0.16705950841E+03  0.12500000000E+03 0.  0.
         25    1    1    2    0    0  0.69904495465E+02 -0.10346602586E+03  0.17434077980E+03  0.24821676917E+03  0.12500000000E+03 0.  0.
         25    1    1    2    0    0 -0.30140907118E+02  0.12469977278E+03 -0.19428703348E+02  0.18016931517E+03  0.12500000000E+03 0.  0.
</event>
<event>
 5    0  0.5648525E-005  0.2368597E+03  0.7546771E-02  0.1121903E+00
         21   -1    0    0  502  501  0.00000000000E+00  0.00000000000E+00  0.96808957109E+03  0.96808957109E+03  0.00000000000E+00 0.  1.
         21   -1    0    0  501  502 -0.00000000000E+00 -0.00000000000E+00 -0.57951775884E+02  0.57951775884E+02  0.00000000000E+00 0.  1.
         25    1    1    2    0    0  0.52140326569E+02  0.62072422321E+02  0.53724211283E+03  0.55751743208E+03  0.12500000000E+03 0.  0.
         25    1    1    2    0    0  0.13661448310E+02 -0.64061907293E+02  0.16426930829E+03  0.21656400620E+03  0.12500000000E+03 0.  0.
         25    1    1    2    0    0 -0.65801774879E+02  0.19894849714E+01  0.20862637409E+03  0.25195990870E+03  0.12500000000E+03 0.  0.
</event>
<event>
 5    0  0.5648525E-005  0.4156190E+03  0.7546771E-02  0.1038502E+00
         21   -1    0    0  502  501  0.00000000000E+00  0.00000000000E+00  0.40200821282E+03  0.40200821282E+03  0.00000000000E+00 0.  1.
         21   -1    0    0  501  502 -0.00000000000E+00 -0.00000000000E+00 -0.42969066409E+03  0.42969066409E+03  0.00000000000E+00 0.  1.
         25    1    1    2    0    0  0.94353933263E+01  0.20880092155E+02  0.53829461152E+02  0.13801310004E+03  0.12500000000E+03 0.  0.
         25    1    1    2    0    0  0.18408111546E+03  0.21832068806E+03 -0.16294546546E+03  0.35174707478E+03  0.12500000000E+03 0.  0.
         25    1    1    2    0    0 -0.19351650878E+03 -0.23920078021E+03  0.81433553043E+02  0.34193870209E+03  0.12500000000E+03 0.  0.
</event>
<event>
 5    0  0.5648525E-005  0.3319827E+03  0.7546771E-02  0.1070263E+00
         21   -1    0    0  502  501  0.00000000000E+00  0.00000000000E+00  0.22417342382E+03  0.22417342382E+03  0.00000000000E+00 0. -1.
         21   -1    0    0  501  502 -0.00000000000E+00 -0.00000000000E+00 -0.49163949281E+03  0.49163949281E+03  0.00000000000E+00 0. -1.
         25    1    1    2    0    0 -0.23624192914E+03  0.53240808406E+01 -0.56173439362E+02  0.27316487734E+03  0.12500000000E+03 0.  0.
         25    1    1    2    0    0  0.22872716404E+03 -0.86058397890E+01 -0.16745870232E+03  0.30993159412E+03  0.12500000000E+03 0.  0.
         25    1    1    2    0    0  0.75147650966E+01  0.32817589484E+01 -0.43833927317E+02  0.13271644518E+03  0.12500000000E+03 0.  0.
</event>
<event>
 5    0  0.5648525E-005  0.3436639E+03  0.7546771E-02  0.1065246E+00
         21   -1    0    0  502  501  0.00000000000E+00  0.00000000000E+00  0.90079301638E+03  0.90079301638E+03  0.00000000000E+00 0. -1.
         21   -1    0    0  501  502 -0.00000000000E+00 -0.00000000000E+00 -0.13111208414E+03  0.13111208414E+03  0.00000000000E+00 0. -1.
         25    1    1    2    0    0 -0.12296282216E+03  0.10104515968E+03  0.23490351294E+02  0.20373211954E+03  0.12500000000E+03 0.  0.
         25    1    1    2    0    0  0.60274686407E+01 -0.18847700446E+01  0.12765772863E+03  0.17877745500E+03  0.12500000000E+03 0.  0.
         25    1    1    2    0    0  0.11693535352E+03 -0.99160389632E+02  0.61853285231E+03  0.64939552598E+03  0.12500000000E+03 0.  0.
</event>
<event>
 5    0  0.5648525E-005  0.2212900E+03  0.7546771E-02  0.1132925E+00
         21   -1    0    0  502  501  0.00000000000E+00  0.00000000000E+00  0.95240845385E+02  0.95240845385E+02  0.00000000000E+00 0.  1.
         21   -1    0    0  501  502 -0.00000000000E+00 -0.00000000000E+00 -0.51416264157E+03  0.51416264157E+03  0.00000000000E+00 0.  1.
         25    1    1    2    0    0 -0.51401773153E+02 -0.72334596201E+02 -0.88061028625E+02  0.17678852014E+03  0.12500000000E+03 0.  0.
         25    1    1    2    0    0  0.55884629117E+02  0.42350501668E+02 -0.22128259422E+03  0.26364302241E+03  0.12500000000E+03 0.  0.
         25    1    1    2    0    0 -0.44828559644E+01  0.29984094533E+02 -0.10957817334E+03  0.16897194440E+03  0.12500000000E+03 0.  0.
</event>
<event>
 5    0  0.5648525E-005  0.2433497E+03  0.7546771E-02  0.1117581E+00
         21   -1    0    0  502  501  0.00000000000E+00  0.00000000000E+00  0.59873437750E+03  0.59873437750E+03  0.00000000000E+00 0.  1.
         21   -1    0    0  501  502 -0.00000000000E+00 -0.00000000000E+00 -0.98907126490E+02  0.98907126490E+02  0.00000000000E+00 0.  1.
         25    1    1    2    0    0 -0.84813199084E+02 -0.59341626319E+02  0.15365450492E+03  0.22349365592E+03  0.12500000000E+03 0.  0.
         25    1    1    2    0    0  0.12862306624E+03  0.66663243549E+02  0.20574192446E+03  0.28096729469E+03  0.12500000000E+03 0.  0.
         25    1    1    2    0    0 -0.43809867153E+02 -0.73216172308E+01  0.14043082163E+03  0.19318055337E+03  0.12500000000E+03 0.  0.
</event>
<event>
 5    0  0.5648525E-005  0.3963760E+03  0.7546771E-02  0.1045042E+00
         21   -1    0    0  502  501  0.00000000000E+00  0.00000000000E+00  0.56791636222E+03  0.56791636222E+03  0.00000000000E+00 0.  1.
         21   -1    0    0  501  502 -0.00000000000E+00 -0.00000000000E+00 -0.27664975749E+03  0.27664975749E+03  0.00000000000E+00 0.  1.
         25    1    1    2    0    0 -0.10522006339E+03  0.92058861383E+02 -0.12208080699E+03  0.22377403588E+03  0.12500000000E+03 0.  0.
         25    1    1    2    0    0  0.21363140421E+03 -0.88855414806E+01  0.34215303504E+03  0.42238729751E+03  0.12500000000E+03 0.  0.
         25    1    1    2    0    0 -0.10841134082E+03 -0.83173319903E+02  0.71194376678E+02  0.19840478631E+03  0.12500000000E+03 0.  0.
</event>
<event>
 5    0  0.5648525E-005  0.2929581E+03  0.7546771E-02  0.1088815E+00
         21   -1    0    0  502  501  0.00000000000E+00  0.00000000000E+00  0.63133559941E+03  0.63133559941E+03  0.00000000000E+00 0. -1.
         21   -1    0    0  501  502 -0.00000000000E+00 -0.00000000000E+00 -0.13594109710E+03  0.13594109710E+03  0.00000000000E+00 0. -1.
         25    1    1    2    0    0 -0.15413747431E+02  0.14986867160E+03  0.32829765797E+03  0.38223363872E+03  0.12500000000E+03 0.  0.
         25    1    1    2    0    0 -0.34067548008E+02 -0.18949490719E+02  0.14615006177E+03  0.19622569042E+03  0.12500000000E+03 0.  0.
         25    1    1    2    0    0  0.49481295439E+02 -0.13091918089E+03  0.20946782569E+02  0.18881736737E+03  0.12500000000E+03 0.  0.
</event>
<event>
 5    0  0.5648525E-005  0.3351929E+03  0.7546771E-02  0.1068862E+00
         21   -1    0    0  502  501  0.00000000000E+00  0.00000000000E+00  0.13395095469E+04  0.13395095469E+04  0.00000000000E+00 0.  1.
         21   -1    0    0  501  502 -0.00000000000E+00 -0.00000000000E+00 -0.83877190750E+02  0.83877190750E+02  0.00000000000E+00 0.  1.
         25    1    1    2    0    0 -0.12089005165E+03 -0.30177905885E+02  0.25535738647E+03  0.31041505347E+03  0.12500000000E+03 0.  0.
         25    1    1    2    0    0  0.49008908851E+02  0.19185727886E+03  0.72970849810E+03  0.76636191242E+03  0.12500000000E+03 0.  0.
         25    1    1    2    0    0  0.71881142798E+02 -0.16167937298E+03  0.27056647152E+03  0.34660977172E+03  0.12500000000E+03 0.  0.
</event>
<event>
 5    0  0.5648525E-005  0.3126117E+03  0.7546771E-02  0.1079101E+00
         21   -1    0    0  502  501  0.00000000000E+00  0.00000000000E+00  0.74385287175E+03  0.74385287175E+03  0.00000000000E+00 0.  1.
         21   -1    0    0  501  502 -0.00000000000E+00 -0.00000000000E+00 -0.13137819212E+03  0.13137819212E+03  0.00000000000E+00 0.  1.
         25    1    1    2    0    0  0.36002361280E+02 -0.47339808687E+02  0.11519202233E+03  0.18008728304E+03  0.12500000000E+03 0.  0.
         25    1    1    2    0    0 -0.17281685885E+03 -0.10381365652E+03  0.31563406503E+03  0.39483262909E+03  0.12500000000E+03 0.  0.
         25    1    1    2    0    0  0.13681449757E+03  0.15115346521E+03  0.18164859226E+03  0.30031115174E+03  0.12500000000E+03 0.  0.
</event>
<event>
 5    0  0.5648525E-005  0.2336015E+03  0.7546771E-02  0.1124130E+00
         21   -1    0    0  502  501  0.00000000000E+00  0.00000000000E+00  0.54456811619E+03  0.54456811619E+03  0.00000000000E+00 0.  1.
         21   -1    0    0  501  502 -0.00000000000E+00 -0.00000000000E+00 -0.10020723108E+03  0.10020723108E+03  0.00000000000E+00 0.  1.
         25    1    1    2    0    0 -0.54576331177E+02 -0.24827315158E+02  0.14780087778E+02  0.13942174327E+03  0.12500000000E+03 0.  0.
         25    1    1    2    0    0  0.22754645582E+02 -0.21726065420E+02  0.20014877873E+03  0.23806370879E+03  0.12500000000E+03 0.  0.
         25    1    1    2    0    0  0.31821685595E+02  0.46553380578E+02  0.22943201861E+03  0.26728989521E+03  0.12500000000E+03 0.  0.
</event>
<event>
 5    0  0.5648525E-005  0.3258762E+03  0.7546771E-02  0.1072976E+00
         21   -1    0    0  502  501  0.00000000000E+00  0.00000000000E+00  0.28508985518E+03  0.28508985518E+03  0.00000000000E+00 0.  1.
         21   -1    0    0  501  502 -0.00000000000E+00 -0.00000000000E+00 -0.37249760957E+03  0.37249760957E+03  0.00000000000E+00 0.  1.
         25    1    1    2    0    0 -0.13979482257E+02  0.15920922780E+03 -0.22714761821E+03  0.30457190383E+03  0.12500000000E+03 0.  0.
         25    1    1    2    0    0 -0.72524387588E+00 -0.57865340485E+01  0.64562672853E+02  0.14080961857E+03  0.12500000000E+03 0.  0.
         25    1    1    2    0    0  0.14704726133E+02 -0.15342269376E+03  0.75177190960E+02  0.21220594235E+03  0.12500000000E+03 0.  0.
</event>
<event>
 5    0  0.5648525E-005  0.2359448E+03  0.7546771E-02  0.1122524E+00
         21   -1    0    0  502  501  0.00000000000E+00  0.00000000000E+00  0.81493471368E+03  0.81493471368E+03  0.00000000000E+00 0. -1.
         21   -1    0    0  501  502 -0.00000000000E+00 -0.00000000000E+00 -0.68312164526E+02  0.68312164526E+02  0.00000000000E+00 0. -1.
         25    1    1    2    0    0  0.24898078988E+02 -0.71118248389E+02  0.16785222501E+03  0.22243446008E+03  0.12500000000E+03 0.  0.
         25    1    1    2    0    0  0.61837376312E+02  0.72808705369E+02  0.37366200566E+03  0.40542972654E+03  0.12500000000E+03 0.  0.
         25    1    1    2    0    0 -0.86735455300E+02 -0.16904569804E+01  0.20510831848E+03  0.25538269159E+03  0.12500000000E+03 0.  0.
</event>
<event>
 5    0  0.5648525E-005  0.3018803E+03  0.7546771E-02  0.1084304E+00
         21   -1    0    0  502  501  0.00000000000E+00  0.00000000000E+00  0.53597532930E+03  0.53597532930E+03  0.00000000000E+00 0.  1.
         21   -1    0    0  501  502 -0.00000000000E+00 -0.00000000000E+00 -0.17002969196E+03  0.17002969196E+03  0.00000000000E+00 0.  1.
         25    1    1    2    0    0 -0.10705858457E+03  0.14842584626E+03  0.52304003437E+02  0.22771139880E+03  0.12500000000E+03 0.  0.
         25    1    1    2    0    0  0.82446984468E+02 -0.16130430042E+02  0.53454551575E+02  0.15981265627E+03  0.12500000000E+03 0.  0.
         25    1    1    2    0    0  0.24611600106E+02 -0.13229541622E+03  0.26018708233E+03  0.31848096619E+03  0.12500000000E+03 0.  0.
</event>
<event>
 5    0  0.5648525E-005  0.2542857E+03  0.7546771E-02  0.1110626E+00
         21   -1    0    0  502  501  0.00000000000E+00  0.00000000000E+00  0.21371449432E+03  0.21371449432E+03  0.00000000000E+00 0.  1.
         21   -1    0    0  501  502 -0.00000000000E+00 -0.00000000000E+00 -0.30255899409E+03  0.30255899409E+03  0.00000000000E+00 0.  1.
         25    1    1    2    0    0 -0.11023763566E+03  0.69348005814E+02 -0.10831607532E+03  0.21052043701E+03  0.12500000000E+03 0.  0.
         25    1    1    2    0    0  0.22483560289E+02  0.84968838945E+01  0.39224719175E+02  0.13319641930E+03  0.12500000000E+03 0.  0.
         25    1    1    2    0    0  0.87754075374E+02 -0.77844889708E+02 -0.19753143620E+02  0.17255663210E+03  0.12500000000E+03 0.  0.
</event>
<event>
 5    0  0.5648525E-005  0.2741865E+03  0.7546771E-02  0.1098907E+00
         21   -1    0    0  502  501  0.00000000000E+00  0.00000000000E+00  0.58688364076E+03  0.58688364076E+03  0.00000000000E+00 0.  1.
         21   -1    0    0  501  502 -0.00000000000E+00 -0.00000000000E+00 -0.12809738254E+03  0.12809738254E+03  0.00000000000E+00 0.  1.
         25    1    1    2    0    0  0.58415327427E+02  0.62596159599E+02  0.36268406794E+02  0.15579161404E+03  0.12500000000E+03 0.  0.
         25    1    1    2    0    0  0.32066377688E+02 -0.55671229456E+02  0.37039987338E+03  0.39616739463E+03  0.12500000000E+03 0.  0.
         25    1    1    2    0    0 -0.90481705115E+02 -0.69249301424E+01  0.52117978050E+02  0.16302201463E+03  0.12500000000E+03 0.  0.
</event>
<event>
 5    0  0.5648525E-005  0.3666578E+03  0.7546771E-02  0.1055978E+00
         21   -1    0    0  502  501  0.00000000000E+00  0.00000000000E+00  0.10059735809E+04  0.10059735809E+04  0.00000000000E+00 0. -1.
         21   -1    0    0  501  502 -0.00000000000E+00 -0.00000000000E+00 -0.13363966165E+03  0.13363966165E+03  0.00000000000E+00 0. -1.
         25    1    1    2    0    0 -0.92489614060E+02  0.86732572730E+02  0.12964413095E+03  0.22024865169E+03  0.12500000000E+03 0.  0.
         25    1    1    2    0    0 -0.16832543032E+03  0.58785015525E+02  0.28199773653E+03  0.35628198376E+03  0.12500000000E+03 0.  0.
         25    1    1    2    0    0  0.26081504438E+03 -0.14551758825E+03  0.46069205177E+03  0.56308260711E+03  0.12500000000E+03 0.  0.
</event>
<event>
 5    0  0.5648525E-005  0.2774009E+03  0.7546771E-02  0.1097117E+00
         21   -1    0    0  502  501  0.00000000000E+00  0.00000000000E+00  0.23162238967E+03  0.23162238967E+03  0.00000000000E+00 0.  1.
         21   -1    0    0  501  502 -0.00000000000E+00 -0.00000000000E+00 -0.33222714869E+03  0.33222714869E+03  0.00000000000E+00 0.  1.
         25    1    1    2    0    0  0.99546220523E+02 -0.15986639240E+03 -0.41234779215E+02  0.22976514196E+03  0.12500000000E+03 0.  0.
         25    1    1    2    0    0 -0.19153306649E+02  0.32494861574E+02 -0.43862514973E+02  0.13773774139E+03  0.12500000000E+03 0.  0.
         25    1    1    2    0    0 -0.80392913874E+02  0.12737153083E+03 -0.15507464834E+02  0.19634665501E+03  0.12500000000E+03 0.  0.
</event>
<event>
 5    0  0.5648525E-005  0.3067124E+03  0.7546771E-02  0.1081932E+00
         21   -1    0    0  502  501  0.00000000000E+00  0.00000000000E+00  0.82541339137E+03  0.82541339137E+03  0.00000000000E+00 0.  1.
         21   -1    0    0  501  502 -0.00000000000E+00 -0.00000000000E+00 -0.11397016177E+03  0.11397016177E+03  0.00000000000E+00 0.  1.
         25    1    1    2    0    0 -0.61222075488E+02  0.13845375003E+03  0.48135259241E+03  0.51984892195E+03  0.12500000000E+03 0.  0.
         25    1    1    2    0    0  0.35408517778E+02  0.16967060791E+02  0.15944810913E+03  0.20637428083E+03  0.12500000000E+03 0.  0.
         25    1    1    2    0    0  0.25813557710E+02 -0.15542081083E+03  0.70642528055E+02  0.21316035037E+03  0.12500000000E+03 0.  0.
</event>
<event>
 5    0  0.5648525E-005  0.3338007E+03  0.7546771E-02  0.1069467E+00
         21   -1    0    0  502  501  0.00000000000E+00  0.00000000000E+00  0.12093844829E+03  0.12093844829E+03  0.00000000000E+00 0.  1.
         21   -1    0    0  501  502 -0.00000000000E+00 -0.00000000000E+00 -0.92131932248E+03  0.92131932248E+03  0.00000000000E+00 0.  1.
         25    1    1    2    0    0 -0.15579062042E+03  0.95662330926E+02 -0.87154882745E+02  0.23799784149E+03  0.12500000000E+03 0.  0.
         25    1    1    2    0    0 -0.34211029006E+02 -0.53174171160E+02 -0.28268539194E+03  0.31548996466E+03  0.12500000000E+03 0.  0.
         25    1    1    2    0    0  0.19000164942E+03 -0.42488159766E+02 -0.43054059950E+03  0.48876996463E+03  0.12500000000E+03 0.  0.
</event>
<event>
 5    0  0.5648525E-005  0.3756346E+03  0.7546771E-02  0.1052559E+00
         21   -1    0    0  502  501  0.00000000000E+00  0.00000000000E+00  0.34224715238E+03  0.34224715238E+03  0.00000000000E+00 0.  1.
         21   -1    0    0  501  502 -0.00000000000E+00 -0.00000000000E+00 -0.41227921890E+03  0.41227921890E+03  0.00000000000E+00 0.  1.
         25    1    1    2    0    0  0.20068899742E+02  0.14122056648E+03  0.22963645689E+03  0.29783201887E+03  0.12500000000E+03 0.  0.
         25    1    1    2    0    0  0.26032079123E+02  0.21854971635E+02 -0.15084665644E+03  0.19883415875E+03  0.12500000000E+03 0.  0.
         25    1    1    2    0    0 -0.46100978865E+02 -0.16307553811E+03 -0.14882186697E+03  0.25786019365E+03  0.12500000000E+03 0.  0.
</event>
<event>
 5    0  0.5648525E-005  0.5568019E+03  0.7546771E-02  0.9999317E-01
         21   -1    0    0  502  501  0.00000000000E+00  0.00000000000E+00  0.32223471169E+04  0.32223471169E+04  0.00000000000E+00 0.  1.
         21   -1    0    0  501  502 -0.00000000000E+00 -0.00000000000E+00 -0.96211970594E+02  0.96211970594E+02  0.00000000000E+00 0.  1.
         25    1    1    2    0    0 -0.24194598678E+03 -0.43757184089E+03  0.11265776450E+04  0.12388741529E+04  0.12500000000E+03 0.  0.
         25    1    1    2    0    0  0.11653093090E+03  0.12429445722E+03  0.78412692550E+03  0.81210135159E+03  0.12500000000E+03 0.  0.
         25    1    1    2    0    0  0.12541505589E+03  0.31327738367E+03  0.12154305759E+04  0.12675835831E+04  0.12500000000E+03 0.  0.
</event>
<event>
 5    0  0.5648525E-005  0.2182301E+03  0.7546771E-02  0.1135210E+00
         21   -1    0    0  502  501  0.00000000000E+00  0.00000000000E+00  0.17887232244E+03  0.17887232244E+03  0.00000000000E+00 0.  1.
         21   -1    0    0  501  502 -0.00000000000E+00 -0.00000000000E+00 -0.26624783336E+03  0.26624783336E+03  0.00000000000E+00 0.  1.
         25    1    1    2    0    0 -0.72672777814E+02 -0.61728777046E+02 -0.11281754304E+02  0.15761996235E+03  0.12500000000E+03 0.  0.
         25    1    1    2    0    0  0.51853417737E+02  0.56175626286E+02 -0.16807805583E+02  0.14748552555E+03  0.12500000000E+03 0.  0.
         25    1    1    2    0    0  0.20819360077E+02  0.55531507597E+01 -0.59285951023E+02  0.14001466790E+03  0.12500000000E+03 0.  0.
</event>
<event>
 5    0  0.5648525E-005  0.2703184E+03  0.7546771E-02  0.1101098E+00
         21   -1    0    0  502  501  0.00000000000E+00  0.00000000000E+00  0.13138600246E+03  0.13138600246E+03  0.00000000000E+00 0.  1.
         21   -1    0    0  501  502 -0.00000000000E+00 -0.00000000000E+00 -0.55616306405E+03  0.55616306405E+03  0.00000000000E+00 0.  1.
         25    1    1    2    0    0 -0.98441952567E+02  0.81019807896E+02 -0.66054493146E+02  0.19037653049E+03  0.12500000000E+03 0.  0.
         25    1    1    2    0    0  0.98423186295E+02  0.30134859109E+02 -0.10403835778E+03  0.19246873310E+03  0.12500000000E+03 0.  0.
         25    1    1    2    0    0  0.18766271218E-01 -0.11115466701E+03 -0.25468421067E+03  0.30470380292E+03  0.12500000000E+03 0.  0.
</event>
<event>
 5    0  0.5648525E-005  0.2952567E+03  0.7546771E-02  0.1087636E+00
         21   -1    0    0  502  501  0.00000000000E+00  0.00000000000E+00  0.11721242490E+04  0.11721242490E+04  0.00000000000E+00 0.  1.
         21   -1    0    0  501  502 -0.00000000000E+00 -0.00000000000E+00 -0.74374823899E+02  0.74374823899E+02  0.00000000000E+00 0.  1.
         25    1    1    2    0    0 -0.10787592616E+03  0.16352939603E+02  0.35896927281E+03  0.39545995107E+03  0.12500000000E+03 0.  0.
         25    1    1    2    0    0  0.11999604433E+03 -0.15697015254E+03  0.41913221538E+03  0.47993280094E+03  0.12500000000E+03 0.  0.
         25    1    1    2    0    0 -0.12120118169E+02  0.14061721294E+03  0.31964793695E+03  0.37110632093E+03  0.12500000000E+03 0.  0.
</event>
<event>
 5    0  0.5648525E-005  0.2603057E+03  0.7546771E-02  0.1106960E+00
         21   -1    0    0  502  501  0.00000000000E+00  0.00000000000E+00  0.28604799558E+03  0.28604799558E+03  0.00000000000E+00 0. -1.
         21   -1    0    0  501  502 -0.00000000000E+00 -0.00000000000E+00 -0.23688003547E+03  0.23688003547E+03  0.00000000000E+00 0. -1.
         25    1    1    2    0    0 -0.33197398775E+02 -0.11206131609E+03 -0.96965455004E+02  0.19669037931E+03  0.12500000000E+03 0.  0.
         25    1    1    2    0    0 -0.12216063775E+02  0.43858217002E+02  0.28538032119E+02  0.13605952627E+03  0.12500000000E+03 0.  0.
         25    1    1    2    0    0  0.45413462550E+02  0.68203099085E+02  0.11759538299E+03  0.19017812547E+03  0.12500000000E+03 0.  0.
</event>
<event>
 5    0  0.5648525E-005  0.2715456E+03  0.7546771E-02  0.1100398E+00
         21   -1    0    0  502  501  0.00000000000E+00  0.00000000000E+00  0.64735747260E+03  0.64735747260E+03  0.00000000000E+00 0. -1.
         21   -1    0    0  501  502 -0.00000000000E+00 -0.00000000000E+00 -0.11390464793E+03  0.11390464793E+03  0.00000000000E+00 0. -1.
         25    1    1    2    0    0  0.88305167488E+02  0.16103297293E+02  0.64793582370E+02  0.16697403123E+03  0.12500000000E+03 0.  0.
         25    1    1    2    0    0 -0.14017793007E+03 -0.37125841770E+02  0.13687258267E+03  0.23534503201E+03  0.12500000000E+03 0.  0.
         25    1    1    2    0    0  0.51872762578E+02  0.21022544477E+02  0.33178665962E+03  0.35894305729E+03  0.12500000000E+03 0.  0.
</event>
<event>
 5    0  0.6090386E-005  0.2702918E+03  0.7546771E-02  0.1101113E+00
         21   -1    0    0  502  501  0.00000000000E+00  0.00000000000E+00  0.12693552235E+03  0.12693552235E+03  0.00000000000E+00 0. -1.
         21   -1    0    0  501  502 -0.00000000000E+00 -0.00000000000E+00 -0.57554931525E+03  0.57554931525E+03  0.00000000000E+00 0. -1.
         25    1    1    2    0    0  0.51202001834E+02  0.32880162239E+02 -0.21271137085E+03  0.25411390625E+03  0.12500000000E+03 0.  0.
         25    1    1    2    0    0 -0.17887908753E+02  0.20783077683E+02 -0.27469839126E+03  0.30304474877E+03  0.12500000000E+03 0.  0.
         25    1    1    2    0    0 -0.33314093081E+02 -0.53663239922E+02  0.38795969206E+02  0.14532618258E+03  0.12500000000E+03 0.  0.
</event>
<event>
 5    0  0.5648525E-005  0.2569539E+03  0.7546771E-02  0.1108987E+00
         21   -1    0    0  502  501  0.00000000000E+00  0.00000000000E+00  0.89805522471E+03  0.89805522471E+03  0.00000000000E+00 0.  1.
         21   -1    0    0  501  502 -0.00000000000E+00 -0.00000000000E+00 -0.73520305159E+02  0.73520305159E+02  0.00000000000E+00 0.  1.
         25    1    1    2    0    0 -0.50502925068E+02 -0.42079294783E+02  0.11618466872E+03  0.18287998724E+03  0.12500000000E+03 0.  0.
         25    1    1    2    0    0  0.96838990171E+02  0.26847764956E+01  0.57394367024E+03  0.59533296117E+03  0.12500000000E+03 0.  0.
         25    1    1    2    0    0 -0.46336065103E+02  0.39394518288E+02  0.13440658059E+03  0.19336258145E+03  0.12500000000E+03 0.  0.
</event>
<event>
 5    0  0.5648525E-005  0.3185770E+03  0.7546771E-02  0.1076306E+00
         21   -1    0    0  502  501  0.00000000000E+00  0.00000000000E+00  0.18709338534E+04  0.18709338534E+04  0.00000000000E+00 0.  1.
         21   -1    0    0  501  502 -0.00000000000E+00 -0.00000000000E+00 -0.54246335217E+02  0.54246335217E+02  0.00000000000E+00 0.  1.
         25    1    1    2    0    0  0.65188582676E+02  0.93947015637E+01  0.13521332568E+03  0.19556445273E+03  0.12500000000E+03 0.  0.
         25    1    1    2    0    0 -0.19040940953E+02 -0.60271711892E+02  0.14566278279E+04  0.14633471446E+04  0.12500000000E+03 0.  0.
         25    1    1    2    0    0 -0.46147641723E+02  0.50877010328E+02  0.22484636461E+03  0.26626859127E+03  0.12500000000E+03 0.  0.
</event>
<event>
 5    0  0.5714703E-005  0.3456756E+03  0.7546771E-02  0.1064404E+00
         21   -1    0    0  502  501  0.00000000000E+00  0.00000000000E+00  0.26288787828E+03  0.26288787828E+03  0.00000000000E+00 0.  1.
         21   -1    0    0  501  502 -0.00000000000E+00 -0.00000000000E+00 -0.45453458301E+03  0.45453458301E+03  0.00000000000E+00 0.  1.
         25    1    1    2    0    0 -0.13527594371E+03  0.70489990853E+02  0.40280962497E+01  0.19725527957E+03  0.12500000000E+03 0.  0.
         25    1    1    2    0    0  0.91633991729E+02  0.13893319726E+03 -0.61666367860E+01  0.20823604191E+03  0.12500000000E+03 0.  0.
         25    1    1    2    0    0  0.43641951984E+02 -0.20942318811E+03 -0.18950816419E+03  0.31193113982E+03  0.12500000000E+03 0.  0.
</event>
<event>
 5    0  0.5648525E-005  0.3092955E+03  0.7546771E-02  0.1080684E+00
         21   -1    0    0  502  501  0.00000000000E+00  0.00000000000E+00  0.35697961870E+02  0.35697961870E+02  0.00000000000E+00 0.  1.
         21   -1    0    0  501  502 -0.00000000000E+00 -0.00000000000E+00 -0.26798092131E+04  0.26798092131E+04  0.00000000000E+00 0.  1.
         25    1    1    2    0    0 -0.85351835517E+02 -0.27853345735E+02 -0.10836016991E+04  0.10944763072E+04  0.12500000000E+03 0.  0.
         25    1    1    2    0    0 -0.77838062214E+02 -0.89191654319E+02 -0.38180365769E+03  0.41882328989E+03  0.12500000000E+03 0.  0.
         25    1    1    2    0    0  0.16318989773E+03  0.11704500005E+03 -0.11787058945E+04  0.12022075779E+04  0.12500000000E+03 0.  0.
</event>
<event>
 5    0  0.5648525E-005  0.5056950E+03  0.7546771E-02  0.1012303E+00
         21   -1    0    0  502  501  0.00000000000E+00  0.00000000000E+00  0.50561111949E+03  0.50561111949E+03  0.00000000000E+00 0.  1.
         21   -1    0    0  501  502 -0.00000000000E+00 -0.00000000000E+00 -0.50577889846E+03  0.50577889846E+03  0.00000000000E+00 0.  1.
         25    1    1    2    0    0  0.18133129521E+03  0.13448156819E+03 -0.64549556207E+02  0.26600371428E+03  0.12500000000E+03 0.  0.
         25    1    1    2    0    0 -0.23850232239E+03  0.22806612198E+03  0.34245728750E+01  0.35289409386E+03  0.12500000000E+03 0.  0.
         25    1    1    2    0    0  0.57171027179E+02 -0.36254769017E+03  0.60957204358E+02  0.39249220981E+03  0.12500000000E+03 0.  0.
</event>
<event>
 5    0  0.5648525E-005  0.2672298E+03  0.7546771E-02  0.1102876E+00
         21   -1    0    0  502  501  0.00000000000E+00  0.00000000000E+00  0.32996649032E+03  0.32996649032E+03  0.00000000000E+00 0.  1.
         21   -1    0    0  501  502 -0.00000000000E+00 -0.00000000000E+00 -0.21642126842E+03  0.21642126842E+03  0.00000000000E+00 0.  1.
         25    1    1    2    0    0  0.16377532486E+02 -0.12769907817E+03  0.73727912643E+02  0.19400021453E+03  0.12500000000E+03 0.  0.
         25    1    1    2    0    0  0.63958790576E+02 -0.74384077666E+01  0.54954562823E+02  0.15096708508E+03  0.12500000000E+03 0.  0.
         25    1    1    2    0    0 -0.80336323061E+02  0.13513748594E+03 -0.15137253561E+02  0.20142045913E+03  0.12500000000E+03 0.  0.
</event>
<event>
 5    0  0.5648525E-005  0.4117921E+03  0.7546771E-02  0.1039771E+00
         21   -1    0    0  502  501  0.00000000000E+00  0.00000000000E+00  0.35404967543E+03  0.35404967543E+03  0.00000000000E+00 0. -1.
         21   -1    0    0  501  502 -0.00000000000E+00 -0.00000000000E+00 -0.47895178041E+03  0.47895178041E+03  0.00000000000E+00 0.  1.
         25    1    1    2    0    0 -0.44051978250E+01  0.21623504037E+03  0.86822798169E+02  0.26446208940E+03  0.12500000000E+03 0.  0.
         25    1    1    2    0    0 -0.35084040302E+01  0.90031120148E+02 -0.17877432484E+03  0.23601519170E+03  0.12500000000E+03 0.  0.
         25    1    1    2    0    0  0.79136018553E+01 -0.30626616051E+03 -0.32950578313E+02  0.33252417473E+03  0.12500000000E+03 0.  0.
</event>
<event>
 5    0  0.5648525E-005  0.2323136E+03  0.7546771E-02  0.1125022E+00
         21   -1    0    0  502  501  0.00000000000E+00  0.00000000000E+00  0.50404517333E+02  0.50404517333E+02  0.00000000000E+00 0. -1.
         21   -1    0    0  501  502 -0.00000000000E+00 -0.00000000000E+00 -0.10707300616E+04  0.10707300616E+04  0.00000000000E+00 0. -1.
         25    1    1    2    0    0 -0.54966277127E+02 -0.39171837360E+02 -0.39729877842E+03  0.42193251095E+03  0.12500000000E+03 0.  0.
         25    1    1    2    0    0  0.76508764951E+02  0.45454831984E+02 -0.17135591105E+03  0.23001648010E+03  0.12500000000E+03 0.  0.
         25    1    1    2    0    0 -0.21542487824E+02 -0.62829946242E+01 -0.45167085475E+03  0.46918558784E+03  0.12500000000E+03 0.  0.
</event>
<event>
 5    0  0.5648525E-005  0.2820836E+03  0.7546771E-02  0.1094556E+00
         21   -1    0    0  502  501  0.00000000000E+00  0.00000000000E+00  0.80524157470E+02  0.80524157470E+02  0.00000000000E+00 0. -1.
         21   -1    0    0  501  502 -0.00000000000E+00 -0.00000000000E+00 -0.98816495024E+03  0.98816495024E+03  0.00000000000E+00 0. -1.
         25    1    1    2    0    0  0.40504874029E+02 -0.14963363162E+03 -0.13726166698E+03  0.24186077350E+03  0.12500000000E+03 0.  0.
         25    1    1    2    0    0  0.59622201394E+00  0.48066408329E+02 -0.33212146120E+03  0.35810668812E+03  0.12500000000E+03 0.  0.
         25    1    1    2    0    0 -0.41101096043E+02  0.10156722329E+03 -0.43825766460E+03  0.46872164610E+03  0.12500000000E+03 0.  0.
</event>
<event>
 5    0  0.5648525E-005  0.3760141E+03  0.7546771E-02  0.1052417E+00
         21   -1    0    0  502  501  0.00000000000E+00  0.00000000000E+00  0.28881464840E+03  0.28881464840E+03  0.00000000000E+00 0.  1.
         21   -1    0    0  501  502 -0.00000000000E+00 -0.00000000000E+00 -0.48954093414E+03  0.48954093414E+03  0.00000000000E+00 0.  1.
         25    1    1    2    0    0 -0.51830449514E+02 -0.20741948898E+02 -0.17696065997E+03  0.22373354491E+03  0.12500000000E+03 0.  0.
         25    1    1    2    0    0 -0.92456182757E+02  0.34173183235E+02 -0.22584242593E+03  0.27630735338E+03  0.12500000000E+03 0.  0.
         25    1    1    2    0    0  0.14428663227E+03 -0.13431234338E+02  0.20207680015E+03  0.27831468425E+03  0.12500000000E+03 0.  0.
</event>
<event>
 5    0  0.5648525E-005  0.2524973E+03  0.7546771E-02  0.1111737E+00
         21   -1    0    0  502  501  0.00000000000E+00  0.00000000000E+00  0.14965157637E+03  0.14965157637E+03  0.00000000000E+00 0.  1.
         21   -1    0    0  501  502 -0.00000000000E+00 -0.00000000000E+00 -0.42602210863E+03  0.42602210863E+03  0.00000000000E+00 0.  1.
         25    1    1    2    0    0  0.11235372402E+02 -0.51256345252E+02 -0.27089491524E+03  0.30292326029E+03  0.12500000000E+03 0.  0.
         25    1    1    2    0    0 -0.30859136837E+02  0.59037592591E+00  0.29385362699E+02  0.13206488712E+03  0.12500000000E+03 0.  0.
         25    1    1    2    0    0  0.19623764435E+02  0.50665969326E+02 -0.34860979726E+02  0.14068553759E+03  0.12500000000E+03 0.  0.
</event>
<event>
 5    0  0.5648525E-005  0.2699984E+03  0.7546771E-02  0.1101281E+00
         21   -1    0    0  502  501  0.00000000000E+00  0.00000000000E+00  0.63450822631E+02  0.63450822631E+02  0.00000000000E+00 0.  1.
         21   -1    0    0  501  502 -0.00000000000E+00 -0.00000000000E+00 -0.11489076349E+04  0.11489076349E+04  0.00000000000E+00 0.  1.
         25    1    1    2    0    0 -0.48228294016E+02 -0.53111567675E+01 -0.36879384498E+03  0.39241314558E+03  0.12500000000E+03 0.  0.
         25    1    1    2    0    0  0.15133846645E+02  0.15186507670E+03 -0.42881299679E+03  0.47201442885E+03  0.12500000000E+03 0.  0.
         25    1    1    2    0    0  0.33094447371E+02 -0.14655391993E+03 -0.28784997052E+03  0.34793088312E+03  0.12500000000E+03 0.  0.
</event>
<event>
 5    0  0.6270450E-005  0.2431462E+03  0.7546771E-02  0.1117715E+00
         21   -1    0    0  502  501  0.00000000000E+00  0.00000000000E+00  0.37976658451E+03  0.37976658451E+03  0.00000000000E+00 0.  1.
         21   -1    0    0  501  502 -0.00000000000E+00 -0.00000000000E+00 -0.15567471910E+03  0.15567471910E+03  0.00000000000E+00 0.  1.
         25    1    1    2    0    0  0.99821724787E+00  0.45275975938E+02  0.60707688046E+02  0.14615517036E+03  0.12500000000E+03 0.  0.
         25    1    1    2    0    0  0.21936299636E+02  0.85175920064E+02  0.13701127232E+03  0.20526379940E+03  0.12500000000E+03 0.  0.
         25    1    1    2    0    0 -0.22934516884E+02 -0.13045189600E+03  0.26372905048E+02  0.18402233385E+03  0.12500000000E+03 0.  0.
</event>
<event>
 5    0  0.5648525E-005  0.2793837E+03  0.7546771E-02  0.1096026E+00
         21   -1    0    0  502  501  0.00000000000E+00  0.00000000000E+00  0.77467239727E+03  0.77467239727E+03  0.00000000000E+00 0.  1.
         21   -1    0    0  501  502 -0.00000000000E+00 -0.00000000000E+00 -0.10075907810E+03  0.10075907810E+03  0.00000000000E+00 0.  1.
         25    1    1    2    0    0  0.26021717702E+02  0.14191078338E+02  0.24288185800E+03  0.27476374114E+03  0.12500000000E+03 0.  0.
         25    1    1    2    0    0  0.44608227601E+02  0.11318943488E+03  0.35248044788E+03  0.39328006341E+03  0.12500000000E+03 0.  0.
         25    1    1    2    0    0 -0.70629945303E+02 -0.12738051322E+03  0.78551013279E+02  0.20738767082E+03  0.12500000000E+03 0.  0.
</event>
<event>
 5    0  0.5648525E-005  0.3053082E+03  0.7546771E-02  0.1082617E+00
         21   -1    0    0  502  501  0.00000000000E+00  0.00000000000E+00  0.28285077794E+03  0.28285077794E+03  0.00000000000E+00 0.  1.
         21   -1    0    0  501  502 -0.00000000000E+00 -0.00000000000E+00 -0.32954877368E+03  0.32954877368E+03  0.00000000000E+00 0.  1.
         25    1    1    2    0    0 -0.21118149093E+02  0.13102592501E+03 -0.14649534741E+03  0.23387957597E+03  0.12500000000E+03 0.  0.
         25    1    1    2    0    0  0.81386186042E+02 -0.11436375903E+03  0.13852254158E+03  0.23348720561E+03  0.12500000000E+03 0.  0.
         25    1    1    2    0    0 -0.60268036949E+02 -0.16662165983E+02 -0.38725189914E+02  0.14503277004E+03  0.12500000000E+03 0.  0.
</event>
<event>
 5    0  0.5648525E-005  0.3367841E+03  0.7546771E-02  0.1068174E+00
         21   -1    0    0  502  501  0.00000000000E+00  0.00000000000E+00  0.79637079280E+02  0.79637079280E+02  0.00000000000E+00 0. -1.
         21   -1    0    0  501  502 -0.00000000000E+00 -0.00000000000E+00 -0.14242555241E+04  0.14242555241E+04  0.00000000000E+00 0. -1.
         25    1    1    2    0    0 -0.47890902340E+02  0.47122658376E+02 -0.27649048785E+03  0.31078300039E+03  0.12500000000E+03 0.  0.
         25    1    1    2    0    0  0.11915789884E+03 -0.23370898122E+03 -0.50437773409E+03  0.58209998403E+03  0.12500000000E+03 0.  0.
         25    1    1    2    0    0 -0.71266996500E+02  0.18658632285E+03 -0.56375022284E+03  0.61100961893E+03  0.12500000000E+03 0.  0.
</event>
<event>
 5    0  0.5648525E-005  0.3326837E+03  0.7546771E-02  0.1069956E+00
         21   -1    0    0  502  501  0.00000000000E+00  0.00000000000E+00  0.15604303004E+04  0.15604303004E+04  0.00000000000E+00 0.  1.
         21   -1    0    0  501  502 -0.00000000000E+00 -0.00000000000E+00 -0.70928148432E+02  0.70928148432E+02  0.00000000000E+00 0.  1.
         25    1    1    2    0    0 -0.25153235780E+02 -0.14154469302E+03  0.92477028570E+03  0.94418889355E+03  0.12500000000E+03 0.  0.
         25    1    1    2    0    0 -0.97943277421E+01 -0.54705790442E+02  0.11141562505E+03  0.17642872178E+03  0.12500000000E+03 0.  0.
         25    1    1    2    0    0  0.34947563522E+02  0.19625048346E+03  0.45331624124E+03  0.51074083352E+03  0.12500000000E+03 0.  0.
</event>
<event>
 5    0  0.5688172E-005  0.2873615E+03  0.7546771E-02  0.1091735E+00
         21   -1    0    0  502  501  0.00000000000E+00  0.00000000000E+00  0.35487407967E+03  0.35487407967E+03  0.00000000000E+00 0.  1.
         21   -1    0    0  501  502 -0.00000000000E+00 -0.00000000000E+00 -0.23269280249E+03  0.23269280249E+03  0.00000000000E+00 0.  1.
         25    1    1    2    0    0  0.71580843502E+02 -0.10461429891E+03  0.14813051325E+03  0.23159364769E+03  0.12500000000E+03 0.  0.
         25    1    1    2    0    0 -0.25960244131E+02  0.79933907023E+02 -0.11880967191E+03  0.19184395197E+03  0.12500000000E+03 0.  0.
         25    1    1    2    0    0 -0.45620599370E+02  0.24680391891E+02  0.92860435833E+02  0.16412928250E+03  0.12500000000E+03 0.  0.
</event>
<event>
 5    0  0.5648525E-005  0.2601266E+03  0.7546771E-02  0.1107067E+00
         21   -1    0    0  502  501  0.00000000000E+00  0.00000000000E+00  0.38121246852E+03  0.38121246852E+03  0.00000000000E+00 0.  1.
         21   -1    0    0  501  502 -0.00000000000E+00 -0.00000000000E+00 -0.17750172912E+03  0.17750172912E+03  0.00000000000E+00 0.  1.
         25    1    1    2    0    0 -0.12457849883E+03  0.65465228214E+02  0.92692577969E+02  0.20981518650E+03  0.12500000000E+03 0.  0.
         25    1    1    2    0    0  0.39904733757E+02  0.50275597863E+02  0.48491641327E+02  0.14864879009E+03  0.12500000000E+03 0.  0.
         25    1    1    2    0    0  0.84673765075E+02 -0.11574082608E+03  0.62526520102E+02  0.20025022105E+03  0.12500000000E+03 0.  0.
</event>
<event>
 5    0  0.5648525E-005  0.2271794E+03  0.7546771E-02  0.1128641E+00
         21   -1    0    0  502  501  0.00000000000E+00  0.00000000000E+00  0.30328787698E+03  0.30328787698E+03  0.00000000000E+00 0.  1.
         21   -1    0    0  501  502 -0.00000000000E+00 -0.00000000000E+00 -0.17016997916E+03  0.17016997916E+03  0.00000000000E+00 0.  1.
         25    1    1    2    0    0  0.63684777414E+02 -0.51832631156E+02  0.19545548924E+02  0.15082904564E+03  0.12500000000E+03 0.  0.
         25    1    1    2    0    0 -0.78097147809E+02  0.85848604247E+02  0.50921390836E+02  0.17800880706E+03  0.12500000000E+03 0.  0.
         25    1    1    2    0    0  0.14412370396E+02 -0.34015973091E+02  0.62650958059E+02  0.14462000343E+03  0.12500000000E+03 0.  0.
</event>
<event>
 5    0  0.5648525E-005  0.4471631E+03  0.7546771E-02  0.1028571E+00
         21   -1    0    0  502  501  0.00000000000E+00  0.00000000000E+00  0.74739206146E+02  0.74739206146E+02  0.00000000000E+00 0. -1.
         21   -1    0    0  501  502 -0.00000000000E+00 -0.00000000000E+00 -0.26753668433E+04  0.26753668433E+04  0.00000000000E+00 0. -1.
         25    1    1    2    0    0  0.21830740104E+03 -0.20380190948E+02 -0.61614468173E+03  0.66583236806E+03  0.12500000000E+03 0.  0.
         25    1    1    2    0    0  0.89027537174E+02 -0.13244417134E+03 -0.12232580217E+04  0.12399405424E+04  0.12500000000E+03 0.  0.
         25    1    1    2    0    0 -0.30733493822E+03  0.15282436229E+03 -0.76122493371E+03  0.84433313903E+03  0.12500000000E+03 0.  0.
</event>
<event>
 5    0  0.5648525E-005  0.4819525E+03  0.7546771E-02  0.1018600E+00
         21   -1    0    0  502  501  0.00000000000E+00  0.00000000000E+00  0.95394679314E+03  0.95394679314E+03  0.00000000000E+00 0. -1.
         21   -1    0    0  501  502 -0.00000000000E+00 -0.00000000000E+00 -0.24349176438E+03  0.24349176438E+03  0.00000000000E+00 0. -1.
         25    1    1    2    0    0  0.22984763729E+03  0.64631867037E+02  0.40249414729E+03  0.48439008372E+03  0.12500000000E+03 0.  0.
         25    1    1    2    0    0 -0.35578274825E+03  0.65721470384E+02  0.70507067085E+02  0.38922605531E+03  0.12500000000E+03 0.  0.
         25    1    1    2    0    0  0.12593511096E+03 -0.13035333742E+03  0.23745381440E+03  0.32382241850E+03  0.12500000000E+03 0.  0.
</event>
<event>
 5    0  0.5648525E-005  0.4521626E+03  0.7546771E-02  0.1027079E+00
         21   -1    0    0  502  501  0.00000000000E+00  0.00000000000E+00  0.12332446573E+03  0.12332446573E+03  0.00000000000E+00 0. -1.
         21   -1    0    0  501  502 -0.00000000000E+00 -0.00000000000E+00 -0.16578298605E+04  0.16578298605E+04  0.00000000000E+00 0. -1.
         25    1    1    2    0    0  0.13853825966E+03  0.15391805275E+03 -0.15764162824E+03  0.28872045183E+03  0.12500000000E+03 0.  0.
         25    1    1    2    0    0 -0.41400280455E+02  0.10335392289E+03 -0.97730809846E+03  0.99154028456E+03  0.12500000000E+03 0.  0.
         25    1    1    2    0    0 -0.97137979201E+02 -0.25727197564E+03 -0.39955566807E+03  0.50089358983E+03  0.12500000000E+03 0.  0.
</event>
<event>
 5    0  0.5648525E-005  0.2446902E+03  0.7546771E-02  0.1116707E+00
         21   -1    0    0  502  501  0.00000000000E+00  0.00000000000E+00  0.26698625671E+03  0.26698625671E+03  0.00000000000E+00 0.  1.
         21   -1    0    0  501  502 -0.00000000000E+00 -0.00000000000E+00 -0.22425608332E+03  0.22425608332E+03  0.00000000000E+00 0.  1.
         25    1    1    2    0    0 -0.44238202759E+01  0.92030375928E+02  0.63496700368E+02  0.16776767042E+03  0.12500000000E+03 0.  0.
         25    1    1    2    0    0 -0.62907384043E+01 -0.89475732610E+02  0.69575329036E+02  0.16885261777E+03  0.12500000000E+03 0.  0.
         25    1    1    2    0    0  0.10714558680E+02 -0.25546433182E+01 -0.90341856014E+02  0.15462205185E+03  0.12500000000E+03 0.  0.
</event>
<event>
 5    0  0.5648525E-005  0.4199214E+03  0.7546771E-02  0.1037092E+00
         21   -1    0    0  502  501  0.00000000000E+00  0.00000000000E+00  0.28606632000E+03  0.28606632000E+03  0.00000000000E+00 0.  1.
         21   -1    0    0  501  502 -0.00000000000E+00 -0.00000000000E+00 -0.61640943889E+03  0.61640943889E+03  0.00000000000E+00 0.  1.
         25    1    1    2    0    0 -0.46772364534E+02  0.16746977298E+03 -0.41485640929E+03  0.46686681107E+03  0.12500000000E+03 0.  0.
         25    1    1    2    0    0 -0.96753174669E+02  0.41620639089E+01 -0.18891322768E+02  0.15924943221E+03  0.12500000000E+03 0.  0.
         25    1    1    2    0    0  0.14352553920E+03 -0.17163183689E+03  0.10340461317E+03  0.27635951560E+03  0.12500000000E+03 0.  0.
</event>
<event>
 5    0  0.5648525E-005  0.2992091E+03  0.7546771E-02  0.1085637E+00
         21   -1    0    0  502  501  0.00000000000E+00  0.00000000000E+00  0.87608014202E+02  0.87608014202E+02  0.00000000000E+00 0.  1.
         21   -1    0    0  501  502 -0.00000000000E+00 -0.00000000000E+00 -0.10218936254E+04  0.10218936254E+04  0.00000000000E+00 0.  1.
         25    1    1    2    0    0 -0.85430185730E+02 -0.19108600191E+03 -0.43993558348E+03  0.50297166359E+03  0.12500000000E+03 0.  0.
         25    1    1    2    0    0  0.85688115820E+02  0.67541439292E+02 -0.31136664741E+03  0.35281509086E+03  0.12500000000E+03 0.  0.
         25    1    1    2    0    0 -0.25793009016E+00  0.12354456262E+03 -0.18298338030E+03  0.25371488515E+03  0.12500000000E+03 0.  0.
</event>
<event>
 5    0  0.5648525E-005  0.3098375E+03  0.7546771E-02  0.1080424E+00
         21   -1    0    0  502  501  0.00000000000E+00  0.00000000000E+00  0.51282194651E+02  0.51282194651E+02  0.00000000000E+00 0.  1.
         21   -1    0    0  501  502 -0.00000000000E+00 -0.00000000000E+00 -0.18719801972E+04  0.18719801972E+04  0.00000000000E+00 0.  1.
         25    1    1    2    0    0 -0.90071628524E+02  0.17882438287E+03 -0.56434520465E+03  0.61172017148E+03  0.12500000000E+03 0.  0.
         25    1    1    2    0    0 -0.35633762741E+02 -0.25407152958E+02 -0.32083547954E+03  0.34709608670E+03  0.12500000000E+03 0.  0.
         25    1    1    2    0    0  0.12570539126E+03 -0.15341722991E+03 -0.93551731839E+03  0.96444613371E+03  0.12500000000E+03 0.  0.
</event>
<event>
 5    0  0.5648525E-005  0.2242827E+03  0.7546771E-02  0.1130730E+00
         21   -1    0    0  502  501  0.00000000000E+00  0.00000000000E+00  0.37312213116E+03  0.37312213116E+03  0.00000000000E+00 0. -1.
         21   -1    0    0  501  502 -0.00000000000E+00 -0.00000000000E+00 -0.13481573658E+03  0.13481573658E+03  0.00000000000E+00 0. -1.
         25    1    1    2    0    0  0.40746541811E+02 -0.13419979203E+02  0.36628603259E+02  0.13713872935E+03  0.12500000000E+03 0.  0.
         25    1    1    2    0    0  0.45681584950E+02  0.37565573447E+02  0.32390755495E+02  0.14202866103E+03  0.12500000000E+03 0.  0.
         25    1    1    2    0    0 -0.86428126761E+02 -0.24145594243E+02  0.16928703583E+03  0.22877047737E+03  0.12500000000E+03 0.  0.
</event>
<event>
 5    0  0.5648525E-005  0.2276402E+03  0.7546771E-02  0.1128312E+00
         21   -1    0    0  502  501  0.00000000000E+00  0.00000000000E+00  0.16054950766E+04  0.16054950766E+04  0.00000000000E+00 0.  1.
         21   -1    0    0  501  502 -0.00000000000E+00 -0.00000000000E+00 -0.32276679980E+02  0.32276679980E+02  0.00000000000E+00 0.  1.
         25    1    1    2    0    0 -0.52562884749E+02  0.83606054658E+02  0.66570572038E+03  0.68450123110E+03  0.12500000000E+03 0.  0.
         25    1    1    2    0    0  0.43477668792E+02 -0.79284166079E+02  0.36153631060E+03  0.39307733407E+03  0.12500000000E+03 0.  0.
         25    1    1    2    0    0  0.90852159575E+01 -0.43218885790E+01  0.54597636562E+03  0.56019319140E+03  0.12500000000E+03 0.  0.
</event>
<event>
 5    0  0.5648525E-005  0.2755027E+03  0.7546771E-02  0.1098171E+00
         21   -1    0    0  502  501  0.00000000000E+00  0.00000000000E+00  0.65338243553E+02  0.65338243553E+02  0.00000000000E+00 0. -1.
         21   -1    0    0  501  502 -0.00000000000E+00 -0.00000000000E+00 -0.11616738951E+04  0.11616738951E+04  0.00000000000E+00 0. -1.
         25    1    1    2    0    0 -0.30851609468E+02 -0.11989246432E+03 -0.60134500280E+03  0.62655154393E+03  0.12500000000E+03 0.  0.
         25    1    1    2    0    0 -0.66921232685E+02  0.20591307989E+02 -0.14675785208E+03  0.20509831910E+03  0.12500000000E+03 0.  0.
         25    1    1    2    0    0  0.97772842153E+02  0.99301156336E+02 -0.34823279663E+03  0.39536227560E+03  0.12500000000E+03 0.  0.
</event>
<event>
 5    0  0.5648525E-005  0.2856739E+03  0.7546771E-02  0.1092630E+00
         21   -1    0    0  502  501  0.00000000000E+00  0.00000000000E+00  0.90237964213E+03  0.90237964213E+03  0.00000000000E+00 0. -1.
         21   -1    0    0  501  502 -0.00000000000E+00 -0.00000000000E+00 -0.90438159589E+02  0.90438159589E+02  0.00000000000E+00 0. -1.
         25    1    1    2    0    0 -0.79078162419E+02  0.18766218383E+03  0.27365604847E+03  0.36329476170E+03  0.12500000000E+03 0.  0.
         25    1    1    2    0    0  0.41397200019E+02 -0.72269609060E+02  0.28387541440E+03  0.32116487271E+03  0.12500000000E+03 0.  0.
         25    1    1    2    0    0  0.37680962400E+02 -0.11539257477E+03  0.25441001967E+03  0.30835816731E+03  0.12500000000E+03 0.  0.
</event>
<event>
 5    0  0.5648525E-005  0.6294598E+03  0.7546771E-02  0.9846104E-01
         21   -1    0    0  502  501  0.00000000000E+00  0.00000000000E+00  0.33536985453E+03  0.33536985453E+03  0.00000000000E+00 0.  1.
         21   -1    0    0  501  502 -0.00000000000E+00 -0.00000000000E+00 -0.11814408467E+04  0.11814408467E+04  0.00000000000E+00 0.  1.
         25    1    1    2    0    0 -0.64180461709E+02 -0.17679905777E+03 -0.23599247435E+03  0.32664121975E+03  0.12500000000E+03 0.  0.
         25    1    1    2    0    0 -0.40521355377E+03  0.17660047215E+03 -0.71491482543E+02  0.46488900073E+03  0.12500000000E+03 0.  0.
         25    1    1    2    0    0  0.46939401548E+03  0.19858562157E+00 -0.53858703531E+03  0.72528048079E+03  0.12500000000E+03 0.  0.
</event>
<event>
 5    0  0.6312323E-005  0.2576599E+03  0.7546771E-02  0.1108557E+00
         21   -1    0    0  502  501  0.00000000000E+00  0.00000000000E+00  0.19614155402E+03  0.19614155402E+03  0.00000000000E+00 0. -1.
         21   -1    0    0  501  502 -0.00000000000E+00 -0.00000000000E+00 -0.33847306196E+03  0.33847306196E+03  0.00000000000E+00 0. -1.
         25    1    1    2    0    0  0.51678057711E+02 -0.14622767857E+03 -0.10507159003E+03  0.22520700402E+03  0.12500000000E+03 0.  0.
         25    1    1    2    0    0 -0.51048175977E+02  0.41807283089E+02  0.39369271055E+01  0.14140107703E+03  0.12500000000E+03 0.  0.
         25    1    1    2    0    0 -0.62988173366E+00  0.10442039548E+03 -0.41196845016E+02  0.16800653494E+03  0.12500000000E+03 0.  0.
</event>
<event>
 5    0  0.5648525E-005  0.2649184E+03  0.7546771E-02  0.1104224E+00
         21   -1    0    0  502  501  0.00000000000E+00  0.00000000000E+00  0.46435694523E+03  0.46435694523E+03  0.00000000000E+00 0.  1.
         21   -1    0    0  501  502 -0.00000000000E+00 -0.00000000000E+00 -0.15113756102E+03  0.15113756102E+03  0.00000000000E+00 0.  1.
         25    1    1    2    0    0 -0.10968277336E+03 -0.71086528614E+02  0.13214086010E+03  0.22398618759E+03  0.12500000000E+03 0.  0.
         25    1    1    2    0    0  0.75574026896E+02  0.79283736278E+02  0.20028935770E+03  0.26026557819E+03  0.12500000000E+03 0.  0.
         25    1    1    2    0    0  0.34108746466E+02 -0.81972076641E+01 -0.19210833592E+02  0.13124274047E+03  0.12500000000E+03 0.  0.
</event>
<event>
 5    0  0.5648525E-005  0.4782811E+03  0.7546771E-02  0.1019609E+00
         21   -1    0    0  502  501  0.00000000000E+00  0.00000000000E+00  0.47529485354E+03  0.47529485354E+03  0.00000000000E+00 0.  1.
         21   -1    0    0  501  502 -0.00000000000E+00 -0.00000000000E+00 -0.48128606297E+03  0.48128606297E+03  0.00000000000E+00 0.  1.
         25    1    1    2    0    0  0.13224610762E+03  0.36843122326E+02 -0.72880758589E+02  0.19945689663E+03  0.12500000000E+03 0.  0.
         25    1    1    2    0    0  0.16771377556E+03  0.14479646358E+03  0.23711714967E+03  0.34776927560E+03  0.12500000000E+03 0.  0.
         25    1    1    2    0    0 -0.29995988318E+03 -0.18163958591E+03 -0.17022760052E+03  0.40935474428E+03  0.12500000000E+03 0.  0.
</event>
<event>
 5    0  0.5796307E-005  0.3311305E+03  0.7546771E-02  0.1070638E+00
         21   -1    0    0  502  501  0.00000000000E+00  0.00000000000E+00  0.31036120585E+03  0.31036120585E+03  0.00000000000E+00 0.  1.
         21   -1    0    0  501  502 -0.00000000000E+00 -0.00000000000E+00 -0.35328966021E+03  0.35328966021E+03  0.00000000000E+00 0.  1.
         25    1    1    2    0    0 -0.96676111877E+02  0.12638276546E+03 -0.13556173289E+02  0.20279951639E+03  0.12500000000E+03 0.  0.
         25    1    1    2    0    0  0.35784466071E+02  0.61608146294E+02 -0.14126411209E+03  0.20163492026E+03  0.12500000000E+03 0.  0.
         25    1    1    2    0    0  0.60891645806E+02 -0.18799091175E+03  0.11189183102E+03  0.25921642942E+03  0.12500000000E+03 0.  0.
</event>
<event>
 5    0  0.5649779E-005  0.4588335E+03  0.7546771E-02  0.1025120E+00
         21   -1    0    0  502  501  0.00000000000E+00  0.00000000000E+00  0.58822665753E+03  0.58822665753E+03  0.00000000000E+00 0. -1.
         21   -1    0    0  501  502 -0.00000000000E+00 -0.00000000000E+00 -0.35790312087E+03  0.35790312087E+03  0.00000000000E+00 0. -1.
         25    1    1    2    0    0 -0.15864447697E+03  0.18407786458E+03 -0.32473837176E+02  0.27519498615E+03  0.12500000000E+03 0.  0.
         25    1    1    2    0    0 -0.18953829251E+02 -0.14950549368E+03 -0.11987180089E+03  0.22957654265E+03  0.12500000000E+03 0.  0.
         25    1    1    2    0    0  0.17759830622E+03 -0.34572370899E+02  0.38266917473E+03  0.44135824960E+03  0.12500000000E+03 0.  0.
</event>
<event>
 5    0  0.5648525E-005  0.3186902E+03  0.7546771E-02  0.1076254E+00
         21   -1    0    0  502  501  0.00000000000E+00  0.00000000000E+00  0.19352594858E+03  0.19352594858E+03  0.00000000000E+00 0. -1.
         21   -1    0    0  501  502 -0.00000000000E+00 -0.00000000000E+00 -0.52480531595E+03  0.52480531595E+03  0.00000000000E+00 0. -1.
         25    1    1    2    0    0 -0.83377616556E+02  0.65136012566E+02 -0.28740844124E+03  0.33079168547E+03  0.12500000000E+03 0.  0.
         25    1    1    2    0    0 -0.61178258209E+02 -0.66360680304E+02 -0.10540636705E+03  0.18676729206E+03  0.12500000000E+03 0.  0.
         25    1    1    2    0    0  0.14455587477E+03  0.12246677380E+01  0.61535440926E+02  0.20077228701E+03  0.12500000000E+03 0.  0.
</event>
<event>
 5    0  0.5648525E-005  0.4572237E+03  0.7546771E-02  0.1025589E+00
         21   -1    0    0  502  501  0.00000000000E+00  0.00000000000E+00  0.18317526137E+04  0.18317526137E+04  0.00000000000E+00 0.  1.
         21   -1    0    0  501  502 -0.00000000000E+00 -0.00000000000E+00 -0.11412760456E+03  0.11412760456E+03  0.00000000000E+00 0. -1.
         25    1    1    2    0    0 -0.27506564394E+03 -0.17430042351E+03  0.82848079807E+03  0.89891444470E+03  0.12500000000E+03 0.  0.
         25    1    1    2    0    0  0.10033668638E+03  0.14152398699E+03  0.76997398791E+03  0.79911290290E+03  0.12500000000E+03 0.  0.
         25    1    1    2    0    0  0.17472895757E+03  0.32776436519E+02  0.11917022314E+03  0.24785287064E+03  0.12500000000E+03 0.  0.
</event>
<event>
 5    0  0.5676434E-005  0.3827590E+03  0.7546771E-02  0.1049919E+00
         21   -1    0    0  502  501  0.00000000000E+00  0.00000000000E+00  0.82586437441E+03  0.82586437441E+03  0.00000000000E+00 0.  1.
         21   -1    0    0  501  502 -0.00000000000E+00 -0.00000000000E+00 -0.17739524906E+03  0.17739524906E+03  0.00000000000E+00 0.  1.
         25    1    1    2    0    0 -0.89150823712E+02  0.17881723460E+03  0.16119957645E+03  0.28554119879E+03  0.12500000000E+03 0.  0.
         25    1    1    2    0    0  0.62878338306E+02 -0.94818262981E+02 -0.35793463832E+02  0.17277256864E+03  0.12500000000E+03 0.  0.
         25    1    1    2    0    0  0.26272485406E+02 -0.83998971617E+02  0.52306301273E+03  0.54494585603E+03  0.12500000000E+03 0.  0.
</event>
<event>
 5    0  0.5648525E-005  0.2881603E+03  0.7546771E-02  0.1091314E+00
         21   -1    0    0  502  501  0.00000000000E+00  0.00000000000E+00  0.70782399839E+02  0.70782399839E+02  0.00000000000E+00 0. -1.
         21   -1    0    0  501  502 -0.00000000000E+00 -0.00000000000E+00 -0.11731215432E+04  0.11731215432E+04  0.00000000000E+00 0. -1.
         25    1    1    2    0    0 -0.13305529126E+03  0.10320192536E+03 -0.62709224427E+03  0.66122918172E+03  0.12500000000E+03 0.  0.
         25    1    1    2    0    0  0.14915283113E+03 -0.55706551234E+02 -0.28793526006E+03  0.35196803955E+03  0.12500000000E+03 0.  0.
         25    1    1    2    0    0 -0.16097539862E+02 -0.47495374125E+02 -0.18731163906E+03  0.23070672179E+03  0.12500000000E+03 0.  0.
</event>
<event>
 5    0  0.5648525E-005  0.2618484E+03  0.7546771E-02  0.1106038E+00
         21   -1    0    0  502  501  0.00000000000E+00  0.00000000000E+00  0.22605277475E+03  0.22605277475E+03  0.00000000000E+00 0. -1.
         21   -1    0    0  501  502 -0.00000000000E+00 -0.00000000000E+00 -0.30331228860E+03  0.30331228860E+03  0.00000000000E+00 0. -1.
         25    1    1    2    0    0 -0.91544426073E+02  0.48222137905E+02 -0.64997279194E+02  0.17480103785E+03  0.12500000000E+03 0.  0.
         25    1    1    2    0    0  0.72282583619E+02  0.73847645551E+02  0.47352757447E+02  0.16895422542E+03  0.12500000000E+03 0.  0.
         25    1    1    2    0    0  0.19261842454E+02 -0.12206978346E+03 -0.59614992105E+02  0.18560980010E+03  0.12500000000E+03 0.  0.
</event>
<event>
 5    0  0.5648525E-005  0.3183184E+03  0.7546771E-02  0.1076426E+00
         21   -1    0    0  502  501  0.00000000000E+00  0.00000000000E+00  0.17216384703E+03  0.17216384703E+03  0.00000000000E+00 0. -1.
         21   -1    0    0  501  502 -0.00000000000E+00 -0.00000000000E+00 -0.58854733805E+03  0.58854733805E+03  0.00000000000E+00 0. -1.
         25    1    1    2    0    0  0.88853773494E+02  0.40297084086E+02 -0.61775102762E+02  0.17017641250E+03  0.12500000000E+03 0.  0.
         25    1    1    2    0    0 -0.50277116303E+02 -0.14977976302E+02  0.64955715640E+02  0.15032090072E+03  0.12500000000E+03 0.  0.
         25    1    1    2    0    0 -0.38576657191E+02 -0.25319107784E+02 -0.41956410390E+03  0.44021387187E+03  0.12500000000E+03 0.  0.
</event>
<event>
 5    0  0.5648525E-005  0.4014406E+03  0.7546771E-02  0.1043282E+00
         21   -1    0    0  502  501  0.00000000000E+00  0.00000000000E+00  0.47042377317E+03  0.47042377317E+03  0.00000000000E+00 0. -1.
         21   -1    0    0  501  502 -0.00000000000E+00 -0.00000000000E+00 -0.34257316071E+03  0.34257316071E+03  0.00000000000E+00 0. -1.
         25    1    1    2    0    0 -0.15026598795E+03  0.72708572304E+02  0.16574672980E+03  0.26638953069E+03  0.12500000000E+03 0.  0.
         25    1    1    2    0    0 -0.78281257765E+02 -0.19113310751E+03 -0.86312838473E+02  0.25638784329E+03  0.12500000000E+03 0.  0.
         25    1    1    2    0    0  0.22854724572E+03  0.11842453520E+03  0.48416721138E+02  0.29021955990E+03  0.12500000000E+03 0.  0.
</event>
<event>
 5    0  0.6221167E-005  0.3039961E+03  0.7546771E-02  0.1083260E+00
         21   -1    0    0  502  501  0.00000000000E+00  0.00000000000E+00  0.27476678198E+03  0.27476678198E+03  0.00000000000E+00 0.  1.
         21   -1    0    0  501  502 -0.00000000000E+00 -0.00000000000E+00 -0.33633485573E+03  0.33633485573E+03  0.00000000000E+00 0.  1.
         25    1    1    2    0    0  0.15419581003E+03 -0.65500694773E+02 -0.13107286787E+03  0.24672208158E+03  0.12500000000E+03 0.  0.
         25    1    1    2    0    0 -0.13734110834E+03  0.61570673393E+02 -0.37160016598E+02  0.19914666629E+03  0.12500000000E+03 0.  0.
         25    1    1    2    0    0 -0.16854701692E+02  0.39300213797E+01  0.10666481073E+03  0.16523288984E+03  0.12500000000E+03 0.  0.
</event>
<event>
 5    0  0.5648525E-005  0.5162721E+03  0.7546771E-02  0.1009617E+00
         21   -1    0    0  502  501  0.00000000000E+00  0.00000000000E+00  0.26502143329E+03  0.26502143329E+03  0.00000000000E+00 0.  1.
         21   -1    0    0  501  502 -0.00000000000E+00 -0.00000000000E+00 -0.10057183384E+04  0.10057183384E+04  0.00000000000E+00 0.  1.
         25    1    1    2    0    0  0.31474676026E+03  0.32684905650E+02  0.75278993005E+01  0.34031675748E+03  0.12500000000E+03 0.  0.
         25    1    1    2    0    0  0.61010783580E+02 -0.47504371554E+02 -0.13073574289E+03  0.19671251993E+03  0.12500000000E+03 0.  0.
         25    1    1    2    0    0 -0.37575754384E+03  0.14819465904E+02 -0.61748906148E+03  0.73371049425E+03  0.12500000000E+03 0.  0.
</event>
<event>
 5    0  0.5648525E-005  0.2578448E+03  0.7546771E-02  0.1108445E+00
         21   -1    0    0  502  501  0.00000000000E+00  0.00000000000E+00  0.13430700366E+03  0.13430700366E+03  0.00000000000E+00 0. -1.
         21   -1    0    0  501  502 -0.00000000000E+00 -0.00000000000E+00 -0.49501451738E+03  0.49501451738E+03  0.00000000000E+00 0. -1.
         25    1    1    2    0    0  0.24899918878E+02  0.50354981438E+02 -0.22181395901E+03  0.26073370040E+03  0.12500000000E+03 0.  0.
         25    1    1    2    0    0  0.53643877637E+02  0.47467910550E+02 -0.12536064035E+03  0.19097423462E+03  0.12500000000E+03 0.  0.
         25    1    1    2    0    0 -0.78543796515E+02 -0.97822891988E+02 -0.13532914364E+02  0.17761358602E+03  0.12500000000E+03 0.  0.
</event>
<event>
 5    0  0.5648525E-005  0.2804461E+03  0.7546771E-02  0.1095446E+00
         21   -1    0    0  502  501  0.00000000000E+00  0.00000000000E+00  0.59762838342E+02  0.59762838342E+02  0.00000000000E+00 0.  1.
         21   -1    0    0  501  502 -0.00000000000E+00 -0.00000000000E+00 -0.13160353600E+04  0.13160353600E+04  0.00000000000E+00 0.  1.
         25    1    1    2    0    0 -0.69575595784E+02  0.60762961530E+02 -0.10157153714E+03  0.18567357965E+03  0.12500000000E+03 0.  0.
         25    1    1    2    0    0  0.19449949023E+01 -0.56188236060E+02 -0.42028717964E+03  0.44207150354E+03  0.12500000000E+03 0.  0.
         25    1    1    2    0    0  0.67630600882E+02 -0.45747254708E+01 -0.73441380487E+03  0.74805311514E+03  0.12500000000E+03 0.  0.
</event>
<event>
 5    0  0.5648525E-005  0.4021794E+03  0.7546771E-02  0.1043028E+00
         21   -1    0    0  502  501  0.00000000000E+00  0.00000000000E+00  0.24139911989E+03  0.24139911989E+03  0.00000000000E+00 0.  1.
         21   -1    0    0  501  502 -0.00000000000E+00 -0.00000000000E+00 -0.67004504488E+03  0.67004504488E+03  0.00000000000E+00 0.  1.
         25    1    1    2    0    0 -0.83809267683E+02  0.10790251561E+03 -0.15618075755E+03  0.24224858153E+03  0.12500000000E+03 0.  0.
         25    1    1    2    0    0  0.29098053995E+03  0.13367431903E+02 -0.23795739449E+03  0.39635474572E+03  0.12500000000E+03 0.  0.
         25    1    1    2    0    0 -0.20717127226E+03 -0.12126994752E+03 -0.34507772951E+02  0.27284083751E+03  0.12500000000E+03 0.  0.
</event>
<event>
 5    0  0.5648525E-005  0.4346795E+03  0.7546771E-02  0.1032392E+00
         21   -1    0    0  502  501  0.00000000000E+00  0.00000000000E+00  0.17098227192E+03  0.17098227192E+03  0.00000000000E+00 0. -1.
         21   -1    0    0  501  502 -0.00000000000E+00 -0.00000000000E+00 -0.11050633105E+04  0.11050633105E+04  0.00000000000E+00 0. -1.
         25    1    1    2    0    0 -0.17044716523E+03  0.64371145879E+02 -0.36256844630E+03  0.42459010682E+03  0.12500000000E+03 0.  0.
         25    1    1    2    0    0  0.92026046190E+01  0.69700082563E+02  0.73956611651E+02  0.16136099234E+03  0.12500000000E+03 0.  0.
         25    1    1    2    0    0  0.16124456061E+03 -0.13407122844E+03 -0.64546920397E+03  0.69009448331E+03  0.12500000000E+03 0.  0.
</event>
<event>
 5    0  0.5648525E-005  0.3049329E+03  0.7546771E-02  0.1082800E+00
         21   -1    0    0  502  501  0.00000000000E+00  0.00000000000E+00  0.51119490319E+02  0.51119490319E+02  0.00000000000E+00 0. -1.
         21   -1    0    0  501  502 -0.00000000000E+00 -0.00000000000E+00 -0.18189553017E+04  0.18189553017E+04  0.00000000000E+00 0. -1.
         25    1    1    2    0    0  0.39090131564E+02  0.12503456470E+03 -0.47152472211E+03  0.50509627232E+03  0.12500000000E+03 0.  0.
         25    1    1    2    0    0 -0.59661579830E+02 -0.18870168501E+03 -0.45373340899E+03  0.51055541959E+03  0.12500000000E+03 0.  0.
         25    1    1    2    0    0  0.20571448266E+02  0.63667120305E+02 -0.84257768032E+03  0.85442310014E+03  0.12500000000E+03 0.  0.
</event>
<event>
 5    0  0.5648525E-005  0.3876895E+03  0.7546771E-02  0.1048128E+00
         21   -1    0    0  502  501  0.00000000000E+00  0.00000000000E+00  0.46286026145E+03  0.46286026145E+03  0.00000000000E+00 0.  1.
         21   -1    0    0  501  502 -0.00000000000E+00 -0.00000000000E+00 -0.32472681620E+03  0.32472681620E+03  0.00000000000E+00 0.  1.
         25    1    1    2    0    0 -0.21211370835E+03  0.22586174013E+03 -0.59277515757E+02  0.33932959611E+03  0.12500000000E+03 0.  0.
         25    1    1    2    0    0  0.91481567477E+02 -0.10222862717E+03  0.62002731927E+02  0.19567551755E+03  0.12500000000E+03 0.  0.
         25    1    1    2    0    0  0.12063214087E+03 -0.12363311296E+03  0.13540822908E+03  0.25258196399E+03  0.12500000000E+03 0.  0.
</event>
<event>
 5    0  0.5648525E-005  0.3773102E+03  0.7546771E-02  0.1051932E+00
         21   -1    0    0  502  501  0.00000000000E+00  0.00000000000E+00  0.10591004996E+03  0.10591004996E+03  0.00000000000E+00 0.  1.
         21   -1    0    0  501  502 -0.00000000000E+00 -0.00000000000E+00 -0.13441873728E+04  0.13441873728E+04  0.00000000000E+00 0.  1.
         25    1    1    2    0    0  0.50539561626E+02 -0.57168410030E+02 -0.56341694341E+03  0.58213926729E+03  0.12500000000E+03 0.  0.
         25    1    1    2    0    0  0.16868651076E+02  0.19538391912E+03 -0.88189039270E+02  0.24872019196E+03  0.12500000000E+03 0.  0.
         25    1    1    2    0    0 -0.67408212702E+02 -0.13821550909E+03 -0.58667134016E+03  0.61923796352E+03  0.12500000000E+03 0.  0.
</event>
<event>
 5    0  0.5648525E-005  0.3286481E+03  0.7546771E-02  0.1071737E+00
         21   -1    0    0  502  501  0.00000000000E+00  0.00000000000E+00  0.46682579195E+03  0.46682579195E+03  0.00000000000E+00 0. -1.
         21   -1    0    0  501  502 -0.00000000000E+00 -0.00000000000E+00 -0.23137018932E+03  0.23137018932E+03  0.00000000000E+00 0. -1.
         25    1    1    2    0    0  0.49418071301E+01  0.39274996627E+02 -0.16616980627E+03  0.21167038369E+03  0.12500000000E+03 0.  0.
         25    1    1    2    0    0  0.11526032259E+02  0.10133805793E+02  0.26880794189E+03  0.29684718807E+03  0.12500000000E+03 0.  0.
         25    1    1    2    0    0 -0.16467839389E+02 -0.49408802420E+02  0.13281746701E+03  0.18967840951E+03  0.12500000000E+03 0.  0.
</event>
<event>
 5    0  0.5648525E-005  0.2589065E+03  0.7546771E-02  0.1107802E+00
         21   -1    0    0  502  501  0.00000000000E+00  0.00000000000E+00  0.37533712152E+03  0.37533712152E+03  0.00000000000E+00 0.  1.
         21   -1    0    0  501  502 -0.00000000000E+00 -0.00000000000E+00 -0.17859302466E+03  0.17859302466E+03  0.00000000000E+00 0.  1.
         25    1    1    2    0    0  0.67395894001E+02  0.23618835875E+02 -0.37631058570E+02  0.14879903395E+03  0.12500000000E+03 0.  0.
         25    1    1    2    0    0  0.61324669211E+02  0.31147177048E+02  0.94628204971E+02  0.17120268359E+03  0.12500000000E+03 0.  0.
         25    1    1    2    0    0 -0.12872056321E+03 -0.54766012923E+02  0.13974695046E+03  0.23392842864E+03  0.12500000000E+03 0.  0.
</event>
<event>
 5    0  0.5648525E-005  0.2426443E+03  0.7546771E-02  0.1118044E+00
         21   -1    0    0  502  501  0.00000000000E+00  0.00000000000E+00  0.13475605547E+04  0.13475605547E+04  0.00000000000E+00 0.  1.
         21   -1    0    0  501  502 -0.00000000000E+00 -0.00000000000E+00 -0.43690997885E+02  0.43690997885E+02  0.00000000000E+00 0.  1.
         25    1    1    2    0    0  0.81587196071E+02 -0.69041638745E+00  0.30455933129E+03  0.33917301413E+03  0.12500000000E+03 0.  0.
         25    1    1    2    0    0 -0.11970404272E+03  0.52599455858E+02  0.44852669313E+03  0.48362894356E+03  0.12500000000E+03 0.  0.
         25    1    1    2    0    0  0.38116846649E+02 -0.51909039471E+02  0.55078353234E+03  0.56844959484E+03  0.12500000000E+03 0.  0.
</event>
<event>
 5    0  0.5648525E-005  0.2308807E+03  0.7546771E-02  0.1126021E+00
         21   -1    0    0  502  501  0.00000000000E+00  0.00000000000E+00  0.33751765126E+02  0.33751765126E+02  0.00000000000E+00 0.  1.
         21   -1    0    0  501  502 -0.00000000000E+00 -0.00000000000E+00 -0.15793510161E+04  0.15793510161E+04  0.00000000000E+00 0.  1.
         25    1    1    2    0    0  0.15736391057E+02 -0.74482578993E+02 -0.41251654715E+03  0.43771016695E+03  0.12500000000E+03 0.  0.
         25    1    1    2    0    0 -0.81663634525E+02  0.51594141254E+02 -0.74944077132E+03  0.76590950792E+03  0.12500000000E+03 0.  0.
         25    1    1    2    0    0  0.65927243468E+02  0.22888437738E+02 -0.38364193253E+03  0.40948310637E+03  0.12500000000E+03 0.  0.
</event>
<event>
 5    0  0.5648525E-005  0.2719495E+03  0.7546771E-02  0.1100169E+00
         21   -1    0    0  502  501  0.00000000000E+00  0.00000000000E+00  0.26296912009E+03  0.26296912009E+03  0.00000000000E+00 0. -1.
         21   -1    0    0  501  502 -0.00000000000E+00 -0.00000000000E+00 -0.28123658168E+03  0.28123658168E+03  0.00000000000E+00 0. -1.
         25    1    1    2    0    0  0.16617212473E+03  0.29811720960E+02  0.47551358723E+02  0.21537884172E+03  0.12500000000E+03 0.  0.
         25    1    1    2    0    0 -0.13321488148E+03 -0.54350313079E+02 -0.38628917611E+02  0.19446684667E+03  0.12500000000E+03 0.  0.
         25    1    1    2    0    0 -0.32957243247E+02  0.24538592119E+02 -0.27189902704E+02  0.13436001338E+03  0.12500000000E+03 0.  0.
</event>
<event>
 5    0  0.5758089E-005  0.4242054E+03  0.7546771E-02  0.1035706E+00
         21   -1    0    0  502  501  0.00000000000E+00  0.00000000000E+00  0.14811158939E+03  0.14811158939E+03  0.00000000000E+00 0.  1.
         21   -1    0    0  501  502 -0.00000000000E+00 -0.00000000000E+00 -0.12149636041E+04  0.12149636041E+04  0.00000000000E+00 0.  1.
         25    1    1    2    0    0  0.73770762224E+02  0.11843354675E+03 -0.78089221645E+03  0.80304812065E+03  0.12500000000E+03 0.  0.
         25    1    1    2    0    0 -0.11156384098E+03 -0.15225819413E+03 -0.34510198833E+03  0.41273409194E+03  0.12500000000E+03 0.  0.
         25    1    1    2    0    0  0.37793078758E+02  0.33824647384E+02  0.59142190092E+02  0.14729298090E+03  0.12500000000E+03 0.  0.
</event>
<event>
 5    0  0.5648525E-005  0.2592749E+03  0.7546771E-02  0.1107580E+00
         21   -1    0    0  502  501  0.00000000000E+00  0.00000000000E+00  0.30539640077E+03  0.30539640077E+03  0.00000000000E+00 0.  1.
         21   -1    0    0  501  502 -0.00000000000E+00 -0.00000000000E+00 -0.22011869455E+03  0.22011869455E+03  0.00000000000E+00 0.  1.
         25    1    1    2    0    0  0.67952920863E+02  0.27406087457E+02  0.89891009709E+02  0.17051125098E+03  0.12500000000E+03 0.  0.
         25    1    1    2    0    0  0.87526397521E+01 -0.83904182966E+02  0.85986757521E+02  0.17359505491E+03  0.12500000000E+03 0.  0.
         25    1    1    2    0    0 -0.76705560615E+02  0.56498095509E+02 -0.90600061016E+02  0.18140878943E+03  0.12500000000E+03 0.  0.
</event>
<event>
 5    0  0.5648525E-005  0.3212109E+03  0.7546771E-02  0.1075093E+00
         21   -1    0    0  502  501  0.00000000000E+00  0.00000000000E+00  0.55322347891E+03  0.55322347891E+03  0.00000000000E+00 0. -1.
         21   -1    0    0  501  502 -0.00000000000E+00 -0.00000000000E+00 -0.18650048362E+03  0.18650048362E+03  0.00000000000E+00 0. -1.
         25    1    1    2    0    0  0.31559395131E+02  0.12861359606E+03 -0.85320171841E+02  0.20110192499E+03  0.12500000000E+03 0.  0.
         25    1    1    2    0    0 -0.36813785726E+02 -0.83248966954E+02  0.19219111055E+03  0.24667401220E+03  0.12500000000E+03 0.  0.
         25    1    1    2    0    0  0.52543905947E+01 -0.45364629109E+02  0.25985205657E+03  0.29194802534E+03  0.12500000000E+03 0.  0.
</event>
<event>
 5    0  0.5648525E-005  0.2562757E+03  0.7546771E-02  0.1109402E+00
         21   -1    0    0  502  501  0.00000000000E+00  0.00000000000E+00  0.93512688011E+02  0.93512688011E+02  0.00000000000E+00 0.  1.
         21   -1    0    0  501  502 -0.00000000000E+00 -0.00000000000E+00 -0.70233478784E+03  0.70233478784E+03  0.00000000000E+00 0.  1.
         25    1    1    2    0    0 -0.34336699745E+02 -0.68371348290E+02 -0.10912937271E+03  0.18272348017E+03  0.12500000000E+03 0.  0.
         25    1    1    2    0    0 -0.84765990839E+02  0.38012102696E+02 -0.12590196497E+03  0.20026606787E+03  0.12500000000E+03 0.  0.
         25    1    1    2    0    0  0.11910269058E+03  0.30359245594E+02 -0.37379076214E+03  0.41285792782E+03  0.12500000000E+03 0.  0.
</event>
<event>
 5    0  0.5648525E-005  0.6178251E+03  0.7546771E-02  0.9869100E-01
         21   -1    0    0  502  501  0.00000000000E+00  0.00000000000E+00  0.43797646395E+03  0.43797646395E+03  0.00000000000E+00 0. -1.
         21   -1    0    0  501  502 -0.00000000000E+00 -0.00000000000E+00 -0.87152583255E+03  0.87152583255E+03  0.00000000000E+00 0. -1.
         25    1    1    2    0    0  0.34856697519E+03 -0.29128830696E+03 -0.51152563847E+02  0.47390863967E+03  0.12500000000E+03 0.  0.
         25    1    1    2    0    0 -0.43573681942E+02  0.13010030486E+03  0.11436967995E+03  0.21801417104E+03  0.12500000000E+03 0.  0.
         25    1    1    2    0    0 -0.30499329325E+03  0.16118800209E+03 -0.49676648471E+03  0.61757948579E+03  0.12500000000E+03 0.  0.
</event>
<event>
 5    0  0.5648525E-005  0.2473028E+03  0.7546771E-02  0.1115021E+00
         21   -1    0    0  502  501  0.00000000000E+00  0.00000000000E+00  0.80736431875E+02  0.80736431875E+02  0.00000000000E+00 0. -1.
         21   -1    0    0  501  502 -0.00000000000E+00 -0.00000000000E+00 -0.75751050804E+03  0.75751050804E+03  0.00000000000E+00 0. -1.
         25    1    1    2    0    0 -0.77781303340E+00 -0.78625082785E+02 -0.48247319032E+02  0.15535543901E+03  0.12500000000E+03 0.  0.
         25    1    1    2    0    0 -0.11551532745E+01  0.13800328293E+02 -0.31576748966E+03  0.33989099866E+03  0.12500000000E+03 0.  0.
         25    1    1    2    0    0  0.19329663079E+01  0.64824754492E+02 -0.31275926747E+03  0.34300050224E+03  0.12500000000E+03 0.  0.
</event>
<event>
 5    0  0.5648525E-005  0.4587886E+03  0.7546771E-02  0.1025133E+00
         21   -1    0    0  502  501  0.00000000000E+00  0.00000000000E+00  0.12280680438E+03  0.12280680438E+03  0.00000000000E+00 0. -1.
         21   -1    0    0  501  502 -0.00000000000E+00 -0.00000000000E+00 -0.17139681996E+04  0.17139681996E+04  0.00000000000E+00 0. -1.
         25    1    1    2    0    0 -0.22396423471E+03  0.20073048281E+02 -0.37491079185E+03  0.45469331152E+03  0.12500000000E+03 0.  0.
         25    1    1    2    0    0  0.31857884096E+03 -0.14189909436E+03 -0.41370317303E+03  0.55534056782E+03  0.12500000000E+03 0.  0.
         25    1    1    2    0    0 -0.94614606250E+02  0.12182604608E+03 -0.80254743037E+03  0.82674112466E+03  0.12500000000E+03 0.  0.
</event>
<event>
 5    0  0.5648525E-005  0.2664417E+03  0.7546771E-02  0.1103334E+00
         21   -1    0    0  502  501  0.00000000000E+00  0.00000000000E+00  0.15212413763E+03  0.15212413763E+03  0.00000000000E+00 0. -1.
         21   -1    0    0  501  502 -0.00000000000E+00 -0.00000000000E+00 -0.46666610633E+03  0.46666610633E+03  0.00000000000E+00 0. -1.
         25    1    1    2    0    0 -0.62629810071E+02  0.62280406458E+02 -0.15799976138E+02  0.15387001457E+03  0.12500000000E+03 0.  0.
         25    1    1    2    0    0  0.13154701488E+03 -0.92397667033E+02 -0.21747206530E+03  0.29792791944E+03  0.12500000000E+03 0.  0.
         25    1    1    2    0    0 -0.68917204810E+02  0.30117260575E+02 -0.81269927273E+02  0.16699230995E+03  0.12500000000E+03 0.  0.
</event>
<event>
 5    0  0.6116127E-005  0.3373968E+03  0.7546771E-02  0.1067910E+00
         21   -1    0    0  502  501  0.00000000000E+00  0.00000000000E+00  0.69077961290E+03  0.69077961290E+03  0.00000000000E+00 0.  1.
         21   -1    0    0  501  502 -0.00000000000E+00 -0.00000000000E+00 -0.16479441183E+03  0.16479441183E+03  0.00000000000E+00 0.  1.
         25    1    1    2    0    0 -0.10691438212E+03 -0.17910222695E+03  0.12117984188E+03  0.27169439979E+03  0.12500000000E+03 0.  0.
         25    1    1    2    0    0 -0.65593947293E+02  0.70848101244E+02  0.26074360532E+03  0.30485118843E+03  0.12500000000E+03 0.  0.
         25    1    1    2    0    0  0.17250832942E+03  0.10825412570E+03  0.14406175388E+03  0.27902843651E+03  0.12500000000E+03 0.  0.
</event>
<event>
 5    0  0.5648525E-005  0.2589101E+03  0.7546771E-02  0.1107800E+00
         21   -1    0    0  502  501  0.00000000000E+00  0.00000000000E+00  0.18314993428E+03  0.18314993428E+03  0.00000000000E+00 0.  1.
         21   -1    0    0  501  502 -0.00000000000E+00 -0.00000000000E+00 -0.36600859029E+03  0.36600859029E+03  0.00000000000E+00 0.  1.
         25    1    1    2    0    0 -0.14451421071E+02  0.78525938091E+01  0.55328205249E+02  0.13768339441E+03  0.12500000000E+03 0.  0.
         25    1    1    2    0    0  0.31685774379E+02 -0.64080670707E+02 -0.23217087326E+03  0.27320072300E+03  0.12500000000E+03 0.  0.
         25    1    1    2    0    0 -0.17234353308E+02  0.56228076897E+02 -0.60159879977E+01  0.13827440717E+03  0.12500000000E+03 0.  0.
</event>
<event>
 5    0  0.5648525E-005  0.2991376E+03  0.7546771E-02  0.1085673E+00
         21   -1    0    0  502  501  0.00000000000E+00  0.00000000000E+00  0.14138724234E+04  0.14138724234E+04  0.00000000000E+00 0. -1.
         21   -1    0    0  501  502 -0.00000000000E+00 -0.00000000000E+00 -0.63289511795E+02  0.63289511795E+02  0.00000000000E+00 0. -1.
         25    1    1    2    0    0 -0.93390773925E+02 -0.12136261226E+02  0.93358127794E+03  0.94660875129E+03  0.12500000000E+03 0.  0.
         25    1    1    2    0    0  0.74250526401E+02 -0.83613946535E+02  0.18742726161E+03  0.25151224845E+03  0.12500000000E+03 0.  0.
         25    1    1    2    0    0  0.19140247523E+02  0.95750207761E+02  0.22957437210E+03  0.27904093550E+03  0.12500000000E+03 0.  0.
</event>
<event>
 5    0  0.5648525E-005  0.3100946E+03  0.7546771E-02  0.1080301E+00
         21   -1    0    0  502  501  0.00000000000E+00  0.00000000000E+00  0.33389748679E+03  0.33389748679E+03  0.00000000000E+00 0. -1.
         21   -1    0    0  501  502 -0.00000000000E+00 -0.00000000000E+00 -0.28798859567E+03  0.28798859567E+03  0.00000000000E+00 0. -1.
         25    1    1    2    0    0 -0.24990260636E+02 -0.11943770099E+03  0.88021629972E+02  0.19560849902E+03  0.12500000000E+03 0.  0.
         25    1    1    2    0    0 -0.22743242410E+02 -0.98515379475E+02 -0.55757406521E+02  0.17016587040E+03  0.12500000000E+03 0.  0.
         25    1    1    2    0    0  0.47733503046E+02  0.21795308046E+03  0.13644667670E+02  0.25611171303E+03  0.12500000000E+03 0.  0.
</event>
<event>
 5    0  0.5648525E-005  0.2496842E+03  0.7546771E-02  0.1113505E+00
         21   -1    0    0  502  501  0.00000000000E+00  0.00000000000E+00  0.46706078384E+03  0.46706078384E+03  0.00000000000E+00 0.  1.
         21   -1    0    0  501  502 -0.00000000000E+00 -0.00000000000E+00 -0.13347768812E+03  0.13347768812E+03  0.00000000000E+00 0.  1.
         25    1    1    2    0    0 -0.10437165540E+02  0.21743514218E+02  0.12841397167E+03  0.18082273904E+03  0.12500000000E+03 0.  0.
         25    1    1    2    0    0  0.34765059887E+02 -0.93099493080E+02  0.22124789686E+03  0.27285849238E+03  0.12500000000E+03 0.  0.
         25    1    1    2    0    0 -0.24327894347E+02  0.71355978862E+02 -0.16078772813E+02  0.14685724054E+03  0.12500000000E+03 0.  0.
</event>
<event>
 5    0  0.5648525E-005  0.2802657E+03  0.7546771E-02  0.1095544E+00
         21   -1    0    0  502  501  0.00000000000E+00  0.00000000000E+00  0.17231653195E+03  0.17231653195E+03  0.00000000000E+00 0.  1.
         21   -1    0    0  501  502 -0.00000000000E+00 -0.00000000000E+00 -0.45584039762E+03  0.45584039762E+03  0.00000000000E+00 0.  1.
         25    1    1    2    0    0 -0.12799456773E+03  0.67853898121E+02 -0.23653545190E+03  0.30423803323E+03  0.12500000000E+03 0.  0.
         25    1    1    2    0    0  0.62091072717E+02  0.14074448411E+02 -0.73613513042E+02  0.15842140232E+03  0.12500000000E+03 0.  0.
         25    1    1    2    0    0  0.65903495009E+02 -0.81928346532E+02  0.26625099272E+02  0.16549749403E+03  0.12500000000E+03 0.  0.
</event>
<event>
 5    0  0.5648525E-005  0.2875929E+03  0.7546771E-02  0.1091613E+00
         21   -1    0    0  502  501  0.00000000000E+00  0.00000000000E+00  0.44075461058E+03  0.44075461058E+03  0.00000000000E+00 0.  1.
         21   -1    0    0  501  502 -0.00000000000E+00 -0.00000000000E+00 -0.18765474615E+03  0.18765474615E+03  0.00000000000E+00 0.  1.
         25    1    1    2    0    0  0.36821115018E+02  0.44986705625E+02  0.96488556499E+02  0.16826954487E+03  0.12500000000E+03 0.  0.
         25    1    1    2    0    0  0.14978685132E+03 -0.68384137510E+02  0.69511424001E+02  0.21810394118E+03  0.12500000000E+03 0.  0.
         25    1    1    2    0    0 -0.18660796634E+03  0.23397431885E+02  0.87099883934E+02  0.24203587069E+03  0.12500000000E+03 0.  0.
</event>
<event>
 5    0  0.5648525E-005  0.2579038E+03  0.7546771E-02  0.1108409E+00
         21   -1    0    0  502  501  0.00000000000E+00  0.00000000000E+00  0.41793334375E+03  0.41793334375E+03  0.00000000000E+00 0. -1.
         21   -1    0    0  501  502 -0.00000000000E+00 -0.00000000000E+00 -0.15915070946E+03  0.15915070946E+03  0.00000000000E+00 0. -1.
         25    1    1    2    0    0  0.10255065176E+03 -0.75073801133E+02  0.17532627187E+03  0.25003402449E+03  0.12500000000E+03 0.  0.
         25    1    1    2    0    0 -0.68802784001E+02  0.11734806195E+02  0.10992824205E+03  0.18050137718E+03  0.12500000000E+03 0.  0.
         25    1    1    2    0    0 -0.33747867761E+02  0.63338994938E+02 -0.26471879639E+02  0.14654865155E+03  0.12500000000E+03 0.  0.
</event>
<event>
 5    0  0.6468990E-005  0.3550766E+03  0.7546771E-02  0.1060550E+00
         21   -1    0    0  502  501  0.00000000000E+00  0.00000000000E+00  0.25204910081E+03  0.25204910081E+03  0.00000000000E+00 0. -1.
         21   -1    0    0  501  502 -0.00000000000E+00 -0.00000000000E+00 -0.50021756611E+03  0.50021756611E+03  0.00000000000E+00 0. -1.
         25    1    1    2    0    0  0.13204505528E+03 -0.13675896259E+03 -0.21287357654E+02  0.22851052945E+03  0.12500000000E+03 0.  0.
         25    1    1    2    0    0  0.12327322374E+01  0.16984981396E+03 -0.26037047068E+03  0.33506456234E+03  0.12500000000E+03 0.  0.
         25    1    1    2    0    0 -0.13327778752E+03 -0.33090851371E+02  0.33489363038E+02  0.18869157514E+03  0.12500000000E+03 0.  0.
</event>
<event>
 5    0  0.5648525E-005  0.3167039E+03  0.7546771E-02  0.1077176E+00
         21   -1    0    0  502  501  0.00000000000E+00  0.00000000000E+00  0.97979495062E+02  0.97979495062E+02  0.00000000000E+00 0.  1.
         21   -1    0    0  501  502 -0.00000000000E+00 -0.00000000000E+00 -0.10236972973E+04  0.10236972973E+04  0.00000000000E+00 0.  1.
         25    1    1    2    0    0 -0.15937953638E+02 -0.18554600917E+03 -0.57646476402E+03  0.61856120477E+03  0.12500000000E+03 0.  0.
         25    1    1    2    0    0  0.56499897781E+02  0.14948665758E+03 -0.29139077164E+03  0.35506630514E+03  0.12500000000E+03 0.  0.
         25    1    1    2    0    0 -0.40561944143E+02  0.36059351590E+02 -0.57862266607E+02  0.14804928249E+03  0.12500000000E+03 0.  0.
</event>
<event>
 5    0  0.5648525E-005  0.2646616E+03  0.7546771E-02  0.1104374E+00
         21   -1    0    0  502  501  0.00000000000E+00  0.00000000000E+00  0.59014314140E+02  0.59014314140E+02  0.00000000000E+00 0. -1.
         21   -1    0    0  501  502 -0.00000000000E+00 -0.00000000000E+00 -0.11869283125E+04  0.11869283125E+04  0.00000000000E+00 0. -1.
         25    1    1    2    0    0  0.89437280176E+01 -0.41700233466E+02 -0.16136707691E+03  0.20852633707E+03  0.12500000000E+03 0.  0.
         25    1    1    2    0    0  0.90951267751E+02  0.11910596571E+01 -0.74651871537E+03  0.76235735986E+03  0.12500000000E+03 0.  0.
         25    1    1    2    0    0 -0.99894995768E+02  0.40509173809E+02 -0.22002820607E+03  0.27505892970E+03  0.12500000000E+03 0.  0.
</event>
<event>
 5    0  0.5648525E-005  0.2251603E+03  0.7546771E-02  0.1130093E+00
         21   -1    0    0  502  501  0.00000000000E+00  0.00000000000E+00  0.30594260901E+02  0.30594260901E+02  0.00000000000E+00 0.  1.
         21   -1    0    0  501  502 -0.00000000000E+00 -0.00000000000E+00 -0.16570804162E+04  0.16570804162E+04  0.00000000000E+00 0.  1.
         25    1    1    2    0    0  0.48870419596E+02 -0.91405367038E+01 -0.42907631417E+03  0.44967026887E+03  0.12500000000E+03 0.  0.
         25    1    1    2    0    0 -0.55849493753E+02 -0.68165709907E+02 -0.42442423694E+03  0.45113929430E+03  0.12500000000E+03 0.  0.
         25    1    1    2    0    0  0.69790741576E+01  0.77306246611E+02 -0.77298560419E+03  0.78686511393E+03  0.12500000000E+03 0.  0.
</event>
<event>
 5    0  0.5648525E-005  0.3741249E+03  0.7546771E-02  0.1053127E+00
         21   -1    0    0  502  501  0.00000000000E+00  0.00000000000E+00  0.21557918131E+03  0.21557918131E+03  0.00000000000E+00 0.  1.
         21   -1    0    0  501  502 -0.00000000000E+00 -0.00000000000E+00 -0.64927146603E+03  0.64927146603E+03  0.00000000000E+00 0.  1.
         25    1    1    2    0    0 -0.66289943829E+02 -0.72208128428E+02 -0.41261785030E+01  0.15890373127E+03  0.12500000000E+03 0.  0.
         25    1    1    2    0    0  0.21121282041E+03  0.20812529924E+03 -0.28783038723E+03  0.43173872597E+03  0.12500000000E+03 0.  0.
         25    1    1    2    0    0 -0.14492287658E+03 -0.13591717081E+03 -0.14173571899E+03  0.27420819009E+03  0.12500000000E+03 0.  0.
</event>
<event>
 5    0  0.5648525E-005  0.4830190E+03  0.7546771E-02  0.1018309E+00
         21   -1    0    0  502  501  0.00000000000E+00  0.00000000000E+00  0.14580609318E+04  0.14580609318E+04  0.00000000000E+00 0. -1.
         21   -1    0    0  501  502 -0.00000000000E+00 -0.00000000000E+00 -0.16001204233E+03  0.16001204233E+03  0.00000000000E+00 0. -1.
         25    1    1    2    0    0  0.17342954457E+03 -0.13648532530E+03  0.95330764288E+03  0.98647174969E+03  0.12500000000E+03 0.  0.
         25    1    1    2    0    0 -0.27534053106E+03  0.56458934114E+02  0.91593441200E+02  0.32095852965E+03  0.12500000000E+03 0.  0.
         25    1    1    2    0    0  0.10191098649E+03  0.80026391184E+02  0.25314780535E+03  0.31064269476E+03  0.12500000000E+03 0.  0.
</event>
<event>
 5    0  0.5685670E-005  0.6336623E+03  0.7546771E-02  0.9837928E-01
         21   -1    0    0  502  501  0.00000000000E+00  0.00000000000E+00  0.11314016882E+04  0.11314016882E+04  0.00000000000E+00 0.  1.
         21   -1    0    0  501  502 -0.00000000000E+00 -0.00000000000E+00 -0.35489424387E+03  0.35489424387E+03  0.00000000000E+00 0.  1.
         25    1    1    2    0    0  0.10818080072E+03 -0.35238272274E+03 -0.71988796325E+02  0.39583336864E+03  0.12500000000E+03 0.  0.
         25    1    1    2    0    0  0.10993340139E+03  0.29468703900E+03  0.20137100415E+03  0.39382875086E+03  0.12500000000E+03 0.  0.
         25    1    1    2    0    0 -0.21811420211E+03  0.57695683743E+02  0.64712523646E+03  0.69663381252E+03  0.12500000000E+03 0.  0.
</event>
<event>
 5    0  0.5648525E-005  0.3134696E+03  0.7546771E-02  0.1078695E+00
         21   -1    0    0  502  501  0.00000000000E+00  0.00000000000E+00  0.97164411357E+02  0.97164411357E+02  0.00000000000E+00 0.  1.
         21   -1    0    0  501  502 -0.00000000000E+00 -0.00000000000E+00 -0.10113082934E+04  0.10113082934E+04  0.00000000000E+00 0.  1.
         25    1    1    2    0    0  0.52315009227E+02  0.19019214533E+03 -0.27589015923E+03  0.36145579577E+03  0.12500000000E+03 0.  0.
         25    1    1    2    0    0 -0.12414606824E+02  0.20035408696E+02 -0.13173223895E+03  0.18312269888E+03  0.12500000000E+03 0.  0.
         25    1    1    2    0    0 -0.39900402403E+02 -0.21022755402E+03 -0.50652148382E+03  0.56389421007E+03  0.12500000000E+03 0.  0.
</event>
<event>
 5    0  0.5648525E-005  0.5990856E+03  0.7546771E-02  0.9907305E-01
         21   -1    0    0  502  501  0.00000000000E+00  0.00000000000E+00  0.12996801770E+03  0.12996801770E+03  0.00000000000E+00 0.  1.
         21   -1    0    0  501  502 -0.00000000000E+00 -0.00000000000E+00 -0.27614759126E+04  0.27614759126E+04  0.00000000000E+00 0.  1.
         25    1    1    2    0    0  0.25300166921E+03 -0.17851719091E+03 -0.27048937572E+03  0.42972983891E+03  0.12500000000E+03 0.  0.
         25    1    1    2    0    0 -0.32596375932E+03  0.19319145922E+03 -0.80048291336E+03  0.89441221307E+03  0.12500000000E+03 0.  0.
         25    1    1    2    0    0  0.72962090106E+02 -0.14674268309E+02 -0.15605356059E+04  0.15673018784E+04  0.12500000000E+03 0.  0.
</event>
<event>
 5    0  0.5648525E-005  0.3580607E+03  0.7546771E-02  0.1059354E+00
         21   -1    0    0  502  501  0.00000000000E+00  0.00000000000E+00  0.78438706203E+03  0.78438706203E+03  0.00000000000E+00 0. -1.
         21   -1    0    0  501  502 -0.00000000000E+00 -0.00000000000E+00 -0.16344924222E+03  0.16344924222E+03  0.00000000000E+00 0. -1.
         25    1    1    2    0    0  0.18551780577E+03 -0.58989939102E+01  0.20327963421E+03  0.30232311204E+03  0.12500000000E+03 0.  0.
         25    1    1    2    0    0 -0.28677301659E+03  0.40741937609E+02  0.33902265755E+03  0.46309829502E+03  0.12500000000E+03 0.  0.
         25    1    1    2    0    0  0.10125521082E+03 -0.34842943699E+02  0.78635528058E+02  0.18241489719E+03  0.12500000000E+03 0.  0.
</event>
<event>
 5    0  0.5648525E-005  0.2478049E+03  0.7546771E-02  0.1114700E+00
         21   -1    0    0  502  501  0.00000000000E+00  0.00000000000E+00  0.20550889542E+03  0.20550889542E+03  0.00000000000E+00 0.  1.
         21   -1    0    0  501  502 -0.00000000000E+00 -0.00000000000E+00 -0.29880581089E+03  0.29880581089E+03  0.00000000000E+00 0.  1.
         25    1    1    2    0    0  0.32534270737E+01  0.46497060993E+02 -0.10680863777E+03  0.17089659614E+03  0.12500000000E+03 0.  0.
         25    1    1    2    0    0  0.95718703642E+02 -0.39772210450E+02  0.49633893735E+02  0.16980112590E+03  0.12500000000E+03 0.  0.
         25    1    1    2    0    0 -0.98972130716E+02 -0.67248505428E+01 -0.36122171428E+02  0.16361698427E+03  0.12500000000E+03 0.  0.
</event>
<event>
 5    0  0.5648525E-005  0.2346386E+03  0.7546771E-02  0.1123417E+00
         21   -1    0    0  502  501  0.00000000000E+00  0.00000000000E+00  0.10789780412E+03  0.10789780412E+03  0.00000000000E+00 0. -1.
         21   -1    0    0  501  502 -0.00000000000E+00 -0.00000000000E+00 -0.51025399433E+03  0.51025399433E+03  0.00000000000E+00 0. -1.
         25    1    1    2    0    0 -0.88929738722E+02  0.59345246869E+02 -0.11528246290E+03  0.20086165141E+03  0.12500000000E+03 0.  0.
         25    1    1    2    0    0 -0.23693159945E+01  0.21288850996E+02 -0.14148847275E+03  0.19000741237E+03  0.12500000000E+03 0.  0.
         25    1    1    2    0    0  0.91299054716E+02 -0.80634097865E+02 -0.14558525457E+03  0.22728273467E+03  0.12500000000E+03 0.  0.
</event>
<event>
 5    0  0.5648525E-005  0.2923610E+03  0.7546771E-02  0.1089123E+00
         21   -1    0    0  502  501  0.00000000000E+00  0.00000000000E+00  0.58489346987E+02  0.58489346987E+02  0.00000000000E+00 0. -1.
         21   -1    0    0  501  502 -0.00000000000E+00 -0.00000000000E+00 -0.14613766945E+04  0.14613766945E+04  0.00000000000E+00 0. -1.
         25    1    1    2    0    0 -0.53298386116E+02 -0.13152210845E+03 -0.72284368603E+03  0.74717252185E+03  0.12500000000E+03 0.  0.
         25    1    1    2    0    0 -0.27542747441E+02  0.13179681171E+03 -0.20696567595E+03  0.27674680402E+03  0.12500000000E+03 0.  0.
         25    1    1    2    0    0  0.80841133557E+02 -0.27470325892E+00 -0.47307798552E+03  0.49594671561E+03  0.12500000000E+03 0.  0.
</event>
<event>
 5    0  0.5648525E-005  0.3405473E+03  0.7546771E-02  0.1066563E+00
         21   -1    0    0  502  501  0.00000000000E+00  0.00000000000E+00  0.11917662815E+04  0.11917662815E+04  0.00000000000E+00 0. -1.
         21   -1    0    0  501  502 -0.00000000000E+00 -0.00000000000E+00 -0.97311402621E+02  0.97311402621E+02  0.00000000000E+00 0. -1.
         25    1    1    2    0    0  0.55196138024E+02  0.89950311453E+02  0.23928172187E+03  0.28985930139E+03  0.12500000000E+03 0.  0.
         25    1    1    2    0    0 -0.26688158072E+02 -0.75520761479E+02  0.85742178897E+03  0.87017973282E+03  0.12500000000E+03 0.  0.
         25    1    1    2    0    0 -0.28507979953E+02 -0.14429549974E+02 -0.22486319335E+01  0.12903864994E+03  0.12500000000E+03 0.  0.
</event>
<event>
 5    0  0.5648525E-005  0.3296785E+03  0.7546771E-02  0.1071279E+00
         21   -1    0    0  502  501  0.00000000000E+00  0.00000000000E+00  0.10609124617E+04  0.10609124617E+04  0.00000000000E+00 0. -1.
         21   -1    0    0  501  502 -0.00000000000E+00 -0.00000000000E+00 -0.10244758794E+03  0.10244758794E+03  0.00000000000E+00 0. -1.
         25    1    1    2    0    0 -0.42975500104E+01  0.78136302529E+02 -0.13412952293E+02  0.14808328062E+03  0.12500000000E+03 0.  0.
         25    1    1    2    0    0  0.15913262489E+02 -0.31407505479E+02  0.25689122691E+03  0.28785024890E+03  0.12500000000E+03 0.  0.
         25    1    1    2    0    0 -0.11615712479E+02 -0.46728797051E+02  0.71498659911E+03  0.72742652011E+03  0.12500000000E+03 0.  0.
</event>
<event>
 5    0  0.5648525E-005  0.3424385E+03  0.7546771E-02  0.1065762E+00
         21   -1    0    0  502  501  0.00000000000E+00  0.00000000000E+00  0.10873285220E+04  0.10873285220E+04  0.00000000000E+00 0.  1.
         21   -1    0    0  501  502 -0.00000000000E+00 -0.00000000000E+00 -0.10784608509E+03  0.10784608509E+03  0.00000000000E+00 0.  1.
         25    1    1    2    0    0 -0.18695390014E+03  0.16732381368E+03  0.27515807363E+03  0.39279254688E+03  0.12500000000E+03 0.  0.
         25    1    1    2    0    0  0.18203137670E+03 -0.10981699595E+03  0.44431001677E+03  0.50816491979E+03  0.12500000000E+03 0.  0.
         25    1    1    2    0    0  0.49225234423E+01 -0.57506817731E+02  0.26001434656E+03  0.29421714045E+03  0.12500000000E+03 0.  0.
</event>
<event>
 5    0  0.5648525E-005  0.4819539E+03  0.7546771E-02  0.1018600E+00
         21   -1    0    0  502  501  0.00000000000E+00  0.00000000000E+00  0.37812411499E+03  0.37812411499E+03  0.00000000000E+00 0. -1.
         21   -1    0    0  501  502 -0.00000000000E+00 -0.00000000000E+00 -0.61429450226E+03  0.61429450226E+03  0.00000000000E+00 0. -1.
         25    1    1    2    0    0 -0.13920216851E+03 -0.90989162003E+02 -0.31513308499E+03  0.37761108640E+03  0.12500000000E+03 0.  0.
         25    1    1    2    0    0  0.17189147039E+03 -0.82121042779E+02 -0.17067637433E+03  0.28468573553E+03  0.12500000000E+03 0.  0.
         25    1    1    2    0    0 -0.32689301876E+02  0.17311020478E+03  0.24963907204E+03  0.33012179532E+03  0.12500000000E+03 0.  0.
</event>
<event>
 5    0  0.5648525E-005  0.2353976E+03  0.7546771E-02  0.1122897E+00
         21   -1    0    0  502  501  0.00000000000E+00  0.00000000000E+00  0.87164394356E+02  0.87164394356E+02  0.00000000000E+00 0.  1.
         21   -1    0    0  501  502 -0.00000000000E+00 -0.00000000000E+00 -0.63571845691E+03  0.63571845691E+03  0.00000000000E+00 0.  1.
         25    1    1    2    0    0  0.29945875262E+02 -0.22152265881E+02 -0.19961626337E+03  0.23845152743E+03  0.12500000000E+03 0.  0.
         25    1    1    2    0    0  0.70884643327E+02 -0.44697137462E+02 -0.22559952356E+03  0.27118741082E+03  0.12500000000E+03 0.  0.
         25    1    1    2    0    0 -0.10083051859E+03  0.66849403343E+02 -0.12333827562E+03  0.21324391302E+03  0.12500000000E+03 0.  0.
</event>
<event>
 5    0  0.5648525E-005  0.2550950E+03  0.7546771E-02  0.1110127E+00
         21   -1    0    0  502  501  0.00000000000E+00  0.00000000000E+00  0.29759757055E+03  0.29759757055E+03  0.00000000000E+00 0. -1.
         21   -1    0    0  501  502 -0.00000000000E+00 -0.00000000000E+00 -0.21866261082E+03  0.21866261082E+03  0.00000000000E+00 0. -1.
         25    1    1    2    0    0  0.82708723169E+02 -0.84099656520E+01 -0.85465915006E+02  0.17274513897E+03  0.12500000000E+03 0.  0.
         25    1    1    2    0    0 -0.44654968211E+02  0.77257104202E+02  0.92018090046E+02  0.17903925612E+03  0.12500000000E+03 0.  0.
         25    1    1    2    0    0 -0.38053754957E+02 -0.68847138550E+02  0.72382784697E+02  0.16447578628E+03  0.12500000000E+03 0.  0.
</event>
<event>
 5    0  0.5648525E-005  0.2203267E+03  0.7546771E-02  0.1133640E+00
         21   -1    0    0  502  501  0.00000000000E+00  0.00000000000E+00  0.30407408598E+03  0.30407408598E+03  0.00000000000E+00 0.  1.
         21   -1    0    0  501  502 -0.00000000000E+00 -0.00000000000E+00 -0.15964475800E+03  0.15964475800E+03  0.00000000000E+00 0.  1.
         25    1    1    2    0    0  0.51515301129E+01 -0.15136095283E+02  0.11551239818E+03  0.17094956500E+03  0.12500000000E+03 0.  0.
         25    1    1    2    0    0 -0.94969803165E+01  0.75337891724E+02  0.45019773292E+02  0.15302865925E+03  0.12500000000E+03 0.  0.
         25    1    1    2    0    0  0.43454502036E+01 -0.60201796441E+02 -0.16102843487E+02  0.13974061972E+03  0.12500000000E+03 0.  0.
</event>
<event>
 5    0  0.5648525E-005  0.2813484E+03  0.7546771E-02  0.1094955E+00
         21   -1    0    0  502  501  0.00000000000E+00  0.00000000000E+00  0.43218571313E+03  0.43218571313E+03  0.00000000000E+00 0.  1.
         21   -1    0    0  501  502 -0.00000000000E+00 -0.00000000000E+00 -0.18315493450E+03  0.18315493450E+03  0.00000000000E+00 0.  1.
         25    1    1    2    0    0  0.45978734344E+01  0.77059756186E+02  0.81234112776E+00  0.14691836632E+03  0.12500000000E+03 0.  0.
         25    1    1    2    0    0 -0.11611626690E+03 -0.11579935069E+02  0.23147081459E+03  0.28778606697E+03  0.12500000000E+03 0.  0.
         25    1    1    2    0    0  0.11151839347E+03 -0.65479821117E+02  0.16747622908E+02  0.18063621433E+03  0.12500000000E+03 0.  0.
</event>
<event>
 5    0  0.6045797E-005  0.3161644E+03  0.7546771E-02  0.1077428E+00
         21   -1    0    0  502  501  0.00000000000E+00  0.00000000000E+00  0.25067537388E+03  0.25067537388E+03  0.00000000000E+00 0.  1.
         21   -1    0    0  501  502 -0.00000000000E+00 -0.00000000000E+00 -0.39876237166E+03  0.39876237166E+03  0.00000000000E+00 0.  1.
         25    1    1    2    0    0 -0.35338780927E+02 -0.14654541983E+03  0.75578915135E+02  0.20990846082E+03  0.12500000000E+03 0.  0.
         25    1    1    2    0    0 -0.26466021421E+02  0.92970362946E+00 -0.19889035732E+03  0.23639731147E+03  0.12500000000E+03 0.  0.
         25    1    1    2    0    0  0.61804802348E+02  0.14561571620E+03 -0.24775555606E+02  0.20313197324E+03  0.12500000000E+03 0.  0.
</event>
<event>
 5    0  0.5648525E-005  0.3512030E+03  0.7546771E-02  0.1062122E+00
         21   -1    0    0  502  501  0.00000000000E+00  0.00000000000E+00  0.11721943022E+04  0.11721943022E+04  0.00000000000E+00 0. -1.
         21   -1    0    0  501  502 -0.00000000000E+00 -0.00000000000E+00 -0.10522445998E+03  0.10522445998E+03  0.00000000000E+00 0. -1.
         25    1    1    2    0    0 -0.10699051716E+03 -0.13967465373E+03  0.33106653544E+03  0.39520378357E+03  0.12500000000E+03 0.  0.
         25    1    1    2    0    0  0.97532338442E+02  0.21818002892E+03  0.66616075792E+03  0.71868646672E+03  0.12500000000E+03 0.  0.
         25    1    1    2    0    0  0.94581787208E+01 -0.78505375183E+02  0.69742548849E+02  0.16352851188E+03  0.12500000000E+03 0.  0.
</event>
<event>
 5    0  0.5648525E-005  0.7431859E+03  0.7546771E-02  0.9646102E-01
         21   -1    0    0  502  501  0.00000000000E+00  0.00000000000E+00  0.36981206182E+03  0.36981206182E+03  0.00000000000E+00 0. -1.
         21   -1    0    0  501  502 -0.00000000000E+00 -0.00000000000E+00 -0.14935297097E+04  0.14935297097E+04  0.00000000000E+00 0. -1.
         25    1    1    2    0    0  0.35170824306E+03 -0.20624805953E+03 -0.76564142263E+03  0.87639530940E+03  0.12500000000E+03 0.  0.
         25    1    1    2    0    0 -0.31396325563E+03  0.45199571287E+03 -0.42140433651E+02  0.56592743925E+03  0.12500000000E+03 0.  0.
         25    1    1    2    0    0 -0.37744987429E+02 -0.24574765334E+03 -0.31593579159E+03  0.42101902285E+03  0.12500000000E+03 0.  0.
</event>
<event>
 5    0  0.5648525E-005  0.3635923E+03  0.7546771E-02  0.1057170E+00
         21   -1    0    0  502  501  0.00000000000E+00  0.00000000000E+00  0.47255926188E+03  0.47255926188E+03  0.00000000000E+00 0.  1.
         21   -1    0    0  501  502 -0.00000000000E+00 -0.00000000000E+00 -0.27975193379E+03  0.27975193379E+03  0.00000000000E+00 0.  1.
         25    1    1    2    0    0  0.17100400247E+03 -0.73989127505E+01  0.19278898186E+03  0.28651300895E+03  0.12500000000E+03 0.  0.
         25    1    1    2    0    0 -0.12544411833E+03  0.41460765258E+02 -0.16882266052E+03  0.24815582319E+03  0.12500000000E+03 0.  0.
         25    1    1    2    0    0 -0.45559884143E+02 -0.34061852507E+02  0.16884100675E+03  0.21764236353E+03  0.12500000000E+03 0.  0.
</event>
<event>
 5    0  0.5648525E-005  0.5820245E+03  0.7546771E-02  0.9943418E-01
         21   -1    0    0  502  501  0.00000000000E+00  0.00000000000E+00  0.22839784292E+04  0.22839784292E+04  0.00000000000E+00 0. -1.
         21   -1    0    0  501  502 -0.00000000000E+00 -0.00000000000E+00 -0.14831684396E+03  0.14831684396E+03  0.00000000000E+00 0. -1.
         25    1    1    2    0    0 -0.35409367371E+03  0.29534113165E+03  0.13171835738E+04  0.14011446324E+04  0.12500000000E+03 0.  0.
         25    1    1    2    0    0  0.20176154573E+03  0.35008801686E+02  0.36097729382E+03  0.43343159113E+03  0.12500000000E+03 0.  0.
         25    1    1    2    0    0  0.15233212797E+03 -0.33034993334E+03  0.45750071758E+03  0.59771904960E+03  0.12500000000E+03 0.  0.
</event>
<event>
 5    0  0.5648525E-005  0.3008831E+03  0.7546771E-02  0.1084800E+00
         21   -1    0    0  502  501  0.00000000000E+00  0.00000000000E+00  0.23640586276E+03  0.23640586276E+03  0.00000000000E+00 0. -1.
         21   -1    0    0  501  502 -0.00000000000E+00 -0.00000000000E+00 -0.38294593378E+03  0.38294593378E+03  0.00000000000E+00 0. -1.
         25    1    1    2    0    0 -0.12221112691E+03  0.13947069251E+03 -0.13724084441E+03  0.26238842007E+03  0.12500000000E+03 0.  0.
         25    1    1    2    0    0  0.72539138342E+02  0.13516310878E+01 -0.58798361856E+02  0.15603205073E+03  0.12500000000E+03 0.  0.
         25    1    1    2    0    0  0.49671988566E+02 -0.14082232360E+03  0.49499135249E+02  0.20093132574E+03  0.12500000000E+03 0.  0.
</event>
<event>
 5    0  0.5648525E-005  0.3475139E+03  0.7546771E-02  0.1063640E+00
         21   -1    0    0  502  501  0.00000000000E+00  0.00000000000E+00  0.81172376060E+03  0.81172376060E+03  0.00000000000E+00 0. -1.
         21   -1    0    0  501  502 -0.00000000000E+00 -0.00000000000E+00 -0.14877710462E+03  0.14877710462E+03  0.00000000000E+00 0. -1.
         25    1    1    2    0    0  0.12867004096E+02  0.13243179821E+02 -0.34819516520E+02  0.13106616778E+03  0.12500000000E+03 0.  0.
         25    1    1    2    0    0  0.32661493397E+02  0.15193769044E+03  0.50451352753E+03  0.54250413306E+03  0.12500000000E+03 0.  0.
         25    1    1    2    0    0 -0.45528497493E+02 -0.16518087026E+03  0.19325264497E+03  0.28693056438E+03  0.12500000000E+03 0.  0.
</event>
<event>
 5    0  0.5648525E-005  0.2549623E+03  0.7546771E-02  0.1110208E+00
         21   -1    0    0  502  501  0.00000000000E+00  0.00000000000E+00  0.65565621016E+03  0.65565621016E+03  0.00000000000E+00 0.  1.
         21   -1    0    0  501  502 -0.00000000000E+00 -0.00000000000E+00 -0.99146095717E+02  0.99146095717E+02  0.00000000000E+00 0.  1.
         25    1    1    2    0    0 -0.67705329802E+02  0.13316426760E+03  0.21888362354E+03  0.29300473461E+03  0.12500000000E+03 0.  0.
         25    1    1    2    0    0  0.42955822741E+02 -0.53204443593E+02  0.24986254929E+03  0.28763207238E+03  0.12500000000E+03 0.  0.
         25    1    1    2    0    0  0.24749507060E+02 -0.79959824009E+02  0.87763941621E+02  0.17416549889E+03  0.12500000000E+03 0.  0.
</event>
<event>
 5    0  0.5648525E-005  0.4449682E+03  0.7546771E-02  0.1029233E+00
         21   -1    0    0  502  501  0.00000000000E+00  0.00000000000E+00  0.43986352210E+03  0.43986352210E+03  0.00000000000E+00 0.  1.
         21   -1    0    0  501  502 -0.00000000000E+00 -0.00000000000E+00 -0.45013207448E+03  0.45013207448E+03  0.00000000000E+00 0.  1.
         25    1    1    2    0    0  0.26036769206E+03 -0.28045806143E+03 -0.39202222730E+02  0.40448717354E+03  0.12500000000E+03 0.  0.
         25    1    1    2    0    0 -0.84511297652E+02  0.20077524386E+03  0.44158097930E+02  0.25500548149E+03  0.12500000000E+03 0.  0.
         25    1    1    2    0    0 -0.17585639441E+03  0.79682817573E+02 -0.15224427582E+02  0.23050294156E+03  0.12500000000E+03 0.  0.
</event>
<event>
 5    0  0.5648525E-005  0.4197103E+03  0.7546771E-02  0.1037161E+00
         21   -1    0    0  502  501  0.00000000000E+00  0.00000000000E+00  0.18183538438E+04  0.18183538438E+04  0.00000000000E+00 0. -1.
         21   -1    0    0  501  502 -0.00000000000E+00 -0.00000000000E+00 -0.96877041849E+02  0.96877041849E+02  0.00000000000E+00 0. -1.
         25    1    1    2    0    0  0.49510685838E+02 -0.18936133273E+03  0.82074945477E+03  0.85297344029E+03  0.12500000000E+03 0.  0.
         25    1    1    2    0    0 -0.30004963337E+02 -0.83974100509E+02  0.52714836428E+02  0.16234469921E+03  0.12500000000E+03 0.  0.
         25    1    1    2    0    0 -0.19505722501E+02  0.27333543324E+03  0.84801251073E+03  0.89991274612E+03  0.12500000000E+03 0.  0.
</event>
<event>
 5    0  0.5648525E-005  0.3150882E+03  0.7546771E-02  0.1077932E+00
         21   -1    0    0  502  501  0.00000000000E+00  0.00000000000E+00  0.15777265441E+04  0.15777265441E+04  0.00000000000E+00 0.  1.
         21   -1    0    0  501  502 -0.00000000000E+00 -0.00000000000E+00 -0.62926355598E+02  0.62926355598E+02  0.00000000000E+00 0.  1.
         25    1    1    2    0    0  0.86614854304E+02  0.18295424145E+03  0.65931616198E+03  0.70092595108E+03  0.12500000000E+03 0.  0.
         25    1    1    2    0    0 -0.18727958907E+02 -0.11855907110E+03  0.19429286016E+03  0.26034919876E+03  0.12500000000E+03 0.  0.
         25    1    1    2    0    0 -0.67886895397E+02 -0.64395170343E+02  0.66119116636E+03  0.67937774986E+03  0.12500000000E+03 0.  0.
</event>
<event>
 5    0  0.6634249E-005  0.3452284E+03  0.7546771E-02  0.1064591E+00
         21   -1    0    0  502  501  0.00000000000E+00  0.00000000000E+00  0.46304824302E+03  0.46304824302E+03  0.00000000000E+00 0. -1.
         21   -1    0    0  501  502 -0.00000000000E+00 -0.00000000000E+00 -0.25738707030E+03  0.25738707030E+03  0.00000000000E+00 0. -1.
         25    1    1    2    0    0 -0.45440779593E+02  0.98179841148E+02  0.24465038922E+03  0.29526760507E+03  0.12500000000E+03 0.  0.
         25    1    1    2    0    0  0.26358505541E+01 -0.21171593655E+03  0.33119711209E+01  0.24589948078E+03  0.12500000000E+03 0.  0.
         25    1    1    2    0    0  0.42804929039E+02  0.11353609540E+03 -0.42301187617E+02  0.17926822748E+03  0.12500000000E+03 0.  0.
</event>
<event>
 5    0  0.5648525E-005  0.2716687E+03  0.7546771E-02  0.1100328E+00
         21   -1    0    0  502  501  0.00000000000E+00  0.00000000000E+00  0.21706047033E+04  0.21706047033E+04  0.00000000000E+00 0. -1.
         21   -1    0    0  501  502 -0.00000000000E+00 -0.00000000000E+00 -0.34001536499E+02  0.34001536499E+02  0.00000000000E+00 0. -1.
         25    1    1    2    0    0  0.19203019691E+01 -0.62730273906E+02  0.55225861719E+03  0.56969584436E+03  0.12500000000E+03 0.  0.
         25    1    1    2    0    0  0.10787651945E+03  0.21643061727E+02  0.12308716227E+04  0.12420852294E+04  0.12500000000E+03 0.  0.
         25    1    1    2    0    0 -0.10979682142E+03  0.41087212178E+02  0.35347292693E+03  0.39282516604E+03  0.12500000000E+03 0.  0.
</event>
<event>
 5    0  0.5950659E-005  0.3915469E+03  0.7546771E-02  0.1046747E+00
         21   -1    0    0  502  501  0.00000000000E+00  0.00000000000E+00  0.69179478450E+03  0.69179478450E+03  0.00000000000E+00 0. -1.
         21   -1    0    0  501  502 -0.00000000000E+00 -0.00000000000E+00 -0.22161052532E+03  0.22161052532E+03  0.00000000000E+00 0. -1.
         25    1    1    2    0    0  0.34307311882E+02 -0.93976332209E+02  0.32177549902E+03  0.35940647522E+03  0.12500000000E+03 0.  0.
         25    1    1    2    0    0  0.13649113112E+03 -0.75072742327E+02 -0.64045244936E+02  0.20974398421E+03  0.12500000000E+03 0.  0.
         25    1    1    2    0    0 -0.17079844300E+03  0.16904907454E+03  0.21245400509E+03  0.34425485039E+03  0.12500000000E+03 0.  0.
</event>
<event>
 5    0  0.5648525E-005  0.3865273E+03  0.7546771E-02  0.1048547E+00
         21   -1    0    0  502  501  0.00000000000E+00  0.00000000000E+00  0.15533821054E+03  0.15533821054E+03  0.00000000000E+00 0.  1.
         21   -1    0    0  501  502 -0.00000000000E+00 -0.00000000000E+00 -0.96179383687E+03  0.96179383687E+03  0.00000000000E+00 0.  1.
         25    1    1    2    0    0 -0.12277109909E+03  0.10914255768E+03 -0.48999563889E+02  0.21215748379E+03  0.12500000000E+03 0.  0.
         25    1    1    2    0    0  0.25987333093E+03 -0.22360229582E+02 -0.47353936472E+03  0.55488616665E+03  0.12500000000E+03 0.  0.
         25    1    1    2    0    0 -0.13710223184E+03 -0.86782328095E+02 -0.28391669772E+03  0.35008839697E+03  0.12500000000E+03 0.  0.
</event>
<event>
 5    0  0.5648525E-005  0.3148234E+03  0.7546771E-02  0.1078057E+00
         21   -1    0    0  502  501  0.00000000000E+00  0.00000000000E+00  0.54186074583E+03  0.54186074583E+03  0.00000000000E+00 0. -1.
         21   -1    0    0  501  502 -0.00000000000E+00 -0.00000000000E+00 -0.18291375458E+03  0.18291375458E+03  0.00000000000E+00 0. -1.
         25    1    1    2    0    0  0.57983569620E+01  0.43652654386E+02  0.24055317981E+02  0.13469533586E+03  0.12500000000E+03 0.  0.
         25    1    1    2    0    0  0.12970873423E+02 -0.23183083934E+02 -0.83419199917E+02  0.15260885247E+03  0.12500000000E+03 0.  0.
         25    1    1    2    0    0 -0.18769230385E+02 -0.20469570453E+02  0.41831087319E+03  0.43747031208E+03  0.12500000000E+03 0.  0.
</event>
<event>
 5    0  0.5648525E-005  0.3164697E+03  0.7546771E-02  0.1077286E+00
         21   -1    0    0  502  501  0.00000000000E+00  0.00000000000E+00  0.58713242180E+03  0.58713242180E+03  0.00000000000E+00 0. -1.
         21   -1    0    0  501  502 -0.00000000000E+00 -0.00000000000E+00 -0.17058003742E+03  0.17058003742E+03  0.00000000000E+00 0. -1.
         25    1    1    2    0    0 -0.27065260488E+02 -0.84915457482E+02  0.12304688713E+03  0.19674526596E+03  0.12500000000E+03 0.  0.
         25    1    1    2    0    0  0.45720302986E+02 -0.11546470459E+03 -0.93596276333E+01  0.17645125882E+03  0.12500000000E+03 0.  0.
         25    1    1    2    0    0 -0.18655042498E+02  0.20038016207E+03  0.30286512488E+03  0.38451593443E+03  0.12500000000E+03 0.  0.
</event>
<event>
 5    0  0.5648525E-005  0.4501153E+03  0.7546771E-02  0.1027688E+00
         21   -1    0    0  502  501  0.00000000000E+00  0.00000000000E+00  0.15917040498E+04  0.15917040498E+04  0.00000000000E+00 0. -1.
         21   -1    0    0  501  502 -0.00000000000E+00 -0.00000000000E+00 -0.12728733137E+03  0.12728733137E+03  0.00000000000E+00 0. -1.
         25    1    1    2    0    0  0.28937637848E+03  0.20051059568E+03  0.65664615213E+03  0.75548153949E+03  0.12500000000E+03 0.  0.
         25    1    1    2    0    0 -0.20215759686E+03 -0.21263789102E+03  0.31776526598E+03  0.45020254433E+03  0.12500000000E+03 0.  0.
         25    1    1    2    0    0 -0.87218781627E+02  0.12127295339E+02  0.49000530032E+03  0.51330729734E+03  0.12500000000E+03 0.  0.
</event>
<event>
 5    0  0.6413934E-005  0.2979659E+03  0.7546771E-02  0.1086262E+00
         21   -1    0    0  502  501  0.00000000000E+00  0.00000000000E+00  0.46920811263E+03  0.46920811263E+03  0.00000000000E+00 0. -1.
         21   -1    0    0  501  502 -0.00000000000E+00 -0.00000000000E+00 -0.18922030391E+03  0.18922030391E+03  0.00000000000E+00 0. -1.
         25    1    1    2    0    0 -0.70082598280E+02 -0.44367682781E+02 -0.39899517907E+02  0.15523219185E+03  0.12500000000E+03 0.  0.
         25    1    1    2    0    0 -0.11869369468E+02  0.41593479410E+02  0.32781107268E+03  0.35349115807E+03  0.12500000000E+03 0.  0.
         25    1    1    2    0    0  0.81951967748E+02  0.27742033706E+01 -0.79237460596E+01  0.14970506663E+03  0.12500000000E+03 0.  0.
</event>
<event>
 5    0  0.5648525E-005  0.3310426E+03  0.7546771E-02  0.1070676E+00
         21   -1    0    0  502  501  0.00000000000E+00  0.00000000000E+00  0.31595951899E+03  0.31595951899E+03  0.00000000000E+00 0.  1.
         21   -1    0    0  501  502 -0.00000000000E+00 -0.00000000000E+00 -0.34684578327E+03  0.34684578327E+03  0.00000000000E+00 0.  1.
         25    1    1    2    0    0 -0.33043214003E+02  0.12862448149E+03 -0.80428389576E+02  0.19932344839E+03  0.12500000000E+03 0.  0.
         25    1    1    2    0    0 -0.99495278307E+02  0.22071921544E+02  0.13677570491E+03  0.21146884778E+03  0.12500000000E+03 0.  0.
         25    1    1    2    0    0  0.13253849231E+03 -0.15069640303E+03 -0.87233579613E+02  0.25201300610E+03  0.12500000000E+03 0.  0.
</event>
<event>
 5    0  0.6098029E-005  0.2890942E+03  0.7546771E-02  0.1090823E+00
         21   -1    0    0  502  501  0.00000000000E+00  0.00000000000E+00  0.11345657669E+03  0.11345657669E+03  0.00000000000E+00 0. -1.
         21   -1    0    0  501  502 -0.00000000000E+00 -0.00000000000E+00 -0.73662966383E+03  0.73662966383E+03  0.00000000000E+00 0. -1.
         25    1    1    2    0    0 -0.90066125590E+02 -0.10303511153E+03 -0.24315232329E+03  0.30573876677E+03  0.12500000000E+03 0.  0.
         25    1    1    2    0    0 -0.59891751235E+01  0.45457212903E+02 -0.34918607603E+03  0.37370863532E+03  0.12500000000E+03 0.  0.
         25    1    1    2    0    0  0.96055300713E+02  0.57577898625E+02 -0.30834687833E+02  0.17063883842E+03  0.12500000000E+03 0.  0.
</event>
<event>
 5    0  0.5648525E-005  0.2410037E+03  0.7546771E-02  0.1119126E+00
         21   -1    0    0  502  501  0.00000000000E+00  0.00000000000E+00  0.13560060612E+03  0.13560060612E+03  0.00000000000E+00 0. -1.
         21   -1    0    0  501  502 -0.00000000000E+00 -0.00000000000E+00 -0.42833718725E+03  0.42833718725E+03  0.00000000000E+00 0. -1.
         25    1    1    2    0    0  0.87278987937E+01  0.43901882513E+02 -0.14036684487E+03  0.19321336042E+03  0.12500000000E+03 0.  0.
         25    1    1    2    0    0 -0.70848849386E+02 -0.11231399727E+03 -0.76827316130E+02  0.19789247067E+03  0.12500000000E+03 0.  0.
         25    1    1    2    0    0  0.62120950593E+02  0.68412114758E+02 -0.75542420125E+02  0.17283196228E+03  0.12500000000E+03 0.  0.
</event>
<event>
 5    0  0.5648525E-005  0.2440479E+03  0.7546771E-02  0.1117125E+00
         21   -1    0    0  502  501  0.00000000000E+00  0.00000000000E+00  0.18736255121E+03  0.18736255121E+03  0.00000000000E+00 0.  1.
         21   -1    0    0  501  502 -0.00000000000E+00 -0.00000000000E+00 -0.31788312168E+03  0.31788312168E+03  0.00000000000E+00 0.  1.
         25    1    1    2    0    0 -0.71042888107E+02  0.37524337638E+01 -0.16671455408E+03  0.22018155066E+03  0.12500000000E+03 0.  0.
         25    1    1    2    0    0  0.78494478776E+02 -0.38931840957E+02  0.17236565222E+02  0.15362021553E+03  0.12500000000E+03 0.  0.
         25    1    1    2    0    0 -0.74515906690E+01  0.35179407193E+02  0.18957418394E+02  0.13144390669E+03  0.12500000000E+03 0.  0.
</event>
<event>
 5    0  0.5648525E-005  0.2573011E+03  0.7546771E-02  0.1108776E+00
         21   -1    0    0  502  501  0.00000000000E+00  0.00000000000E+00  0.83366062898E+03  0.83366062898E+03  0.00000000000E+00 0.  1.
         21   -1    0    0  501  502 -0.00000000000E+00 -0.00000000000E+00 -0.79413443999E+02  0.79413443999E+02  0.00000000000E+00 0.  1.
         25    1    1    2    0    0 -0.81694016014E+02 -0.18199965631E+02  0.15386391165E+03  0.21518423341E+03  0.12500000000E+03 0.  0.
         25    1    1    2    0    0  0.16011446170E+03  0.30839830185E+02  0.38681515016E+03  0.43799394558E+03  0.12500000000E+03 0.  0.
         25    1    1    2    0    0 -0.78420445682E+02 -0.12639864554E+02  0.21356812317E+03  0.25989589399E+03  0.12500000000E+03 0.  0.
</event>
<event>
 5    0  0.5669616E-005  0.3249085E+03  0.7546771E-02  0.1073412E+00
         21   -1    0    0  502  501  0.00000000000E+00  0.00000000000E+00  0.48706378544E+03  0.48706378544E+03  0.00000000000E+00 0.  1.
         21   -1    0    0  501  502 -0.00000000000E+00 -0.00000000000E+00 -0.21673861302E+03  0.21673861302E+03  0.00000000000E+00 0.  1.
         25    1    1    2    0    0  0.82077361485E+02  0.40964355211E+02  0.21904383006E+03  0.26836536876E+03  0.12500000000E+03 0.  0.
         25    1    1    2    0    0 -0.17387454799E+03 -0.13059005944E+03  0.69777882884E+01  0.25091793797E+03  0.12500000000E+03 0.  0.
         25    1    1    2    0    0  0.91797186508E+02  0.89625704226E+02  0.44303554081E+02  0.18451909173E+03  0.12500000000E+03 0.  0.
</event>
<event>
 5    0  0.5648525E-005  0.3501853E+03  0.7546771E-02  0.1062539E+00
         21   -1    0    0  502  501  0.00000000000E+00  0.00000000000E+00  0.14325004957E+04  0.14325004957E+04  0.00000000000E+00 0. -1.
         21   -1    0    0  501  502 -0.00000000000E+00 -0.00000000000E+00 -0.85605381688E+02  0.85605381688E+02  0.00000000000E+00 0. -1.
         25    1    1    2    0    0  0.15780409720E+03  0.16456364494E+03  0.76545243080E+03  0.80840939514E+03  0.12500000000E+03 0.  0.
         25    1    1    2    0    0 -0.16938298727E+03 -0.56981076226E+02  0.44411519581E+03  0.49477342953E+03  0.12500000000E+03 0.  0.
         25    1    1    2    0    0  0.11578890067E+02 -0.10758256871E+03  0.13732748736E+03  0.21492305267E+03  0.12500000000E+03 0.  0.
</event>
<event>
 5    0  0.5648525E-005  0.2625275E+03  0.7546771E-02  0.1105634E+00
         21   -1    0    0  502  501  0.00000000000E+00  0.00000000000E+00  0.11243136041E+04  0.11243136041E+04  0.00000000000E+00 0.  1.
         21   -1    0    0  501  502 -0.00000000000E+00 -0.00000000000E+00 -0.61300213674E+02  0.61300213674E+02  0.00000000000E+00 0.  1.
         25    1    1    2    0    0 -0.15512248528E+02  0.15641761937E+03  0.36106821009E+03  0.41316141379E+03  0.12500000000E+03 0.  0.
         25    1    1    2    0    0  0.15639965448E+02 -0.84278200988E+02  0.51159882356E+03  0.53357827912E+03  0.12500000000E+03 0.  0.
         25    1    1    2    0    0 -0.12771692014E+00 -0.72139418386E+02  0.19034635682E+03  0.23887412491E+03  0.12500000000E+03 0.  0.
</event>
<event>
 5    0  0.5648525E-005  0.3247400E+03  0.7546771E-02  0.1073488E+00
         21   -1    0    0  502  501  0.00000000000E+00  0.00000000000E+00  0.14704307078E+03  0.14704307078E+03  0.00000000000E+00 0. -1.
         21   -1    0    0  501  502 -0.00000000000E+00 -0.00000000000E+00 -0.71717829981E+03  0.71717829981E+03  0.00000000000E+00 0. -1.
         25    1    1    2    0    0 -0.93505060306E+02 -0.37259447401E+02 -0.17269658634E+03  0.23575532583E+03  0.12500000000E+03 0.  0.
         25    1    1    2    0    0  0.25412293926E+02 -0.11906938685E+03  0.42368629362E+01  0.17454585236E+03  0.12500000000E+03 0.  0.
         25    1    1    2    0    0  0.68092766380E+02  0.15632883425E+03 -0.40167550563E+03  0.45392019241E+03  0.12500000000E+03 0.  0.
</event>
<event>
 5    0  0.5648525E-005  0.6122279E+03  0.7546771E-02  0.9880357E-01
         21   -1    0    0  502  501  0.00000000000E+00  0.00000000000E+00  0.62883525054E+03  0.62883525054E+03  0.00000000000E+00 0. -1.
         21   -1    0    0  501  502 -0.00000000000E+00 -0.00000000000E+00 -0.59605918107E+03  0.59605918107E+03  0.00000000000E+00 0. -1.
         25    1    1    2    0    0  0.25584853526E+03  0.96887000568E+02 -0.85822867609E+01  0.30090566548E+03  0.12500000000E+03 0.  0.
         25    1    1    2    0    0 -0.37988779056E+03 -0.39907758968E+03 -0.34746415717E+02  0.56604767415E+03  0.12500000000E+03 0.  0.
         25    1    1    2    0    0  0.12403925530E+03  0.30219058912E+03  0.76104771951E+02  0.35794109197E+03  0.12500000000E+03 0.  0.
</event>
<event>
 5    0  0.5648525E-005  0.4077455E+03  0.7546771E-02  0.1041130E+00
         21   -1    0    0  502  501  0.00000000000E+00  0.00000000000E+00  0.30269727855E+03  0.30269727855E+03  0.00000000000E+00 0. -1.
         21   -1    0    0  501  502 -0.00000000000E+00 -0.00000000000E+00 -0.54924979390E+03  0.54924979390E+03  0.00000000000E+00 0. -1.
         25    1    1    2    0    0  0.86434219896E+02  0.11915670708E+03  0.85207389064E+02  0.21107935561E+03  0.12500000000E+03 0.  0.
         25    1    1    2    0    0 -0.12165650127E+03 -0.25312456963E+03 -0.33445493160E+03  0.45426583992E+03  0.12500000000E+03 0.  0.
         25    1    1    2    0    0  0.35222281372E+02  0.13396786255E+03  0.26950271859E+01  0.18660187693E+03  0.12500000000E+03 0.  0.
</event>
<event>
 5    0  0.5648525E-005  0.3885379E+03  0.7546771E-02  0.1047822E+00
         21   -1    0    0  502  501  0.00000000000E+00  0.00000000000E+00  0.19102604898E+03  0.19102604898E+03  0.00000000000E+00 0.  1.
         21   -1    0    0  501  502 -0.00000000000E+00 -0.00000000000E+00 -0.79026759001E+03  0.79026759001E+03  0.00000000000E+00 0.  1.
         25    1    1    2    0    0 -0.22840513783E+03  0.10454629569E+03 -0.53646348852E+03  0.60540640023E+03  0.12500000000E+03 0.  0.
         25    1    1    2    0    0  0.96123140030E+02 -0.62521270131E+02  0.21466234061E+02  0.17098060262E+03  0.12500000000E+03 0.  0.
         25    1    1    2    0    0  0.13228199780E+03 -0.42025025555E+02 -0.84244286576E+02  0.20490663614E+03  0.12500000000E+03 0.  0.
</event>
<event>
 5    0  0.5648525E-005  0.5502334E+03  0.7546771E-02  0.1001440E+00
         21   -1    0    0  502  501  0.00000000000E+00  0.00000000000E+00  0.15357297828E+03  0.15357297828E+03  0.00000000000E+00 0. -1.
         21   -1    0    0  501  502 -0.00000000000E+00 -0.00000000000E+00 -0.19714197937E+04  0.19714197937E+04  0.00000000000E+00 0. -1.
         25    1    1    2    0    0 -0.13664068814E+03  0.37784615961E+02 -0.16886148095E+04  0.16991595951E+04  0.12500000000E+03 0.  0.
         25    1    1    2    0    0 -0.87211234536E+01 -0.13004654172E+03 -0.11171509332E+03  0.21235212051E+03  0.12500000000E+03 0.  0.
         25    1    1    2    0    0  0.14536181159E+03  0.92261925759E+02 -0.17516912651E+02  0.21348105640E+03  0.12500000000E+03 0.  0.
</event>
<event>
 5    0  0.5648525E-005  0.6017457E+03  0.7546771E-02  0.9901791E-01
         21   -1    0    0  502  501  0.00000000000E+00  0.00000000000E+00  0.18398437450E+03  0.18398437450E+03  0.00000000000E+00 0. -1.
         21   -1    0    0  501  502 -0.00000000000E+00 -0.00000000000E+00 -0.19680907447E+04  0.19680907447E+04  0.00000000000E+00 0. -1.
         25    1    1    2    0    0 -0.53195263831E+03  0.13261416280E+02 -0.11498769857E+04  0.12731816669E+04  0.12500000000E+03 0.  0.
         25    1    1    2    0    0  0.10841843519E+03  0.62894834027E+01 -0.19369157128E+03  0.25482452683E+03  0.12500000000E+03 0.  0.
         25    1    1    2    0    0  0.42353420312E+03 -0.19550899683E+02 -0.44053781317E+03  0.62406892546E+03  0.12500000000E+03 0.  0.
</event>
<event>
 5    0  0.5648525E-005  0.3172390E+03  0.7546771E-02  0.1076927E+00
         21   -1    0    0  502  501  0.00000000000E+00  0.00000000000E+00  0.18107277823E+03  0.18107277823E+03  0.00000000000E+00 0.  1.
         21   -1    0    0  501  502 -0.00000000000E+00 -0.00000000000E+00 -0.55580189367E+03  0.55580189367E+03  0.00000000000E+00 0.  1.
         25    1    1    2    0    0  0.15177174607E+02 -0.46263032896E+02 -0.22229118840E+03  0.25963240799E+03  0.12500000000E+03 0.  0.
         25    1    1    2    0    0 -0.14542096745E+03 -0.95920994294E+02 -0.11843042305E+03  0.24494664730E+03  0.12500000000E+03 0.  0.
         25    1    1    2    0    0  0.13024379285E+03  0.14218402719E+03 -0.34007503992E+02  0.23229561660E+03  0.12500000000E+03 0.  0.
</event>
<event>
 5    0  0.5648525E-005  0.2516381E+03  0.7546771E-02  0.1112274E+00
         21   -1    0    0  502  501  0.00000000000E+00  0.00000000000E+00  0.10731580233E+04  0.10731580233E+04  0.00000000000E+00 0. -1.
         21   -1    0    0  501  502 -0.00000000000E+00 -0.00000000000E+00 -0.59005052103E+02  0.59005052103E+02  0.00000000000E+00 0. -1.
         25    1    1    2    0    0  0.43872877702E+02  0.35597417791E+02  0.15532718958E+03  0.20722823498E+03  0.12500000000E+03 0.  0.
         25    1    1    2    0    0  0.56797323213E+02 -0.20854960419E+02  0.18059512194E+03  0.22781673198E+03  0.12500000000E+03 0.  0.
         25    1    1    2    0    0 -0.10067020092E+03 -0.14742457372E+02  0.67823065972E+03  0.69711810849E+03  0.12500000000E+03 0.  0.
</event>
<event>
 5    0  0.5648525E-005  0.3389927E+03  0.7546771E-02  0.1067226E+00
         21   -1    0    0  502  501  0.00000000000E+00  0.00000000000E+00  0.47836851397E+03  0.47836851397E+03  0.00000000000E+00 0.  1.
         21   -1    0    0  501  502 -0.00000000000E+00 -0.00000000000E+00 -0.24022499387E+03  0.24022499387E+03  0.00000000000E+00 0.  1.
         25    1    1    2    0    0 -0.92688447592E+02  0.10985351916E+03 -0.12608120110E+03  0.22843032474E+03  0.12500000000E+03 0.  0.
         25    1    1    2    0    0  0.10484050802E+03 -0.30945824035E+01  0.18361788088E+03  0.24564534341E+03  0.12500000000E+03 0.  0.
         25    1    1    2    0    0 -0.12152060425E+02 -0.10675893676E+03  0.18060684034E+03  0.24451783969E+03  0.12500000000E+03 0.  0.
</event>
<event>
 5    0  0.7330339E-005  0.2959216E+03  0.7546771E-02  0.1087297E+00
         21   -1    0    0  502  501  0.00000000000E+00  0.00000000000E+00  0.57261482570E+03  0.57261482570E+03  0.00000000000E+00 0.  1.
         21   -1    0    0  501  502 -0.00000000000E+00 -0.00000000000E+00 -0.15292936231E+03  0.15292936231E+03  0.00000000000E+00 0.  1.
         25    1    1    2    0    0  0.69460097632E+02 -0.84505308099E+02  0.14099270436E+03  0.21787564100E+03  0.12500000000E+03 0.  0.
         25    1    1    2    0    0 -0.13285216507E+03  0.67309479337E+02 -0.90376081099E+00  0.19443785782E+03  0.12500000000E+03 0.  0.
         25    1    1    2    0    0  0.63392067436E+02  0.17195828762E+02  0.27959651984E+03  0.31323068919E+03  0.12500000000E+03 0.  0.
</event>
<event>
 5    0  0.5648525E-005  0.2659730E+03  0.7546771E-02  0.1103607E+00
         21   -1    0    0  502  501  0.00000000000E+00  0.00000000000E+00  0.13402651883E+03  0.13402651883E+03  0.00000000000E+00 0. -1.
         21   -1    0    0  501  502 -0.00000000000E+00 -0.00000000000E+00 -0.52781825957E+03  0.52781825957E+03  0.00000000000E+00 0. -1.
         25    1    1    2    0    0 -0.67879633925E+02 -0.66311836391E+02 -0.22728958045E+03  0.27620727312E+03  0.12500000000E+03 0.  0.
         25    1    1    2    0    0  0.38815485311E+02  0.50919571695E+02 -0.20703602612E+03  0.25017665917E+03  0.12500000000E+03 0.  0.
         25    1    1    2    0    0  0.29064148614E+02  0.15392264696E+02  0.40533865833E+02  0.13546084610E+03  0.12500000000E+03 0.  0.
</event>
<event>
 5    0  0.5648525E-005  0.2792789E+03  0.7546771E-02  0.1096083E+00
         21   -1    0    0  502  501  0.00000000000E+00  0.00000000000E+00  0.10966204689E+04  0.10966204689E+04  0.00000000000E+00 0.  1.
         21   -1    0    0  501  502 -0.00000000000E+00 -0.00000000000E+00 -0.71124612408E+02  0.71124612408E+02  0.00000000000E+00 0.  1.
         25    1    1    2    0    0  0.12286187115E+03 -0.24849316823E+01  0.44645710829E+03  0.47963544887E+03  0.12500000000E+03 0.  0.
         25    1    1    2    0    0 -0.50584502385E+02  0.11997944881E+03  0.22831495015E+03  0.29104394252E+03  0.12500000000E+03 0.  0.
         25    1    1    2    0    0 -0.72277368768E+02 -0.11749451712E+03  0.35072379806E+03  0.39706568993E+03  0.12500000000E+03 0.  0.
</event>
<event>
 5    0  0.5648525E-005  0.4554579E+03  0.7546771E-02  0.1026107E+00
         21   -1    0    0  502  501  0.00000000000E+00  0.00000000000E+00  0.25317728201E+03  0.25317728201E+03  0.00000000000E+00 0.  1.
         21   -1    0    0  501  502 -0.00000000000E+00 -0.00000000000E+00 -0.81935430983E+03  0.81935430983E+03  0.00000000000E+00 0.  1.
         25    1    1    2    0    0 -0.93519792148E+02 -0.15513014673E+03 -0.14750440188E+03  0.26494124353E+03  0.12500000000E+03 0.  0.
         25    1    1    2    0    0  0.28475830141E+03  0.85768024641E+02 -0.46344199524E+03  0.56466532320E+03  0.12500000000E+03 0.  0.
         25    1    1    2    0    0 -0.19123850926E+03  0.69362122089E+02  0.44769369289E+02  0.24292502512E+03  0.12500000000E+03 0.  0.
</event>
<event>
 5    0  0.5648525E-005  0.2508407E+03  0.7546771E-02  0.1112775E+00
         21   -1    0    0  502  501  0.00000000000E+00  0.00000000000E+00  0.11232964694E+03  0.11232964694E+03  0.00000000000E+00 0. -1.
         21   -1    0    0  501  502 -0.00000000000E+00 -0.00000000000E+00 -0.56014669079E+03  0.56014669079E+03  0.00000000000E+00 0. -1.
         25    1    1    2    0    0  0.45592170741E+02  0.56839531137E+02 -0.37066043842E+02  0.14935953247E+03  0.12500000000E+03 0.  0.
         25    1    1    2    0    0 -0.11474597446E+02 -0.78355326818E+02 -0.82173409663E+02  0.16925924756E+03  0.12500000000E+03 0.  0.
         25    1    1    2    0    0 -0.34117573295E+02  0.21515795681E+02 -0.32857759034E+03  0.35385755771E+03  0.12500000000E+03 0.  0.
</event>
<event>
 5    0  0.5648525E-005  0.2519459E+03  0.7546771E-02  0.1112081E+00
         21   -1    0    0  502  501  0.00000000000E+00  0.00000000000E+00  0.57600987097E+02  0.57600987097E+02  0.00000000000E+00 0.  1.
         21   -1    0    0  501  502 -0.00000000000E+00 -0.00000000000E+00 -0.11020079404E+04  0.11020079404E+04  0.00000000000E+00 0.  1.
         25    1    1    2    0    0 -0.68580152362E+02 -0.55460324862E+02 -0.60740345750E+03  0.62637292814E+03  0.12500000000E+03 0.  0.
         25    1    1    2    0    0  0.70771233712E+02 -0.20250877767E+02 -0.29847738825E+03  0.33186204493E+03  0.12500000000E+03 0.  0.
         25    1    1    2    0    0 -0.21910813498E+01  0.75711202629E+02 -0.13852610753E+03  0.20137395440E+03  0.12500000000E+03 0.  0.
</event>
<event>
 5    0  0.5648525E-005  0.5088185E+03  0.7546771E-02  0.1011502E+00
         21   -1    0    0  502  501  0.00000000000E+00  0.00000000000E+00  0.23408157607E+03  0.23408157607E+03  0.00000000000E+00 0. -1.
         21   -1    0    0  501  502 -0.00000000000E+00 -0.00000000000E+00 -0.11060087353E+04  0.11060087353E+04  0.00000000000E+00 0. -1.
         25    1    1    2    0    0 -0.36171744624E+03 -0.42577312750E+02 -0.22148227018E+03  0.44422036702E+03  0.12500000000E+03 0.  0.
         25    1    1    2    0    0  0.36427391424E+03  0.12180833112E+03 -0.26530028175E+03  0.48326182719E+03  0.12500000000E+03 0.  0.
         25    1    1    2    0    0 -0.25564679956E+01 -0.79231018375E+02 -0.38514460728E+03  0.41260811713E+03  0.12500000000E+03 0.  0.
</event>
<event>
 5    0  0.5648525E-005  0.3598056E+03  0.7546771E-02  0.1058661E+00
         21   -1    0    0  502  501  0.00000000000E+00  0.00000000000E+00  0.21940593600E+04  0.21940593600E+04  0.00000000000E+00 0.  1.
         21   -1    0    0  501  502 -0.00000000000E+00 -0.00000000000E+00 -0.59004821700E+02  0.59004821700E+02  0.00000000000E+00 0.  1.
         25    1    1    2    0    0 -0.19197945070E+03  0.46265698021E+02  0.80060560017E+03  0.83402095377E+03  0.12500000000E+03 0.  0.
         25    1    1    2    0    0 -0.31075543784E+02  0.13420010275E+02  0.12005940015E+03  0.17659288112E+03  0.12500000000E+03 0.  0.
         25    1    1    2    0    0  0.22305499448E+03 -0.59685708296E+02  0.12143895380E+04  0.12424503468E+04  0.12500000000E+03 0.  0.
</event>
<event>
 5    0  0.5648525E-005  0.4765384E+03  0.7546771E-02  0.1020091E+00
         21   -1    0    0  502  501  0.00000000000E+00  0.00000000000E+00  0.49182840361E+04  0.49182840361E+04  0.00000000000E+00 0.  1.
         21   -1    0    0  501  502 -0.00000000000E+00 -0.00000000000E+00 -0.46172372411E+02  0.46172372411E+02  0.00000000000E+00 0.  1.
         25    1    1    2    0    0 -0.68593009008E+02 -0.21160187804E+03  0.24112103839E+04  0.24246733535E+04  0.12500000000E+03 0.  0.
         25    1    1    2    0    0 -0.18983453752E+03  0.77588521567E+02  0.51485972912E+03  0.56812205641E+03  0.12500000000E+03 0.  0.
         25    1    1    2    0    0  0.25842754653E+03  0.13401335647E+03  0.19460415506E+04  0.19716609986E+04  0.12500000000E+03 0.  0.
</event>
<event>
 5    0  0.5648525E-005  0.3343632E+03  0.7546771E-02  0.1069222E+00
         21   -1    0    0  502  501  0.00000000000E+00  0.00000000000E+00  0.39466454061E+03  0.39466454061E+03  0.00000000000E+00 0.  1.
         21   -1    0    0  501  502 -0.00000000000E+00 -0.00000000000E+00 -0.28327539280E+03  0.28327539280E+03  0.00000000000E+00 0.  1.
         25    1    1    2    0    0  0.73352028372E+02  0.22491600706E+02 -0.14400944314E+03  0.20554832007E+03  0.12500000000E+03 0.  0.
         25    1    1    2    0    0  0.28014185959E+02 -0.14548784387E+03  0.10818739395E+03  0.22199328714E+03  0.12500000000E+03 0.  0.
         25    1    1    2    0    0 -0.10136621433E+03  0.12299624316E+03  0.14721119700E+03  0.25039832620E+03  0.12500000000E+03 0.  0.
</event>
<event>
 5    0  0.5648525E-005  0.2912323E+03  0.7546771E-02  0.1089707E+00
         21   -1    0    0  502  501  0.00000000000E+00  0.00000000000E+00  0.10421364626E+03  0.10421364626E+03  0.00000000000E+00 0.  1.
         21   -1    0    0  501  502 -0.00000000000E+00 -0.00000000000E+00 -0.81386899446E+03  0.81386899446E+03  0.00000000000E+00 0.  1.
         25    1    1    2    0    0  0.97504195871E+01  0.27588906949E+02 -0.74636669857E+02  0.14849865641E+03  0.12500000000E+03 0.  0.
         25    1    1    2    0    0 -0.14318135294E+02  0.11044996061E+03 -0.82766304280E+02  0.18676044528E+03  0.12500000000E+03 0.  0.
         25    1    1    2    0    0  0.45677157071E+01 -0.13803886756E+03 -0.55225237407E+03  0.58282353903E+03  0.12500000000E+03 0.  0.
</event>
<event>
 5    0  0.5648525E-005  0.2614483E+03  0.7546771E-02  0.1106276E+00
         21   -1    0    0  502  501  0.00000000000E+00  0.00000000000E+00  0.24180524677E+03  0.24180524677E+03  0.00000000000E+00 0.  1.
         21   -1    0    0  501  502 -0.00000000000E+00 -0.00000000000E+00 -0.28268706574E+03  0.28268706574E+03  0.00000000000E+00 0.  1.
         25    1    1    2    0    0  0.62496884760E+02 -0.12172280221E+02 -0.48007332288E+02  0.14826910995E+03  0.12500000000E+03 0.  0.
         25    1    1    2    0    0 -0.10308751057E+03 -0.92054073424E+02 -0.59679518244E+02  0.19567225702E+03  0.12500000000E+03 0.  0.
         25    1    1    2    0    0  0.40590625810E+02  0.10422635365E+03  0.66805031561E+02  0.18055094555E+03  0.12500000000E+03 0.  0.
</event>
<event>
 5    0  0.5648525E-005  0.2277533E+03  0.7546771E-02  0.1128231E+00
         21   -1    0    0  502  501  0.00000000000E+00  0.00000000000E+00  0.12826240488E+04  0.12826240488E+04  0.00000000000E+00 0. -1.
         21   -1    0    0  501  502 -0.00000000000E+00 -0.00000000000E+00 -0.40441752402E+02  0.40441752402E+02  0.00000000000E+00 0. -1.
         25    1    1    2    0    0  0.19391507813E+02  0.33164213079E+02  0.51592560934E+03  0.53224066923E+03  0.12500000000E+03 0.  0.
         25    1    1    2    0    0  0.79965329525E+02 -0.25830008481E+02  0.40248985142E+03  0.42974960589E+03  0.12500000000E+03 0.  0.
         25    1    1    2    0    0 -0.99356837339E+02 -0.73342045979E+01  0.32376683565E+03  0.36107552611E+03  0.12500000000E+03 0.  0.
</event>
<event>
 5    0  0.5648525E-005  0.2466315E+03  0.7546771E-02  0.1115452E+00
         21   -1    0    0  502  501  0.00000000000E+00  0.00000000000E+00  0.57106653399E+03  0.57106653399E+03  0.00000000000E+00 0.  1.
         21   -1    0    0  501  502 -0.00000000000E+00 -0.00000000000E+00 -0.10651492919E+03  0.10651492919E+03  0.00000000000E+00 0.  1.
         25    1    1    2    0    0  0.55831258367E+02  0.59797163610E+02  0.20935631189E+02  0.15085135346E+03  0.12500000000E+03 0.  0.
         25    1    1    2    0    0 -0.60994576047E+02 -0.94493992615E+01  0.15692585563E+03  0.20990558263E+03  0.12500000000E+03 0.  0.
         25    1    1    2    0    0  0.51633176795E+01 -0.50347764349E+02  0.28669011797E+03  0.31682452709E+03  0.12500000000E+03 0.  0.
</event>
<event>
 5    0  0.5648525E-005  0.3920122E+03  0.7546771E-02  0.1046581E+00
         21   -1    0    0  502  501  0.00000000000E+00  0.00000000000E+00  0.42659756558E+03  0.42659756558E+03  0.00000000000E+00 0. -1.
         21   -1    0    0  501  502 -0.00000000000E+00 -0.00000000000E+00 -0.36023082161E+03  0.36023082161E+03  0.00000000000E+00 0. -1.
         25    1    1    2    0    0  0.18161152688E+03  0.41292736410E+02 -0.22415608918E+02  0.22542248401E+03  0.12500000000E+03 0.  0.
         25    1    1    2    0    0 -0.13775767539E+02  0.17577178097E+03 -0.61234149323E+02  0.22463328293E+03  0.12500000000E+03 0.  0.
         25    1    1    2    0    0 -0.16783575934E+03 -0.21706451738E+03  0.15001650221E+03  0.33677262025E+03  0.12500000000E+03 0.  0.
</event>
<event>
 5    0  0.5648525E-005  0.3748522E+03  0.7546771E-02  0.1052853E+00
         21   -1    0    0  502  501  0.00000000000E+00  0.00000000000E+00  0.48486336216E+03  0.48486336216E+03  0.00000000000E+00 0. -1.
         21   -1    0    0  501  502 -0.00000000000E+00 -0.00000000000E+00 -0.28980157286E+03  0.28980157286E+03  0.00000000000E+00 0. -1.
         25    1    1    2    0    0  0.14372071595E+03  0.49825134338E+02  0.33719923523E+02  0.19975039786E+03  0.12500000000E+03 0.  0.
         25    1    1    2    0    0 -0.64579183860E+02 -0.25916061908E+03  0.73125552200E+02  0.30382074296E+03  0.12500000000E+03 0.  0.
         25    1    1    2    0    0 -0.79141532086E+02  0.20933548474E+03  0.88216313574E+02  0.27109379420E+03  0.12500000000E+03 0.  0.
</event>
<event>
 5    0  0.5648525E-005  0.4798394E+03  0.7546771E-02  0.1019179E+00
         21   -1    0    0  502  501  0.00000000000E+00  0.00000000000E+00  0.76442852446E+03  0.76442852446E+03  0.00000000000E+00 0. -1.
         21   -1    0    0  501  502 -0.00000000000E+00 -0.00000000000E+00 -0.30119999040E+03  0.30119999040E+03  0.00000000000E+00 0. -1.
         25    1    1    2    0    0 -0.20988618112E+03 -0.18594429765E+03  0.56656166527E+03  0.64439476363E+03  0.12500000000E+03 0.  0.
         25    1    1    2    0    0  0.70153939800E+02  0.14659501636E+03 -0.10348649812E+03  0.22966525507E+03  0.12500000000E+03 0.  0.
         25    1    1    2    0    0  0.13973224132E+03  0.39349281285E+02  0.15336690701E+00  0.19156849616E+03  0.12500000000E+03 0.  0.
</event>
<event>
 5    0  0.5648525E-005  0.2197813E+03  0.7546771E-02  0.1134046E+00
         21   -1    0    0  502  501  0.00000000000E+00  0.00000000000E+00  0.29689356130E+03  0.29689356130E+03  0.00000000000E+00 0. -1.
         21   -1    0    0  501  502 -0.00000000000E+00 -0.00000000000E+00 -0.16269741801E+03  0.16269741801E+03  0.00000000000E+00 0. -1.
         25    1    1    2    0    0 -0.66777983470E+02  0.15792832656E+02  0.41833534497E+02  0.14860604715E+03  0.12500000000E+03 0.  0.
         25    1    1    2    0    0 -0.25161285607E+02  0.17087646211E+02  0.80868528417E+02  0.15195327188E+03  0.12500000000E+03 0.  0.
         25    1    1    2    0    0  0.91939269077E+02 -0.32880478867E+02  0.11494080375E+02  0.15903166028E+03  0.12500000000E+03 0.  0.
</event>
<event>
 5    0  0.5648525E-005  0.2502940E+03  0.7546771E-02  0.1113119E+00
         21   -1    0    0  502  501  0.00000000000E+00  0.00000000000E+00  0.47570101523E+03  0.47570101523E+03  0.00000000000E+00 0. -1.
         21   -1    0    0  501  502 -0.00000000000E+00 -0.00000000000E+00 -0.13169426677E+03  0.13169426677E+03  0.00000000000E+00 0. -1.
         25    1    1    2    0    0  0.32875413770E+02 -0.23760828362E+02  0.12804535685E+03  0.18348292347E+03  0.12500000000E+03 0.  0.
         25    1    1    2    0    0  0.76544307415E+02 -0.55313744792E+02  0.24834721089E+02  0.15862031627E+03  0.12500000000E+03 0.  0.
         25    1    1    2    0    0 -0.10941972118E+03  0.79074573155E+02  0.19112667052E+03  0.26529204226E+03  0.12500000000E+03 0.  0.
</event>
<event>
 5    0  0.5648525E-005  0.2614495E+03  0.7546771E-02  0.1106275E+00
         21   -1    0    0  502  501  0.00000000000E+00  0.00000000000E+00  0.35005266794E+03  0.35005266794E+03  0.00000000000E+00 0. -1.
         21   -1    0    0  501  502 -0.00000000000E+00 -0.00000000000E+00 -0.19527306230E+03  0.19527306230E+03  0.00000000000E+00 0. -1.
         25    1    1    2    0    0 -0.15363140932E+03 -0.40026621642E+02  0.11741473061E+03  0.23370057624E+03  0.12500000000E+03 0.  0.
         25    1    1    2    0    0  0.94278783052E+02  0.54820651983E+02  0.46139365184E+02  0.17218488272E+03  0.12500000000E+03 0.  0.
         25    1    1    2    0    0  0.59352626268E+02 -0.14794030341E+02 -0.87744901444E+01  0.13944027128E+03  0.12500000000E+03 0.  0.
</event>
<event>
 5    0  0.5648525E-005  0.3620264E+03  0.7546771E-02  0.1057784E+00
         21   -1    0    0  502  501  0.00000000000E+00  0.00000000000E+00  0.23032275663E+03  0.23032275663E+03  0.00000000000E+00 0. -1.
         21   -1    0    0  501  502 -0.00000000000E+00 -0.00000000000E+00 -0.56904124426E+03  0.56904124426E+03  0.00000000000E+00 0. -1.
         25    1    1    2    0    0  0.43250121832E+01  0.66341893885E+02 -0.98587121786E+02  0.17252354389E+03  0.12500000000E+03 0.  0.
         25    1    1    2    0    0 -0.19065360226E+03  0.60913940318E+02  0.47264450050E+02  0.24066207100E+03  0.12500000000E+03 0.  0.
         25    1    1    2    0    0  0.18632859008E+03 -0.12725583420E+03 -0.28739581589E+03  0.38617838600E+03  0.12500000000E+03 0.  0.
</event>
<event>
 5    0  0.5648525E-005  0.2865058E+03  0.7546771E-02  0.1092188E+00
         21   -1    0    0  502  501  0.00000000000E+00  0.00000000000E+00  0.36501618997E+03  0.36501618997E+03  0.00000000000E+00 0. -1.
         21   -1    0    0  501  502 -0.00000000000E+00 -0.00000000000E+00 -0.22488207800E+03  0.22488207800E+03  0.00000000000E+00 0. -1.
         25    1    1    2    0    0  0.16633300111E+03 -0.10936663918E+02  0.10610658257E+03  0.23381592063E+03  0.12500000000E+03 0.  0.
         25    1    1    2    0    0 -0.61699616550E+01 -0.24355017810E+02  0.71970425118E+02  0.14641030500E+03  0.12500000000E+03 0.  0.
         25    1    1    2    0    0 -0.16016303945E+03  0.35291681728E+02 -0.37942895707E+02  0.20967204234E+03  0.12500000000E+03 0.  0.
</event>
<event>
 5    0  0.5648525E-005  0.3390635E+03  0.7546771E-02  0.1067195E+00
         21   -1    0    0  502  501  0.00000000000E+00  0.00000000000E+00  0.45024696341E+03  0.45024696341E+03  0.00000000000E+00 0.  1.
         21   -1    0    0  501  502 -0.00000000000E+00 -0.00000000000E+00 -0.25533558459E+03  0.25533558459E+03  0.00000000000E+00 0.  1.
         25    1    1    2    0    0 -0.80721870418E+00  0.39795556291E+01  0.25825573488E+02  0.12770453677E+03  0.12500000000E+03 0.  0.
         25    1    1    2    0    0 -0.14034027428E+02  0.24022773511E+03  0.39211699073E+02  0.27398699966E+03  0.12500000000E+03 0.  0.
         25    1    1    2    0    0  0.14841246132E+02 -0.24420729074E+03  0.12987410626E+03  0.30389101157E+03  0.12500000000E+03 0.  0.
</event>
<event>
 5    0  0.5648525E-005  0.3718581E+03  0.7546771E-02  0.1053985E+00
         21   -1    0    0  502  501  0.00000000000E+00  0.00000000000E+00  0.21310172437E+03  0.21310172437E+03  0.00000000000E+00 0.  1.
         21   -1    0    0  501  502 -0.00000000000E+00 -0.00000000000E+00 -0.64888485783E+03  0.64888485783E+03  0.00000000000E+00 0.  1.
         25    1    1    2    0    0 -0.35129914166E+02 -0.11095956471E+02 -0.12590921859E+01  0.13032197218E+03  0.12500000000E+03 0.  0.
         25    1    1    2    0    0  0.12364840446E+03 -0.21309623197E+03 -0.84955647706E+02  0.28903528173E+03  0.12500000000E+03 0.  0.
         25    1    1    2    0    0 -0.88518490294E+02  0.22419218844E+03 -0.34956839357E+03  0.44262932830E+03  0.12500000000E+03 0.  0.
</event>
<event>
 5    0  0.5648525E-005  0.2835565E+03  0.7546771E-02  0.1093762E+00
         21   -1    0    0  502  501  0.00000000000E+00  0.00000000000E+00  0.74487618928E+02  0.74487618928E+02  0.00000000000E+00 0.  1.
         21   -1    0    0  501  502 -0.00000000000E+00 -0.00000000000E+00 -0.10794318575E+04  0.10794318575E+04  0.00000000000E+00 0.  1.
         25    1    1    2    0    0  0.47248318845E+02 -0.79669592106E+02 -0.20999736590E+03  0.26134946188E+03  0.12500000000E+03 0.  0.
         25    1    1    2    0    0  0.74255589636E+02  0.53555364262E+02 -0.63803749395E+03  0.65658123132E+03  0.12500000000E+03 0.  0.
         25    1    1    2    0    0 -0.12150390848E+03  0.26114227844E+02 -0.15690937868E+03  0.23598878318E+03  0.12500000000E+03 0.  0.
</event>
<event>
 5    0  0.5648525E-005  0.2969964E+03  0.7546771E-02  0.1086752E+00
         21   -1    0    0  502  501  0.00000000000E+00  0.00000000000E+00  0.48650871483E+03  0.48650871483E+03  0.00000000000E+00 0.  1.
         21   -1    0    0  501  502 -0.00000000000E+00 -0.00000000000E+00 -0.18130584833E+03  0.18130584833E+03  0.00000000000E+00 0.  1.
         25    1    1    2    0    0 -0.13815029896E+02  0.61189361424E+02  0.41336874742E+02  0.14583802733E+03  0.12500000000E+03 0.  0.
         25    1    1    2    0    0 -0.91268760942E+02 -0.10891099021E+03  0.29355604195E+03  0.34927315997E+03  0.12500000000E+03 0.  0.
         25    1    1    2    0    0  0.10508379084E+03  0.47721628787E+02 -0.29690050191E+02  0.17270337585E+03  0.12500000000E+03 0.  0.
</event>
<event>
 5    0  0.5648525E-005  0.2617213E+03  0.7546771E-02  0.1106113E+00
         21   -1    0    0  502  501  0.00000000000E+00  0.00000000000E+00  0.49192457174E+02  0.49192457174E+02  0.00000000000E+00 0. -1.
         21   -1    0    0  501  502 -0.00000000000E+00 -0.00000000000E+00 -0.13924498910E+04  0.13924498910E+04  0.00000000000E+00 0. -1.
         25    1    1    2    0    0 -0.29566231587E+02  0.40752470334E+02 -0.59485680678E+03  0.60992995210E+03  0.12500000000E+03 0.  0.
         25    1    1    2    0    0 -0.54354160660E+02 -0.82237330062E+02 -0.58254107923E+03  0.60390103678E+03  0.12500000000E+03 0.  0.
         25    1    1    2    0    0  0.83920392246E+02  0.41484859728E+02 -0.16585954780E+03  0.22781135928E+03  0.12500000000E+03 0.  0.
</event>
<event>
 5    0  0.5648525E-005  0.3027966E+03  0.7546771E-02  0.1083851E+00
         21   -1    0    0  502  501  0.00000000000E+00  0.00000000000E+00  0.17178057286E+04  0.17178057286E+04  0.00000000000E+00 0.  1.
         21   -1    0    0  501  502 -0.00000000000E+00 -0.00000000000E+00 -0.53373783898E+02  0.53373783898E+02  0.00000000000E+00 0.  1.
         25    1    1    2    0    0  0.12201403247E+03 -0.11627373052E+02  0.30455932719E+03  0.35128906004E+03  0.12500000000E+03 0.  0.
         25    1    1    2    0    0  0.74976465360E+02 -0.64016330242E+02  0.44124275164E+03  0.46908392295E+03  0.12500000000E+03 0.  0.
         25    1    1    2    0    0 -0.19699049783E+03  0.75643703294E+02  0.91862986585E+03  0.95080652949E+03  0.12500000000E+03 0.  0.
</event>
<event>
 5    0  0.5648525E-005  0.2515198E+03  0.7546771E-02  0.1112348E+00
         21   -1    0    0  502  501  0.00000000000E+00  0.00000000000E+00  0.19960325684E+03  0.19960325684E+03  0.00000000000E+00 0.  1.
         21   -1    0    0  501  502 -0.00000000000E+00 -0.00000000000E+00 -0.31693981611E+03  0.31693981611E+03  0.00000000000E+00 0.  1.
         25    1    1    2    0    0 -0.14810135120E+03  0.20950720343E+01 -0.92630034370E+00  0.19381500867E+03  0.12500000000E+03 0.  0.
         25    1    1    2    0    0  0.10050173536E+03  0.30032544400E+02 -0.56452047220E+02  0.17266842841E+03  0.12500000000E+03 0.  0.
         25    1    1    2    0    0  0.47599615837E+02 -0.32127616434E+02 -0.59958211709E+02  0.15005963587E+03  0.12500000000E+03 0.  0.
</event>
<event>
 5    0  0.5648525E-005  0.4015476E+03  0.7546771E-02  0.1043245E+00
         21   -1    0    0  502  501  0.00000000000E+00  0.00000000000E+00  0.13380025073E+04  0.13380025073E+04  0.00000000000E+00 0. -1.
         21   -1    0    0  501  502 -0.00000000000E+00 -0.00000000000E+00 -0.12050834035E+03  0.12050834035E+03  0.00000000000E+00 0. -1.
         25    1    1    2    0    0 -0.12569157952E+02 -0.22334294798E+03  0.56891243947E+03  0.62396027111E+03  0.12500000000E+03 0.  0.
         25    1    1    2    0    0 -0.15589662767E+02  0.91605737867E+02 -0.47871225203E+01  0.15582864094E+03  0.12500000000E+03 0.  0.
         25    1    1    2    0    0  0.28158820719E+02  0.13173721011E+03  0.65336885002E+03  0.67872193561E+03  0.12500000000E+03 0.  0.
</event>
<event>
 5    0  0.5648525E-005  0.2548516E+03  0.7546771E-02  0.1110277E+00
         21   -1    0    0  502  501  0.00000000000E+00  0.00000000000E+00  0.31929236325E+02  0.31929236325E+02  0.00000000000E+00 0.  1.
         21   -1    0    0  501  502 -0.00000000000E+00 -0.00000000000E+00 -0.20341653210E+04  0.20341653210E+04  0.00000000000E+00 0.  1.
         25    1    1    2    0    0  0.46204357781E+02 -0.92011943285E+02 -0.42860783712E+03  0.45818197086E+03  0.12500000000E+03 0.  0.
         25    1    1    2    0    0  0.66766224623E+02  0.39233228472E+02 -0.55785938645E+03  0.57691339907E+03  0.12500000000E+03 0.  0.
         25    1    1    2    0    0 -0.11297058240E+03  0.52778714813E+02 -0.10157688611E+04  0.10309991874E+04  0.12500000000E+03 0.  0.
</event>
<event>
 5    0  0.5648525E-005  0.3029247E+03  0.7546771E-02  0.1083788E+00
         21   -1    0    0  502  501  0.00000000000E+00  0.00000000000E+00  0.14103973061E+03  0.14103973061E+03  0.00000000000E+00 0. -1.
         21   -1    0    0  501  502 -0.00000000000E+00 -0.00000000000E+00 -0.65062093350E+03  0.65062093350E+03  0.00000000000E+00 0. -1.
         25    1    1    2    0    0  0.16495188305E+03  0.34841135445E+01 -0.21272852502E+03  0.29681591623E+03  0.12500000000E+03 0.  0.
         25    1    1    2    0    0 -0.22267990767E+03  0.20380887383E+02 -0.19199825820E+03  0.32014067689E+03  0.12500000000E+03 0.  0.
         25    1    1    2    0    0  0.57728024628E+02 -0.23865000928E+02 -0.10485441967E+03  0.17470407099E+03  0.12500000000E+03 0.  0.
</event>
<event>
 5    0  0.5648525E-005  0.3604339E+03  0.7546771E-02  0.1058412E+00
         21   -1    0    0  502  501  0.00000000000E+00  0.00000000000E+00  0.11344971594E+04  0.11344971594E+04  0.00000000000E+00 0. -1.
         21   -1    0    0  501  502 -0.00000000000E+00 -0.00000000000E+00 -0.11451114927E+03  0.11451114927E+03  0.00000000000E+00 0. -1.
         25    1    1    2    0    0 -0.74693124909E+02  0.71869424704E+02  0.68392880074E+02  0.17620120079E+03  0.12500000000E+03 0.  0.
         25    1    1    2    0    0  0.14723032253E+03  0.38164419303E+02  0.14111206277E+03  0.24222077745E+03  0.12500000000E+03 0.  0.
         25    1    1    2    0    0 -0.72537197617E+02 -0.11003384401E+03  0.81048106733E+03  0.83058633047E+03  0.12500000000E+03 0.  0.
</event>
<event>
 5    0  0.5648525E-005  0.3400467E+03  0.7546771E-02  0.1066776E+00
         21   -1    0    0  502  501  0.00000000000E+00  0.00000000000E+00  0.47234019402E+03  0.47234019402E+03  0.00000000000E+00 0.  1.
         21   -1    0    0  501  502 -0.00000000000E+00 -0.00000000000E+00 -0.24480606070E+03  0.24480606070E+03  0.00000000000E+00 0.  1.
         25    1    1    2    0    0  0.34055942410E+02 -0.18419017734E+02  0.38955888725E+02  0.13653434987E+03  0.12500000000E+03 0.  0.
         25    1    1    2    0    0 -0.29104687904E+02 -0.22060792300E+03  0.17697172513E+03  0.31057837987E+03  0.12500000000E+03 0.  0.
         25    1    1    2    0    0 -0.49512545064E+01  0.23902694073E+03  0.11606519459E+02  0.27003352497E+03  0.12500000000E+03 0.  0.
</event>
<event>
 5    0  0.5702660E-005  0.2775597E+03  0.7546771E-02  0.1097029E+00
         21   -1    0    0  502  501  0.00000000000E+00  0.00000000000E+00  0.36873099499E+03  0.36873099499E+03  0.00000000000E+00 0.  1.
         21   -1    0    0  501  502 -0.00000000000E+00 -0.00000000000E+00 -0.20893119944E+03  0.20893119944E+03  0.00000000000E+00 0.  1.
         25    1    1    2    0    0 -0.15692953631E+03 -0.24381048995E+02 -0.30667367547E+02  0.20441820454E+03  0.12500000000E+03 0.  0.
         25    1    1    2    0    0  0.47292890568E+02  0.57432270379E+02  0.52412095141E+02  0.15461924491E+03  0.12500000000E+03 0.  0.
         25    1    1    2    0    0  0.10963664574E+03 -0.33051221384E+02  0.13805506796E+03  0.21862474497E+03  0.12500000000E+03 0.  0.
</event>
<event>
 5    0  0.5648525E-005  0.4619387E+03  0.7546771E-02  0.1024220E+00
         21   -1    0    0  502  501  0.00000000000E+00  0.00000000000E+00  0.29386838663E+03  0.29386838663E+03  0.00000000000E+00 0.  1.
         21   -1    0    0  501  502 -0.00000000000E+00 -0.00000000000E+00 -0.72613238942E+03  0.72613238942E+03  0.00000000000E+00 0.  1.
         25    1    1    2    0    0  0.80141523081E+01 -0.24958651255E+03 -0.57471456233E+02  0.28510633484E+03  0.12500000000E+03 0.  0.
         25    1    1    2    0    0  0.19443518101E+03  0.26503727751E+03 -0.34835659332E+03  0.49500213554E+03  0.12500000000E+03 0.  0.
         25    1    1    2    0    0 -0.20244933331E+03 -0.15450764954E+02 -0.26435953234E+02  0.23989230567E+03  0.12500000000E+03 0.  0.
</event>
<event>
 5    0  0.5648525E-005  0.4802358E+03  0.7546771E-02  0.1019070E+00
         21   -1    0    0  502  501  0.00000000000E+00  0.00000000000E+00  0.12268656501E+04  0.12268656501E+04  0.00000000000E+00 0.  1.
         21   -1    0    0  501  502 -0.00000000000E+00 -0.00000000000E+00 -0.18798016656E+03  0.18798016656E+03  0.00000000000E+00 0.  1.
         25    1    1    2    0    0 -0.35540195016E+02  0.21355235357E+02 -0.44784249481E+02  0.13910348860E+03  0.12500000000E+03 0.  0.
         25    1    1    2    0    0  0.21503719333E+03  0.39513214376E+01  0.10150768250E+04  0.10451136628E+04  0.12500000000E+03 0.  0.
         25    1    1    2    0    0 -0.17949699832E+03 -0.25306556795E+02  0.68592908030E+02  0.23062866529E+03  0.12500000000E+03 0.  0.
</event>
<event>
 5    0  0.5648525E-005  0.3024938E+03  0.7546771E-02  0.1084001E+00
         21   -1    0    0  502  501  0.00000000000E+00  0.00000000000E+00  0.83183770207E+03  0.83183770207E+03  0.00000000000E+00 0.  1.
         21   -1    0    0  501  502 -0.00000000000E+00 -0.00000000000E+00 -0.11000038871E+03  0.11000038871E+03  0.00000000000E+00 0.  1.
         25    1    1    2    0    0 -0.30336225587E+02 -0.56533043515E+02  0.28856258422E+03  0.32095114364E+03  0.12500000000E+03 0.  0.
         25    1    1    2    0    0 -0.13125199659E+03 -0.10413479055E+02  0.61968998634E+02  0.19183504359E+03  0.12500000000E+03 0.  0.
         25    1    1    2    0    0  0.16158822218E+03  0.66946522570E+02  0.37130573051E+03  0.42905190355E+03  0.12500000000E+03 0.  0.
</event>
<event>
 5    0  0.5648525E-005  0.4812680E+03  0.7546771E-02  0.1018787E+00
         21   -1    0    0  502  501  0.00000000000E+00  0.00000000000E+00  0.11044832583E+03  0.11044832583E+03  0.00000000000E+00 0.  1.
         21   -1    0    0  501  502 -0.00000000000E+00 -0.00000000000E+00 -0.20970789840E+04  0.20970789840E+04  0.00000000000E+00 0.  1.
         25    1    1    2    0    0 -0.18029329261E+03  0.21314057912E+03 -0.11244237275E+04  0.11652846419E+04  0.12500000000E+03 0.  0.
         25    1    1    2    0    0 -0.31210350585E+02 -0.29304292181E+03 -0.39563726647E+03  0.50892247605E+03  0.12500000000E+03 0.  0.
         25    1    1    2    0    0  0.21150364320E+03  0.79902342694E+02 -0.46656966422E+03  0.53332019184E+03  0.12500000000E+03 0.  0.
</event>
<event>
 5    0  0.5648525E-005  0.2463232E+03  0.7546771E-02  0.1115651E+00
         21   -1    0    0  502  501  0.00000000000E+00  0.00000000000E+00  0.37324904450E+03  0.37324904450E+03  0.00000000000E+00 0. -1.
         21   -1    0    0  501  502 -0.00000000000E+00 -0.00000000000E+00 -0.16255933929E+03  0.16255933929E+03  0.00000000000E+00 0. -1.
         25    1    1    2    0    0 -0.63735016940E+02  0.85777947510E+02  0.18009582966E+03  0.24388422771E+03  0.12500000000E+03 0.  0.
         25    1    1    2    0    0 -0.11985479490E+02 -0.22358194747E+02 -0.86746957946E+01  0.12784283687E+03  0.12500000000E+03 0.  0.
         25    1    1    2    0    0  0.75720496430E+02 -0.63419752762E+02  0.39268571342E+02  0.16408131921E+03  0.12500000000E+03 0.  0.
</event>
<event>
 5    0  0.5648525E-005  0.2900352E+03  0.7546771E-02  0.1090331E+00
         21   -1    0    0  502  501  0.00000000000E+00  0.00000000000E+00  0.35610768203E+03  0.35610768203E+03  0.00000000000E+00 0. -1.
         21   -1    0    0  501  502 -0.00000000000E+00 -0.00000000000E+00 -0.23622184792E+03  0.23622184792E+03  0.00000000000E+00 0. -1.
         25    1    1    2    0    0  0.25677900853E+02  0.66907169394E+02  0.17645417547E+03  0.22780913053E+03  0.12500000000E+03 0.  0.
         25    1    1    2    0    0 -0.12670981302E+02  0.52055810118E+02  0.67268585260E+02  0.15172482887E+03  0.12500000000E+03 0.  0.
         25    1    1    2    0    0 -0.13006919551E+02 -0.11896297951E+03 -0.12383692662E+03  0.21279557055E+03  0.12500000000E+03 0.  0.
</event>
<event>
 5    0  0.5648525E-005  0.2777342E+03  0.7546771E-02  0.1096933E+00
         21   -1    0    0  502  501  0.00000000000E+00  0.00000000000E+00  0.31790473433E+04  0.31790473433E+04  0.00000000000E+00 0. -1.
         21   -1    0    0  501  502 -0.00000000000E+00 -0.00000000000E+00 -0.24263969980E+02  0.24263969980E+02  0.00000000000E+00 0. -1.
         25    1    1    2    0    0 -0.12531148786E+03  0.56352968087E+02  0.64754872875E+03  0.67366384949E+03  0.12500000000E+03 0.  0.
         25    1    1    2    0    0  0.35161355099E+02 -0.11226844096E+03  0.12214362438E+04  0.12334391032E+04  0.12500000000E+03 0.  0.
         25    1    1    2    0    0  0.90150132763E+02  0.55915472874E+02  0.12857984008E+04  0.12962083606E+04  0.12500000000E+03 0.  0.
</event>
<event>
 5    0  0.5648525E-005  0.4996503E+03  0.7546771E-02  0.1013870E+00
         21   -1    0    0  502  501  0.00000000000E+00  0.00000000000E+00  0.54198954487E+03  0.54198954487E+03  0.00000000000E+00 0. -1.
         21   -1    0    0  501  502 -0.00000000000E+00 -0.00000000000E+00 -0.46061843155E+03  0.46061843155E+03  0.00000000000E+00 0. -1.
         25    1    1    2    0    0 -0.11156296738E+03  0.12033277967E+02  0.30028247262E+02  0.17063935977E+03  0.12500000000E+03 0.  0.
         25    1    1    2    0    0  0.36920148929E+03  0.17762408951E+03 -0.12453273859E+03  0.44608682994E+03  0.12500000000E+03 0.  0.
         25    1    1    2    0    0 -0.25763852191E+03 -0.18965736747E+03  0.17587560465E+03  0.38588178672E+03  0.12500000000E+03 0.  0.
</event>
<event>
 5    0  0.5806158E-005  0.3351377E+03  0.7546771E-02  0.1068886E+00
         21   -1    0    0  502  501  0.00000000000E+00  0.00000000000E+00  0.25412252898E+03  0.25412252898E+03  0.00000000000E+00 0. -1.
         21   -1    0    0  501  502 -0.00000000000E+00 -0.00000000000E+00 -0.44198085141E+03  0.44198085141E+03  0.00000000000E+00 0. -1.
         25    1    1    2    0    0 -0.65524303173E+02  0.27671218257E+02 -0.20447438674E+03  0.24998781062E+03  0.12500000000E+03 0.  0.
         25    1    1    2    0    0 -0.11246513091E+03  0.93757597428E+02 -0.22990515095E+02  0.19388774209E+03  0.12500000000E+03 0.  0.
         25    1    1    2    0    0  0.17798943409E+03 -0.12142881569E+03  0.39606579406E+02  0.25222782768E+03  0.12500000000E+03 0.  0.
</event>
<event>
 5    0  0.5648525E-005  0.2414349E+03  0.7546771E-02  0.1118841E+00
         21   -1    0    0  502  501  0.00000000000E+00  0.00000000000E+00  0.21816414946E+03  0.21816414946E+03  0.00000000000E+00 0. -1.
         21   -1    0    0  501  502 -0.00000000000E+00 -0.00000000000E+00 -0.26718785578E+03  0.26718785578E+03  0.00000000000E+00 0. -1.
         25    1    1    2    0    0  0.37246189102E+02  0.12910786118E+03 -0.63893517613E+02  0.19432833045E+03  0.12500000000E+03 0.  0.
         25    1    1    2    0    0 -0.45399302227E+02 -0.52807659565E+02  0.18656011944E+02  0.14430104758E+03  0.12500000000E+03 0.  0.
         25    1    1    2    0    0  0.81531131245E+01 -0.76300201620E+02 -0.37862006460E+01  0.14672262721E+03  0.12500000000E+03 0.  0.
</event>
<event>
 5    0  0.5648525E-005  0.2819181E+03  0.7546771E-02  0.1094646E+00
         21   -1    0    0  502  501  0.00000000000E+00  0.00000000000E+00  0.26402690079E+03  0.26402690079E+03  0.00000000000E+00 0.  1.
         21   -1    0    0  501  502 -0.00000000000E+00 -0.00000000000E+00 -0.30102163226E+03  0.30102163226E+03  0.00000000000E+00 0.  1.
         25    1    1    2    0    0 -0.67300397691E+02  0.86759116167E+02 -0.50995473853E+02  0.17401731558E+03  0.12500000000E+03 0.  0.
         25    1    1    2    0    0  0.15579612909E+03  0.21995425716E+02  0.26925155476E+02  0.20274663151E+03  0.12500000000E+03 0.  0.
         25    1    1    2    0    0 -0.88495731402E+02 -0.10875454188E+03 -0.12924413096E+02  0.18828458596E+03  0.12500000000E+03 0.  0.
</event>
<event>
 5    0  0.5648525E-005  0.3682232E+03  0.7546771E-02  0.1055374E+00
         21   -1    0    0  502  501  0.00000000000E+00  0.00000000000E+00  0.41743394959E+03  0.41743394959E+03  0.00000000000E+00 0.  1.
         21   -1    0    0  501  502 -0.00000000000E+00 -0.00000000000E+00 -0.32481381846E+03  0.32481381846E+03  0.00000000000E+00 0.  1.
         25    1    1    2    0    0 -0.39911881211E+02 -0.22541173865E+02  0.10312821538E+03  0.16840870402E+03  0.12500000000E+03 0.  0.
         25    1    1    2    0    0  0.22133194939E+03  0.17102475084E+03 -0.27600507400E+02  0.30761028141E+03  0.12500000000E+03 0.  0.
         25    1    1    2    0    0 -0.18142006818E+03 -0.14848357698E+03  0.17092423145E+02  0.26622878262E+03  0.12500000000E+03 0.  0.
</event>
<event>
 5    0  0.5648525E-005  0.4471563E+03  0.7546771E-02  0.1028573E+00
         21   -1    0    0  502  501  0.00000000000E+00  0.00000000000E+00  0.80316281374E+03  0.80316281374E+03  0.00000000000E+00 0. -1.
         21   -1    0    0  501  502 -0.00000000000E+00 -0.00000000000E+00 -0.24895170954E+03  0.24895170954E+03  0.00000000000E+00 0. -1.
         25    1    1    2    0    0  0.27310622199E+03  0.92156074643E+02  0.40800130454E+03  0.51494641963E+03  0.12500000000E+03 0.  0.
         25    1    1    2    0    0 -0.20056520677E+03 -0.13061791230E+03 -0.65603316451E+02  0.27787809614E+03  0.12500000000E+03 0.  0.
         25    1    1    2    0    0 -0.72541015215E+02  0.38461837659E+02  0.21181311611E+03  0.25929000752E+03  0.12500000000E+03 0.  0.
</event>
<event>
 5    0  0.5648525E-005  0.2432843E+03  0.7546771E-02  0.1117624E+00
         21   -1    0    0  502  501  0.00000000000E+00  0.00000000000E+00  0.88901590325E+02  0.88901590325E+02  0.00000000000E+00 0. -1.
         21   -1    0    0  501  502 -0.00000000000E+00 -0.00000000000E+00 -0.66576132574E+03  0.66576132574E+03  0.00000000000E+00 0. -1.
         25    1    1    2    0    0  0.88124724436E+02 -0.45480134773E+01 -0.12885789104E+03  0.20004001491E+03  0.12500000000E+03 0.  0.
         25    1    1    2    0    0 -0.10314863489E+03 -0.72902005686E+02 -0.27024666943E+03  0.32343872008E+03  0.12500000000E+03 0.  0.
         25    1    1    2    0    0  0.15023910459E+02  0.77450019163E+02 -0.17775517495E+03  0.23118418106E+03  0.12500000000E+03 0.  0.
</event>
<event>
 5    0  0.5648525E-005  0.5296362E+03  0.7546771E-02  0.1006320E+00
         21   -1    0    0  502  501  0.00000000000E+00  0.00000000000E+00  0.44315510340E+03  0.44315510340E+03  0.00000000000E+00 0. -1.
         21   -1    0    0  501  502 -0.00000000000E+00 -0.00000000000E+00 -0.63299390851E+03  0.63299390851E+03  0.00000000000E+00 0. -1.
         25    1    1    2    0    0  0.35282969759E+03 -0.94922512736E+02  0.25761365365E+02  0.38702419417E+03  0.12500000000E+03 0.  0.
         25    1    1    2    0    0  0.36909798537E+02 -0.12799312679E+03 -0.10277914083E+03  0.20960230324E+03  0.12500000000E+03 0.  0.
         25    1    1    2    0    0 -0.38973949613E+03  0.22291563952E+03 -0.11282102964E+03  0.47952251450E+03  0.12500000000E+03 0.  0.
</event>
<event>
 5    0  0.5648525E-005  0.2488606E+03  0.7546771E-02  0.1114027E+00
         21   -1    0    0  502  501  0.00000000000E+00  0.00000000000E+00  0.70075805273E+02  0.70075805273E+02  0.00000000000E+00 0. -1.
         21   -1    0    0  501  502 -0.00000000000E+00 -0.00000000000E+00 -0.88378017639E+03  0.88378017639E+03  0.00000000000E+00 0. -1.
         25    1    1    2    0    0  0.12892292794E+02  0.11576526385E+03 -0.42205026053E+03  0.45532321480E+03  0.12500000000E+03 0.  0.
         25    1    1    2    0    0 -0.56014977093E+02 -0.10003930087E+03 -0.26579264393E+03  0.31530345534E+03  0.12500000000E+03 0.  0.
         25    1    1    2    0    0  0.43122684299E+02 -0.15725962979E+02 -0.12586146666E+03  0.18322931152E+03  0.12500000000E+03 0.  0.
</event>
<event>
 5    0  0.6153746E-005  0.3060380E+03  0.7546771E-02  0.1082261E+00
         21   -1    0    0  502  501  0.00000000000E+00  0.00000000000E+00  0.54900110959E+03  0.54900110959E+03  0.00000000000E+00 0.  1.
         21   -1    0    0  501  502 -0.00000000000E+00 -0.00000000000E+00 -0.17059940225E+03  0.17059940225E+03  0.00000000000E+00 0.  1.
         25    1    1    2    0    0  0.13966093000E+03 -0.61445469961E+02  0.16594090742E+03  0.25776366288E+03  0.12500000000E+03 0.  0.
         25    1    1    2    0    0 -0.80697267716E+02 -0.53263500439E+02 -0.29232853122E+02  0.16071281591E+03  0.12500000000E+03 0.  0.
         25    1    1    2    0    0 -0.58963662289E+02  0.11470897040E+03  0.24169365304E+03  0.30112403305E+03  0.12500000000E+03 0.  0.
</event>
<event>
 5    0  0.5648525E-005  0.3756328E+03  0.7546771E-02  0.1052560E+00
         21   -1    0    0  502  501  0.00000000000E+00  0.00000000000E+00  0.10537927844E+03  0.10537927844E+03  0.00000000000E+00 0.  1.
         21   -1    0    0  501  502 -0.00000000000E+00 -0.00000000000E+00 -0.13389731545E+04  0.13389731545E+04  0.00000000000E+00 0.  1.
         25    1    1    2    0    0  0.17462896350E+03 -0.13446748605E+03 -0.41141648335E+03  0.48318247326E+03  0.12500000000E+03 0.  0.
         25    1    1    2    0    0  0.34682901902E+02  0.17229504747E+03 -0.56512010496E+03  0.60487537568E+03  0.12500000000E+03 0.  0.
         25    1    1    2    0    0 -0.20931186540E+03 -0.37827561413E+02 -0.25705728774E+03  0.35629458399E+03  0.12500000000E+03 0.  0.
</event>
<event>
 5    0  0.5648525E-005  0.2265936E+03  0.7546771E-02  0.1129061E+00
         21   -1    0    0  502  501  0.00000000000E+00  0.00000000000E+00  0.10405838472E+03  0.10405838472E+03  0.00000000000E+00 0. -1.
         21   -1    0    0  501  502 -0.00000000000E+00 -0.00000000000E+00 -0.49342183328E+03  0.49342183328E+03  0.00000000000E+00 0. -1.
         25    1    1    2    0    0  0.11024133221E+03  0.50278264086E+02 -0.17019153992E+03  0.24345680403E+03  0.12500000000E+03 0.  0.
         25    1    1    2    0    0 -0.50645236288E+02 -0.28332238247E+02 -0.10874873241E+03  0.17555324686E+03  0.12500000000E+03 0.  0.
         25    1    1    2    0    0 -0.59596095920E+02 -0.21946025839E+02 -0.11042317623E+03  0.17847016711E+03  0.12500000000E+03 0.  0.
</event>
<event>
 5    0  0.5648525E-005  0.4153333E+03  0.7546771E-02  0.1038596E+00
         21   -1    0    0  502  501  0.00000000000E+00  0.00000000000E+00  0.16151829591E+03  0.16151829591E+03  0.00000000000E+00 0. -1.
         21   -1    0    0  501  502 -0.00000000000E+00 -0.00000000000E+00 -0.10680013256E+04  0.10680013256E+04  0.00000000000E+00 0. -1.
         25    1    1    2    0    0  0.93950037175E+02 -0.76155168958E+02  0.12378295981E+02  0.17436869402E+03  0.12500000000E+03 0.  0.
         25    1    1    2    0    0 -0.36485475886E+02 -0.98516163912E+02 -0.77106892704E+03  0.78816807519E+03  0.12500000000E+03 0.  0.
         25    1    1    2    0    0 -0.57464561289E+02  0.17467133287E+03 -0.14779239866E+03  0.26698285232E+03  0.12500000000E+03 0.  0.
</event>
<event>
 5    0  0.6389577E-005  0.2976417E+03  0.7546771E-02  0.1086425E+00
         21   -1    0    0  502  501  0.00000000000E+00  0.00000000000E+00  0.50789169756E+03  0.50789169756E+03  0.00000000000E+00 0.  1.
         21   -1    0    0  501  502 -0.00000000000E+00 -0.00000000000E+00 -0.17442810587E+03  0.17442810587E+03  0.00000000000E+00 0.  1.
         25    1    1    2    0    0  0.65622651104E+01 -0.15609139251E+03  0.11665621200E+03  0.23160582449E+03  0.12500000000E+03 0.  0.
         25    1    1    2    0    0 -0.11690615086E+01  0.18964242676E+03  0.22655886202E+03  0.32081074591E+03  0.12500000000E+03 0.  0.
         25    1    1    2    0    0 -0.53932036018E+01 -0.33551034252E+02 -0.97514823334E+01  0.12990323303E+03  0.12500000000E+03 0.  0.
</event>
<event>
 5    0  0.5648525E-005  0.3339925E+03  0.7546771E-02  0.1069384E+00
         21   -1    0    0  502  501  0.00000000000E+00  0.00000000000E+00  0.10849665434E+03  0.10849665434E+03  0.00000000000E+00 0. -1.
         21   -1    0    0  501  502 -0.00000000000E+00 -0.00000000000E+00 -0.10281515368E+04  0.10281515368E+04  0.00000000000E+00 0. -1.
         25    1    1    2    0    0 -0.20841141670E+00 -0.25405598624E+03 -0.47763652908E+03  0.55525322286E+03  0.12500000000E+03 0.  0.
         25    1    1    2    0    0  0.33004908542E+02  0.78894239111E+02 -0.24367801826E+03  0.28691044167E+03  0.12500000000E+03 0.  0.
         25    1    1    2    0    0 -0.32796497126E+02  0.17516174713E+03 -0.19834033509E+03  0.29448452659E+03  0.12500000000E+03 0.  0.
</event>
<event>
 5    0  0.5648525E-005  0.4962333E+03  0.7546771E-02  0.1014767E+00
         21   -1    0    0  502  501  0.00000000000E+00  0.00000000000E+00  0.14916465284E+04  0.14916465284E+04  0.00000000000E+00 0.  1.
         21   -1    0    0  501  502 -0.00000000000E+00 -0.00000000000E+00 -0.16508432783E+03  0.16508432783E+03  0.00000000000E+00 0.  1.
         25    1    1    2    0    0  0.91393768264E+02  0.98259621015E+02  0.17671913279E+03  0.25468102774E+03  0.12500000000E+03 0.  0.
         25    1    1    2    0    0 -0.24901210395E+03  0.19471732663E+03  0.91493210922E+03  0.97603669484E+03  0.12500000000E+03 0.  0.
         25    1    1    2    0    0  0.15761833569E+03 -0.29297694765E+03  0.23491095859E+03  0.42601313367E+03  0.12500000000E+03 0.  0.
</event>
<event>
 5    0  0.5648525E-005  0.2992691E+03  0.7546771E-02  0.1085607E+00
         21   -1    0    0  502  501  0.00000000000E+00  0.00000000000E+00  0.11852333086E+03  0.11852333086E+03  0.00000000000E+00 0. -1.
         21   -1    0    0  501  502 -0.00000000000E+00 -0.00000000000E+00 -0.75564883610E+03  0.75564883610E+03  0.00000000000E+00 0. -1.
         25    1    1    2    0    0  0.71287609939E+02 -0.11073490544E+03 -0.44425638266E+02  0.18692987977E+03  0.12500000000E+03 0.  0.
         25    1    1    2    0    0  0.20782478830E+02  0.13956688285E+03 -0.29108174542E+03  0.34679159265E+03  0.12500000000E+03 0.  0.
         25    1    1    2    0    0 -0.92070088770E+02 -0.28831977403E+02 -0.30161812155E+03  0.34045069454E+03  0.12500000000E+03 0.  0.
</event>
<event>
 5    0  0.5648525E-005  0.3040001E+03  0.7546771E-02  0.1083258E+00
         21   -1    0    0  502  501  0.00000000000E+00  0.00000000000E+00  0.59425792641E+02  0.59425792641E+02  0.00000000000E+00 0. -1.
         21   -1    0    0  501  502 -0.00000000000E+00 -0.00000000000E+00 -0.15551510098E+04  0.15551510098E+04  0.00000000000E+00 0. -1.
         25    1    1    2    0    0  0.74168579765E+02  0.27612661484E+02 -0.94112427396E+03  0.95268218013E+03  0.12500000000E+03 0.  0.
         25    1    1    2    0    0  0.35330259263E+02  0.22578819486E+02 -0.42577917030E+03  0.44572517560E+03  0.12500000000E+03 0.  0.
         25    1    1    2    0    0 -0.10949883903E+03 -0.50191480970E+02 -0.12882177287E+03  0.21616944667E+03  0.12500000000E+03 0.  0.
</event>
<event>
 5    0  0.5648525E-005  0.3648911E+03  0.7546771E-02  0.1056664E+00
         21   -1    0    0  502  501  0.00000000000E+00  0.00000000000E+00  0.71608373066E+03  0.71608373066E+03  0.00000000000E+00 0.  1.
         21   -1    0    0  501  502 -0.00000000000E+00 -0.00000000000E+00 -0.18593564129E+03  0.18593564129E+03  0.00000000000E+00 0.  1.
         25    1    1    2    0    0  0.63469085974E+02 -0.27478596752E+02 -0.83403273739E+01  0.14310122017E+03  0.12500000000E+03 0.  0.
         25    1    1    2    0    0  0.21422257238E+02  0.13763228014E+03  0.54042889250E+03  0.57191777861E+03  0.12500000000E+03 0.  0.
         25    1    1    2    0    0 -0.84891343212E+02 -0.11015368339E+03 -0.19404757535E+01  0.18700037316E+03  0.12500000000E+03 0.  0.
</event>
<event>
 5    0  0.5648525E-005  0.2596290E+03  0.7546771E-02  0.1107366E+00
         21   -1    0    0  502  501  0.00000000000E+00  0.00000000000E+00  0.29207122081E+04  0.29207122081E+04  0.00000000000E+00 0. -1.
         21   -1    0    0  501  502 -0.00000000000E+00 -0.00000000000E+00 -0.23079038519E+02  0.23079038519E+02  0.00000000000E+00 0. -1.
         25    1    1    2    0    0  0.20441871816E+02  0.45412823442E+02  0.42246295710E+03  0.44337359504E+03  0.12500000000E+03 0.  0.
         25    1    1    2    0    0 -0.10958010105E+03  0.34329030359E+00  0.17439287333E+04  0.17518334234E+04  0.12500000000E+03 0.  0.
         25    1    1    2    0    0  0.89138229234E+02 -0.45756113745E+02  0.73124147916E+03  0.74858422819E+03  0.12500000000E+03 0.  0.
</event>
<event>
 5    0  0.5648525E-005  0.2232940E+03  0.7546771E-02  0.1131451E+00
         21   -1    0    0  502  501  0.00000000000E+00  0.00000000000E+00  0.12764806936E+03  0.12764806936E+03  0.00000000000E+00 0.  1.
         21   -1    0    0  501  502 -0.00000000000E+00 -0.00000000000E+00 -0.39060696430E+03  0.39060696430E+03  0.00000000000E+00 0.  1.
         25    1    1    2    0    0  0.28978054938E+02 -0.69474476701E+02 -0.49332542982E+02  0.15402964123E+03  0.12500000000E+03 0.  0.
         25    1    1    2    0    0  0.30956252905E+01  0.97689473106E+02 -0.14688587972E+03  0.21622506263E+03  0.12500000000E+03 0.  0.
         25    1    1    2    0    0 -0.32073680228E+02 -0.28214996405E+02 -0.66740472240E+02  0.14800032980E+03  0.12500000000E+03 0.  0.
</event>
<event>
 5    0  0.5648525E-005  0.2956745E+03  0.7546771E-02  0.1087423E+00
         21   -1    0    0  502  501  0.00000000000E+00  0.00000000000E+00  0.18602630392E+04  0.18602630392E+04  0.00000000000E+00 0.  1.
         21   -1    0    0  501  502 -0.00000000000E+00 -0.00000000000E+00 -0.46995182855E+02  0.46995182855E+02  0.00000000000E+00 0.  1.
         25    1    1    2    0    0  0.24655577010E+01 -0.25555225635E+02  0.22096796129E+03  0.25516854910E+03  0.12500000000E+03 0.  0.
         25    1    1    2    0    0 -0.92592572109E+02 -0.10047071678E+01  0.13782622330E+04  0.13870134018E+04  0.12500000000E+03 0.  0.
         25    1    1    2    0    0  0.90127014408E+02  0.26559932803E+02  0.21403766207E+03  0.26507627118E+03  0.12500000000E+03 0.  0.
</event>
<event>
 5    0  0.5648525E-005  0.2959084E+03  0.7546771E-02  0.1087304E+00
         21   -1    0    0  502  501  0.00000000000E+00  0.00000000000E+00  0.35245691359E+03  0.35245691359E+03  0.00000000000E+00 0.  1.
         21   -1    0    0  501  502 -0.00000000000E+00 -0.00000000000E+00 -0.24843253624E+03  0.24843253624E+03  0.00000000000E+00 0.  1.
         25    1    1    2    0    0 -0.65177673276E+02 -0.75643335647E+02  0.13246653752E+02  0.16053198173E+03  0.12500000000E+03 0.  0.
         25    1    1    2    0    0 -0.65319058280E+02  0.12826030912E+03  0.15051691361E+03  0.24289427238E+03  0.12500000000E+03 0.  0.
         25    1    1    2    0    0  0.13049673156E+03 -0.52616973474E+02 -0.59739190015E+02  0.19746319573E+03  0.12500000000E+03 0.  0.
</event>
<event>
 5    0  0.5648525E-005  0.2893847E+03  0.7546771E-02  0.1090671E+00
         21   -1    0    0  502  501  0.00000000000E+00  0.00000000000E+00  0.87716007846E+03  0.87716007846E+03  0.00000000000E+00 0.  1.
         21   -1    0    0  501  502 -0.00000000000E+00 -0.00000000000E+00 -0.95471203564E+02  0.95471203564E+02  0.00000000000E+00 0.  1.
         25    1    1    2    0    0  0.21306385358E+02 -0.14660690602E+03  0.43893585217E+03  0.47983041720E+03  0.12500000000E+03 0.  0.
         25    1    1    2    0    0 -0.79160860295E+02  0.50826706168E+02  0.26535792313E+03  0.30804159334E+03  0.12500000000E+03 0.  0.
         25    1    1    2    0    0  0.57854474937E+02  0.95780199855E+02  0.77395099588E+02  0.18475927147E+03  0.12500000000E+03 0.  0.
</event>
<event>
 5    0  0.5648525E-005  0.7446592E+03  0.7546771E-02  0.9643767E-01
         21   -1    0    0  502  501  0.00000000000E+00  0.00000000000E+00  0.16625790536E+04  0.16625790536E+04  0.00000000000E+00 0. -1.
         21   -1    0    0  501  502 -0.00000000000E+00 -0.00000000000E+00 -0.33352838893E+03  0.33352838893E+03  0.00000000000E+00 0. -1.
         25    1    1    2    0    0  0.55884938009E+02 -0.68725665728E+02  0.48220012615E+03  0.50595286844E+03  0.12500000000E+03 0.  0.
         25    1    1    2    0    0  0.20653095124E+03  0.22683736372E+03 -0.20359530890E+03  0.38882679075E+03  0.12500000000E+03 0.  0.
         25    1    1    2    0    0 -0.26241588925E+03 -0.15811169799E+03  0.10504458474E+04  0.11013277833E+04  0.12500000000E+03 0.  0.
</event>
<event>
 5    0  0.5648525E-005  0.2635628E+03  0.7546771E-02  0.1105021E+00
         21   -1    0    0  502  501  0.00000000000E+00  0.00000000000E+00  0.10887414863E+03  0.10887414863E+03  0.00000000000E+00 0. -1.
         21   -1    0    0  501  502 -0.00000000000E+00 -0.00000000000E+00 -0.63803354400E+03  0.63803354400E+03  0.00000000000E+00 0. -1.
         25    1    1    2    0    0 -0.11545921930E+03 -0.53479743263E+01 -0.23579273107E+03  0.29083095464E+03  0.12500000000E+03 0.  0.
         25    1    1    2    0    0  0.16673504554E+03  0.28456384118E+02 -0.15462252697E+03  0.26104303678E+03  0.12500000000E+03 0.  0.
         25    1    1    2    0    0 -0.51275826233E+02 -0.23108409792E+02 -0.13874413734E+03  0.19503370120E+03  0.12500000000E+03 0.  0.
</event>
<event>
 5    0  0.6408364E-005  0.4245522E+03  0.7546771E-02  0.1035595E+00
         21   -1    0    0  502  501  0.00000000000E+00  0.00000000000E+00  0.29590129857E+03  0.29590129857E+03  0.00000000000E+00 0. -1.
         21   -1    0    0  501  502 -0.00000000000E+00 -0.00000000000E+00 -0.60913758363E+03  0.60913758363E+03  0.00000000000E+00 0. -1.
         25    1    1    2    0    0 -0.62676133604E+02 -0.74304791154E+02  0.13809485157E+03  0.21010637245E+03  0.12500000000E+03 0.  0.
         25    1    1    2    0    0  0.14455043295E+03  0.21763744439E+03 -0.14166646756E+03  0.32242095605E+03  0.12500000000E+03 0.  0.
         25    1    1    2    0    0 -0.81874299343E+02 -0.14333265324E+03 -0.30966466907E+03  0.37251155371E+03  0.12500000000E+03 0.  0.
</event>
<event>
 5    0  0.5648525E-005  0.2495220E+03  0.7546771E-02  0.1113607E+00
         21   -1    0    0  502  501  0.00000000000E+00  0.00000000000E+00  0.32706373140E+03  0.32706373140E+03  0.00000000000E+00 0.  1.
         21   -1    0    0  501  502 -0.00000000000E+00 -0.00000000000E+00 -0.19036415998E+03  0.19036415998E+03  0.00000000000E+00 0.  1.
         25    1    1    2    0    0  0.58415568516E+02 -0.27761343561E+02 -0.47230831491E+02  0.14845478195E+03  0.12500000000E+03 0.  0.
         25    1    1    2    0    0 -0.28671892550E+02 -0.26156156764E+02 -0.87590662440E+01  0.13117905016E+03  0.12500000000E+03 0.  0.
         25    1    1    2    0    0 -0.29743675966E+02  0.53917500325E+02  0.19268946915E+03  0.23779405927E+03  0.12500000000E+03 0.  0.
</event>
<event>
 5    0  0.5648525E-005  0.3273632E+03  0.7546771E-02  0.1072310E+00
         21   -1    0    0  502  501  0.00000000000E+00  0.00000000000E+00  0.71081885719E+02  0.71081885719E+02  0.00000000000E+00 0. -1.
         21   -1    0    0  501  502 -0.00000000000E+00 -0.00000000000E+00 -0.15076512058E+04  0.15076512058E+04  0.00000000000E+00 0. -1.
         25    1    1    2    0    0 -0.45273929757E+02 -0.52149318500E+02 -0.52224664206E+02  0.15205819836E+03  0.12500000000E+03 0.  0.
         25    1    1    2    0    0 -0.54266196262E+02 -0.54222276940E+02 -0.46810121204E+03  0.49053911168E+03  0.12500000000E+03 0.  0.
         25    1    1    2    0    0  0.99540126018E+02  0.10637159544E+03 -0.91624344381E+03  0.93613578146E+03  0.12500000000E+03 0.  0.
</event>
<event>
 5    0  0.5648525E-005  0.4054839E+03  0.7546771E-02  0.1041897E+00
         21   -1    0    0  502  501  0.00000000000E+00  0.00000000000E+00  0.61848926558E+03  0.61848926558E+03  0.00000000000E+00 0. -1.
         21   -1    0    0  501  502 -0.00000000000E+00 -0.00000000000E+00 -0.26583683320E+03  0.26583683320E+03  0.00000000000E+00 0. -1.
         25    1    1    2    0    0 -0.26207485403E+02 -0.89002098392E+02  0.46353866528E+03  0.48897985645E+03  0.12500000000E+03 0.  0.
         25    1    1    2    0    0  0.61561802608E+02  0.17481548411E+03 -0.72227378754E+02  0.23492999653E+03  0.12500000000E+03 0.  0.
         25    1    1    2    0    0 -0.35354317205E+02 -0.85813385721E+02 -0.38658854136E+02  0.16041624580E+03  0.12500000000E+03 0.  0.
</event>
<event>
 5    0  0.5648525E-005  0.3166015E+03  0.7546771E-02  0.1077224E+00
         21   -1    0    0  502  501  0.00000000000E+00  0.00000000000E+00  0.78602386376E+02  0.78602386376E+02  0.00000000000E+00 0. -1.
         21   -1    0    0  501  502 -0.00000000000E+00 -0.00000000000E+00 -0.12752353279E+04  0.12752353279E+04  0.00000000000E+00 0. -1.
         25    1    1    2    0    0 -0.20385316795E+01 -0.34654215572E+02 -0.16208512151E+03  0.20760938534E+03  0.12500000000E+03 0.  0.
         25    1    1    2    0    0  0.11829828362E+03 -0.11278498999E+03 -0.22088188640E+03  0.30187538093E+03  0.12500000000E+03 0.  0.
         25    1    1    2    0    0 -0.11625975194E+03  0.14743920556E+03 -0.81366593357E+03  0.84435294795E+03  0.12500000000E+03 0.  0.
</event>
<event>
 5    0  0.5648525E-005  0.3992068E+03  0.7546771E-02  0.1044055E+00
         21   -1    0    0  502  501  0.00000000000E+00  0.00000000000E+00  0.22129567452E+03  0.22129567452E+03  0.00000000000E+00 0.  1.
         21   -1    0    0  501  502 -0.00000000000E+00 -0.00000000000E+00 -0.72014998059E+03  0.72014998059E+03  0.00000000000E+00 0.  1.
         25    1    1    2    0    0 -0.10523416028E+03  0.13843343599E+03 -0.60763155495E+02  0.22260998575E+03  0.12500000000E+03 0.  0.
         25    1    1    2    0    0  0.75379174093E+02 -0.11135950795E+03 -0.52843874908E+03  0.55942423207E+03  0.12500000000E+03 0.  0.
         25    1    1    2    0    0  0.29854986184E+02 -0.27073928039E+02  0.90347598511E+02  0.15941143728E+03  0.12500000000E+03 0.  0.
</event>
<event>
 5    0  0.5648525E-005  0.4630196E+03  0.7546771E-02  0.1023909E+00
         21   -1    0    0  502  501  0.00000000000E+00  0.00000000000E+00  0.60760892959E+03  0.60760892959E+03  0.00000000000E+00 0.  1.
         21   -1    0    0  501  502 -0.00000000000E+00 -0.00000000000E+00 -0.35283733439E+03  0.35283733439E+03  0.00000000000E+00 0.  1.
         25    1    1    2    0    0 -0.80321441975E+02 -0.24776717638E+03  0.37413214360E+03  0.47269437125E+03  0.12500000000E+03 0.  0.
         25    1    1    2    0    0 -0.93766303827E+02  0.24057064257E+02 -0.71789538583E+01  0.15826370226E+03  0.12500000000E+03 0.  0.
         25    1    1    2    0    0  0.17408774580E+03  0.22371011213E+03 -0.11218159454E+03  0.32948819047E+03  0.12500000000E+03 0.  0.
</event>
<event>
 5    0  0.5648525E-005  0.3092615E+03  0.7546771E-02  0.1080700E+00
         21   -1    0    0  502  501  0.00000000000E+00  0.00000000000E+00  0.61821124578E+02  0.61821124578E+02  0.00000000000E+00 0. -1.
         21   -1    0    0  501  502 -0.00000000000E+00 -0.00000000000E+00 -0.15470870833E+04  0.15470870833E+04  0.00000000000E+00 0. -1.
         25    1    1    2    0    0 -0.85277094985E+01 -0.13639003646E+03 -0.51212664734E+03  0.54458577542E+03  0.12500000000E+03 0.  0.
         25    1    1    2    0    0  0.46253369908E+01 -0.62936893050E+02 -0.13774911875E+03  0.19642368993E+03  0.12500000000E+03 0.  0.
         25    1    1    2    0    0  0.39023725077E+01  0.19932692950E+03 -0.83539019262E+03  0.86789874252E+03  0.12500000000E+03 0.  0.
</event>
<event>
 5    0  0.5648525E-005  0.1997105E+03  0.7546771E-02  0.1149984E+00
         21   -1    0    0  502  501  0.00000000000E+00  0.00000000000E+00  0.25684539845E+02  0.25684539845E+02  0.00000000000E+00 0. -1.
         21   -1    0    0  501  502 -0.00000000000E+00 -0.00000000000E+00 -0.15528512513E+04  0.15528512513E+04  0.00000000000E+00 0. -1.
         25    1    1    2    0    0  0.47584469828E+01  0.20853696701E+02 -0.38641736333E+03  0.40669509238E+03  0.12500000000E+03 0.  0.
         25    1    1    2    0    0 -0.34781001072E+02 -0.30582474773E+02 -0.70189137386E+03  0.71443789548E+03  0.12500000000E+03 0.  0.
         25    1    1    2    0    0  0.30022554089E+02  0.97287780717E+01 -0.43885797428E+03  0.45740280330E+03  0.12500000000E+03 0.  0.
</event>
<event>
 5    0  0.5648525E-005  0.2628869E+03  0.7546771E-02  0.1105421E+00
         21   -1    0    0  502  501  0.00000000000E+00  0.00000000000E+00  0.20282110672E+03  0.20282110672E+03  0.00000000000E+00 0. -1.
         21   -1    0    0  501  502 -0.00000000000E+00 -0.00000000000E+00 -0.34074124661E+03  0.34074124661E+03  0.00000000000E+00 0. -1.
         25    1    1    2    0    0  0.39793345793E+02 -0.69247615407E+02 -0.32082001302E+02  0.15176625915E+03  0.12500000000E+03 0.  0.
         25    1    1    2    0    0 -0.89161701200E+02  0.99298098222E+02 -0.16081987788E+03  0.24351171305E+03  0.12500000000E+03 0.  0.
         25    1    1    2    0    0  0.49368355407E+02 -0.30050482815E+02  0.54981739284E+02  0.14828438113E+03  0.12500000000E+03 0.  0.
</event>
<event>
 5    0  0.6113636E-005  0.3737738E+03  0.7546771E-02  0.1053259E+00
         21   -1    0    0  502  501  0.00000000000E+00  0.00000000000E+00  0.55921794860E+03  0.55921794860E+03  0.00000000000E+00 0. -1.
         21   -1    0    0  501  502 -0.00000000000E+00 -0.00000000000E+00 -0.24982543851E+03  0.24982543851E+03  0.00000000000E+00 0. -1.
         25    1    1    2    0    0 -0.85788929539E+02  0.11873310711E+03 -0.10701139405E+03  0.22030372129E+03  0.12500000000E+03 0.  0.
         25    1    1    2    0    0 -0.74976837906E+02 -0.13908950345E+03  0.14230150433E+03  0.24666198395E+03  0.12500000000E+03 0.  0.
         25    1    1    2    0    0  0.16076576744E+03  0.20356396337E+02  0.27410239981E+03  0.34207768187E+03  0.12500000000E+03 0.  0.
</event>
<event>
 5    0  0.5648525E-005  0.3469298E+03  0.7546771E-02  0.1063882E+00
         21   -1    0    0  502  501  0.00000000000E+00  0.00000000000E+00  0.47141225795E+03  0.47141225795E+03  0.00000000000E+00 0. -1.
         21   -1    0    0  501  502 -0.00000000000E+00 -0.00000000000E+00 -0.25531852834E+03  0.25531852834E+03  0.00000000000E+00 0. -1.
         25    1    1    2    0    0 -0.13669767081E+03  0.10259867034E+03  0.27986556461E+03  0.35094511624E+03  0.12500000000E+03 0.  0.
         25    1    1    2    0    0  0.53886901412E+02  0.59988252017E+02 -0.16988551771E+02  0.14971973622E+03  0.12500000000E+03 0.  0.
         25    1    1    2    0    0  0.82810769394E+02 -0.16258692236E+03 -0.46783283226E+02  0.22606593383E+03  0.12500000000E+03 0.  0.
</event>
<event>
 5    0  0.5648525E-005  0.4153405E+03  0.7546771E-02  0.1038594E+00
         21   -1    0    0  502  501  0.00000000000E+00  0.00000000000E+00  0.10029433102E+03  0.10029433102E+03  0.00000000000E+00 0.  1.
         21   -1    0    0  501  502 -0.00000000000E+00 -0.00000000000E+00 -0.17200150030E+04  0.17200150030E+04  0.00000000000E+00 0.  1.
         25    1    1    2    0    0 -0.10511363843E+03  0.25454734741E+03 -0.44377799871E+03  0.53703551205E+03  0.12500000000E+03 0.  0.
         25    1    1    2    0    0  0.76836346977E+02 -0.33233379525E+03 -0.85914337733E+03  0.93279253776E+03  0.12500000000E+03 0.  0.
         25    1    1    2    0    0  0.28277291453E+02  0.77786447840E+02 -0.31679929590E+03  0.35048128418E+03  0.12500000000E+03 0.  0.
</event>
<event>
 5    0  0.5893309E-005  0.2677219E+03  0.7546771E-02  0.1102591E+00
         21   -1    0    0  502  501  0.00000000000E+00  0.00000000000E+00  0.31543298174E+03  0.31543298174E+03  0.00000000000E+00 0. -1.
         21   -1    0    0  501  502 -0.00000000000E+00 -0.00000000000E+00 -0.22722742791E+03  0.22722742791E+03  0.00000000000E+00 0. -1.
         25    1    1    2    0    0 -0.38913607956E+01 -0.14626607047E+03 -0.48174725993E+02  0.19838021647E+03  0.12500000000E+03 0.  0.
         25    1    1    2    0    0 -0.56504843506E+02  0.45462939795E+02  0.64990121273E+02  0.15845627819E+03  0.12500000000E+03 0.  0.
         25    1    1    2    0    0  0.60396204302E+02  0.10080313068E+03  0.71390158543E+02  0.18582391500E+03  0.12500000000E+03 0.  0.
</event>
<event>
 5    0  0.5648525E-005  0.2469922E+03  0.7546771E-02  0.1115221E+00
         21   -1    0    0  502  501  0.00000000000E+00  0.00000000000E+00  0.28260708108E+03  0.28260708108E+03  0.00000000000E+00 0.  1.
         21   -1    0    0  501  502 -0.00000000000E+00 -0.00000000000E+00 -0.21586552307E+03  0.21586552307E+03  0.00000000000E+00 0.  1.
         25    1    1    2    0    0 -0.15849043168E+02 -0.82702070733E+02 -0.44711170700E+02  0.15720977533E+03  0.12500000000E+03 0.  0.
         25    1    1    2    0    0  0.41305144868E+02 -0.38502491309E+02  0.89863618118E+02  0.16397873853E+03  0.12500000000E+03 0.  0.
         25    1    1    2    0    0 -0.25456101701E+02  0.12120456204E+03  0.21589110595E+02  0.17728409029E+03  0.12500000000E+03 0.  0.
</event>
<event>
 5    0  0.5648525E-005  0.3275697E+03  0.7546771E-02  0.1072217E+00
         21   -1    0    0  502  501  0.00000000000E+00  0.00000000000E+00  0.17256432291E+03  0.17256432291E+03  0.00000000000E+00 0.  1.
         21   -1    0    0  501  502 -0.00000000000E+00 -0.00000000000E+00 -0.62180823392E+03  0.62180823392E+03  0.00000000000E+00 0.  1.
         25    1    1    2    0    0  0.16947293616E+03  0.13863010874E+03 -0.72395220724E+02  0.26230793188E+03  0.12500000000E+03 0.  0.
         25    1    1    2    0    0 -0.13140523211E+03 -0.95875899156E+02 -0.32660209303E+03  0.38568568840E+03  0.12500000000E+03 0.  0.
         25    1    1    2    0    0 -0.38067704049E+02 -0.42754209587E+02 -0.50246597256E+02  0.14637893655E+03  0.12500000000E+03 0.  0.
</event>
<event>
 5    0  0.5648525E-005  0.3379313E+03  0.7546771E-02  0.1067680E+00
         21   -1    0    0  502  501  0.00000000000E+00  0.00000000000E+00  0.10601259196E+03  0.10601259196E+03  0.00000000000E+00 0.  1.
         21   -1    0    0  501  502 -0.00000000000E+00 -0.00000000000E+00 -0.10772073401E+04  0.10772073401E+04  0.00000000000E+00 0.  1.
         25    1    1    2    0    0 -0.14418094568E+03 -0.96200555964E+02 -0.84006508372E+02  0.22961878302E+03  0.12500000000E+03 0.  0.
         25    1    1    2    0    0  0.98543445702E+02  0.13734080470E+03 -0.52099695067E+03  0.56181503178E+03  0.12500000000E+03 0.  0.
         25    1    1    2    0    0  0.45637499976E+02 -0.41140248736E+02 -0.36619128909E+03  0.39178611726E+03  0.12500000000E+03 0.  0.
</event>
<event>
 5    0  0.5648525E-005  0.3312302E+03  0.7546771E-02  0.1070594E+00
         21   -1    0    0  502  501  0.00000000000E+00  0.00000000000E+00  0.42985756700E+03  0.42985756700E+03  0.00000000000E+00 0.  1.
         21   -1    0    0  501  502 -0.00000000000E+00 -0.00000000000E+00 -0.25523205700E+03  0.25523205700E+03  0.00000000000E+00 0.  1.
         25    1    1    2    0    0 -0.10377995433E+03  0.12062387173E+03  0.23511263948E+03  0.31019888877E+03  0.12500000000E+03 0.  0.
         25    1    1    2    0    0 -0.12648378906E+02  0.50815225335E+01  0.50514881019E+02  0.13550851104E+03  0.12500000000E+03 0.  0.
         25    1    1    2    0    0  0.11642833323E+03 -0.12570539426E+03 -0.11100201050E+03  0.23938222419E+03  0.12500000000E+03 0.  0.
</event>
<event>
 5    0  0.5648525E-005  0.3636552E+03  0.7546771E-02  0.1057146E+00
         21   -1    0    0  502  501  0.00000000000E+00  0.00000000000E+00  0.12775666565E+04  0.12775666565E+04  0.00000000000E+00 0.  1.
         21   -1    0    0  501  502 -0.00000000000E+00 -0.00000000000E+00 -0.10351326690E+03  0.10351326690E+03  0.00000000000E+00 0.  1.
         25    1    1    2    0    0 -0.23778098932E+03 -0.12705776407E+03  0.34638162589E+03  0.45638657413E+03  0.12500000000E+03 0.  0.
         25    1    1    2    0    0  0.21167281740E+02  0.64050706273E+01  0.34824042489E+03  0.37065546303E+03  0.12500000000E+03 0.  0.
         25    1    1    2    0    0  0.21661370758E+03  0.12065269344E+03  0.47943133885E+03  0.55403788627E+03  0.12500000000E+03 0.  0.
</event>
<event>
 5    0  0.5648525E-005  0.5456823E+03  0.7546771E-02  0.1002498E+00
         21   -1    0    0  502  501  0.00000000000E+00  0.00000000000E+00  0.11375755049E+04  0.11375755049E+04  0.00000000000E+00 0.  1.
         21   -1    0    0  501  502 -0.00000000000E+00 -0.00000000000E+00 -0.26175769358E+03  0.26175769358E+03  0.00000000000E+00 0.  1.
         25    1    1    2    0    0 -0.15127937842E+02  0.73794961849E+01  0.31643737842E+03  0.34064780335E+03  0.12500000000E+03 0.  0.
         25    1    1    2    0    0  0.33242821378E+03  0.22325306469E+03  0.80476730582E+02  0.42714394807E+03  0.12500000000E+03 0.  0.
         25    1    1    2    0    0 -0.31730027594E+03 -0.23063256087E+03  0.47890370226E+03  0.63154144701E+03  0.12500000000E+03 0.  0.
</event>
<event>
 5    0  0.5648525E-005  0.3222489E+03  0.7546771E-02  0.1074619E+00
         21   -1    0    0  502  501  0.00000000000E+00  0.00000000000E+00  0.12029955843E+04  0.12029955843E+04  0.00000000000E+00 0.  1.
         21   -1    0    0  501  502 -0.00000000000E+00 -0.00000000000E+00 -0.86321459722E+02  0.86321459722E+02  0.00000000000E+00 0.  1.
         25    1    1    2    0    0 -0.17172786703E+03  0.42017332685E+02  0.24936543459E+03  0.33024844667E+03  0.12500000000E+03 0.  0.
         25    1    1    2    0    0  0.86809275212E+01 -0.13470113279E+03  0.38526990946E+03  0.42693987494E+03  0.12500000000E+03 0.  0.
         25    1    1    2    0    0  0.16304693950E+03  0.92683800107E+02  0.48203878053E+03  0.53212872241E+03  0.12500000000E+03 0.  0.
</event>
<event>
 5    0  0.5648525E-005  0.2454883E+03  0.7546771E-02  0.1116190E+00
         21   -1    0    0  502  501  0.00000000000E+00  0.00000000000E+00  0.24094702565E+03  0.24094702565E+03  0.00000000000E+00 0.  1.
         21   -1    0    0  501  502 -0.00000000000E+00 -0.00000000000E+00 -0.25011524117E+03  0.25011524117E+03  0.00000000000E+00 0.  1.
         25    1    1    2    0    0 -0.41439514725E+02  0.16294531374E+02  0.10682791136E+02  0.13312350341E+03  0.12500000000E+03 0.  0.
         25    1    1    2    0    0  0.40051526525E+02  0.55972080802E+02  0.96701483555E+02  0.17237510124E+03  0.12500000000E+03 0.  0.
         25    1    1    2    0    0  0.13879882007E+01 -0.72266612175E+02 -0.11655249021E+03  0.18556366218E+03  0.12500000000E+03 0.  0.
</event>
<event>
 5    0  0.5648525E-005  0.4710634E+03  0.7546771E-02  0.1021620E+00
         21   -1    0    0  502  501  0.00000000000E+00  0.00000000000E+00  0.36960674413E+03  0.36960674413E+03  0.00000000000E+00 0. -1.
         21   -1    0    0  501  502 -0.00000000000E+00 -0.00000000000E+00 -0.60036991003E+03  0.60036991003E+03  0.00000000000E+00 0. -1.
         25    1    1    2    0    0  0.53502730643E+02 -0.16635674084E+03 -0.35424806895E+03  0.41431123780E+03  0.12500000000E+03 0.  0.
         25    1    1    2    0    0  0.11661260616E+03  0.20960031837E+03  0.18954916560E+03  0.33027969897E+03  0.12500000000E+03 0.  0.
         25    1    1    2    0    0 -0.17011533681E+03 -0.43243577527E+02 -0.66064262545E+02  0.22538571738E+03  0.12500000000E+03 0.  0.
</event>
<event>
 5    0  0.5648525E-005  0.2188504E+03  0.7546771E-02  0.1134743E+00
         21   -1    0    0  502  501  0.00000000000E+00  0.00000000000E+00  0.20301444860E+03  0.20301444860E+03  0.00000000000E+00 0. -1.
         21   -1    0    0  501  502 -0.00000000000E+00 -0.00000000000E+00 -0.23592157332E+03  0.23592157332E+03  0.00000000000E+00 0. -1.
         25    1    1    2    0    0  0.53343236478E+01 -0.77866944527E+02  0.31720503995E+01  0.14740006093E+03  0.12500000000E+03 0.  0.
         25    1    1    2    0    0 -0.95685687185E+01  0.70510617248E+02 -0.72484380763E+02  0.16106610477E+03  0.12500000000E+03 0.  0.
         25    1    1    2    0    0  0.42342450707E+01  0.73563272784E+01  0.36405205647E+02  0.13046985621E+03  0.12500000000E+03 0.  0.
</event>
<event>
 5    0  0.5648525E-005  0.3127318E+03  0.7546771E-02  0.1079044E+00
         21   -1    0    0  502  501  0.00000000000E+00  0.00000000000E+00  0.35338993269E+03  0.35338993269E+03  0.00000000000E+00 0. -1.
         21   -1    0    0  501  502 -0.00000000000E+00 -0.00000000000E+00 -0.27675149121E+03  0.27675149121E+03  0.00000000000E+00 0. -1.
         25    1    1    2    0    0 -0.15686980054E+02 -0.17786839286E+03  0.88923124963E+02  0.23540511608E+03  0.12500000000E+03 0.  0.
         25    1    1    2    0    0 -0.13886500526E+02  0.20052888007E+03 -0.77284923949E+02  0.24900326525E+03  0.12500000000E+03 0.  0.
         25    1    1    2    0    0  0.29573480580E+02 -0.22660487208E+02  0.65000240468E+02  0.14573304256E+03  0.12500000000E+03 0.  0.
</event>
<event>
 5    0  0.5648525E-005  0.2931522E+03  0.7546771E-02  0.1088715E+00
         21   -1    0    0  502  501  0.00000000000E+00  0.00000000000E+00  0.32603089698E+03  0.32603089698E+03  0.00000000000E+00 0. -1.
         21   -1    0    0  501  502 -0.00000000000E+00 -0.00000000000E+00 -0.26358924365E+03  0.26358924365E+03  0.00000000000E+00 0. -1.
         25    1    1    2    0    0 -0.12070637054E+03 -0.15777966733E+03 -0.18074768734E+02  0.23540634778E+03  0.12500000000E+03 0.  0.
         25    1    1    2    0    0  0.79782025582E+02  0.12978336245E+03 -0.79909982298E+00  0.19706478969E+03  0.12500000000E+03 0.  0.
         25    1    1    2    0    0  0.40924344956E+02  0.27996304873E+02  0.81315521883E+02  0.15714900316E+03  0.12500000000E+03 0.  0.
</event>
<event>
 5    0  0.5648525E-005  0.3028222E+03  0.7546771E-02  0.1083838E+00
         21   -1    0    0  502  501  0.00000000000E+00  0.00000000000E+00  0.20214375604E+03  0.20214375604E+03  0.00000000000E+00 0. -1.
         21   -1    0    0  501  502 -0.00000000000E+00 -0.00000000000E+00 -0.45364401268E+03  0.45364401268E+03  0.00000000000E+00 0. -1.
         25    1    1    2    0    0  0.15585926998E+03 -0.17948530284E+02 -0.29230954088E+03  0.35451957558E+03  0.12500000000E+03 0.  0.
         25    1    1    2    0    0 -0.59478181061E+02  0.22259783714E+02  0.11588328920E+02  0.14068561177E+03  0.12500000000E+03 0.  0.
         25    1    1    2    0    0 -0.96381088916E+02 -0.43112534306E+01  0.29220955326E+02  0.16058258136E+03  0.12500000000E+03 0.  0.
</event>
<event>
 5    0  0.5826024E-005  0.3473444E+03  0.7546771E-02  0.1063710E+00
         21   -1    0    0  502  501  0.00000000000E+00  0.00000000000E+00  0.73837442672E+03  0.73837442672E+03  0.00000000000E+00 0. -1.
         21   -1    0    0  501  502 -0.00000000000E+00 -0.00000000000E+00 -0.16339695352E+03  0.16339695352E+03  0.00000000000E+00 0. -1.
         25    1    1    2    0    0 -0.12071146758E+03 -0.93224466573E+02  0.32286238859E+02  0.19982357416E+03  0.12500000000E+03 0.  0.
         25    1    1    2    0    0  0.95701048302E+02  0.21599373228E+03  0.34877079277E+03  0.43940647346E+03  0.12500000000E+03 0.  0.
         25    1    1    2    0    0  0.25010419273E+02 -0.12276926571E+03  0.19392044156E+03  0.26254133261E+03  0.12500000000E+03 0.  0.
</event>
<event>
 5    0  0.5648525E-005  0.3066125E+03  0.7546771E-02  0.1081981E+00
         21   -1    0    0  502  501  0.00000000000E+00  0.00000000000E+00  0.49977942301E+03  0.49977942301E+03  0.00000000000E+00 0. -1.
         21   -1    0    0  501  502 -0.00000000000E+00 -0.00000000000E+00 -0.18810549044E+03  0.18810549044E+03  0.00000000000E+00 0. -1.
         25    1    1    2    0    0 -0.95223068925E+02  0.49646666965E+02 -0.53700637748E+02  0.17332334780E+03  0.12500000000E+03 0.  0.
         25    1    1    2    0    0  0.21652996731E+02  0.65257692062E+02  0.27235051736E+03  0.30745279792E+03  0.12500000000E+03 0.  0.
         25    1    1    2    0    0  0.73570072194E+02 -0.11490435903E+03  0.93024052958E+02  0.20710876774E+03  0.12500000000E+03 0.  0.
</event>
<event>
 5    0  0.5648525E-005  0.2203513E+03  0.7546771E-02  0.1133621E+00
         21   -1    0    0  502  501  0.00000000000E+00  0.00000000000E+00  0.28855470451E+03  0.28855470451E+03  0.00000000000E+00 0. -1.
         21   -1    0    0  501  502 -0.00000000000E+00 -0.00000000000E+00 -0.16826854641E+03  0.16826854641E+03  0.00000000000E+00 0. -1.
         25    1    1    2    0    0  0.54690299879E+02 -0.55314559241E+01  0.13699032341E+02  0.13723807559E+03  0.12500000000E+03 0.  0.
         25    1    1    2    0    0 -0.66477176578E+01  0.32741099237E+02 -0.22819328134E+02  0.13138452521E+03  0.12500000000E+03 0.  0.
         25    1    1    2    0    0 -0.48042582221E+02 -0.27209643313E+02  0.12940645389E+03  0.18820065012E+03  0.12500000000E+03 0.  0.
</event>
<event>
 5    0  0.5648525E-005  0.2835598E+03  0.7546771E-02  0.1093760E+00
         21   -1    0    0  502  501  0.00000000000E+00  0.00000000000E+00  0.11653255884E+03  0.11653255884E+03  0.00000000000E+00 0. -1.
         21   -1    0    0  501  502 -0.00000000000E+00 -0.00000000000E+00 -0.68998870421E+03  0.68998870421E+03  0.00000000000E+00 0. -1.
         25    1    1    2    0    0  0.15662599479E+03  0.12284826221E+02 -0.70224190365E+02  0.21269474867E+03  0.12500000000E+03 0.  0.
         25    1    1    2    0    0 -0.31573777564E+02 -0.42755762721E+02 -0.21483188327E+03  0.25417060559E+03  0.12500000000E+03 0.  0.
         25    1    1    2    0    0 -0.12505221722E+03  0.30470936500E+02 -0.28840007174E+03  0.33965590880E+03  0.12500000000E+03 0.  0.
</event>
<event>
 5    0  0.5648525E-005  0.2475180E+03  0.7546771E-02  0.1114883E+00
         21   -1    0    0  502  501  0.00000000000E+00  0.00000000000E+00  0.10491238562E+03  0.10491238562E+03  0.00000000000E+00 0.  1.
         21   -1    0    0  501  502 -0.00000000000E+00 -0.00000000000E+00 -0.58396520435E+03  0.58396520435E+03  0.00000000000E+00 0.  1.
         25    1    1    2    0    0  0.21439036898E+02  0.91052586156E+02 -0.11722400239E+03  0.19523491615E+03  0.12500000000E+03 0.  0.
         25    1    1    2    0    0  0.20664644969E+02  0.55624740704E+02 -0.14144189275E+03  0.19786851279E+03  0.12500000000E+03 0.  0.
         25    1    1    2    0    0 -0.42103681867E+02 -0.14667732686E+03 -0.22038692359E+03  0.29577416103E+03  0.12500000000E+03 0.  0.
</event>
<event>
 5    0  0.5648525E-005  0.3773082E+03  0.7546771E-02  0.1051933E+00
         21   -1    0    0  502  501  0.00000000000E+00  0.00000000000E+00  0.87353682444E+02  0.87353682444E+02  0.00000000000E+00 0.  1.
         21   -1    0    0  501  502 -0.00000000000E+00 -0.00000000000E+00 -0.16297134333E+04  0.16297134333E+04  0.00000000000E+00 0.  1.
         25    1    1    2    0    0 -0.26342225689E+03  0.64243995473E+02 -0.69819262622E+03  0.75935269782E+03  0.12500000000E+03 0.  0.
         25    1    1    2    0    0  0.75193487824E+02 -0.82682960701E+02 -0.14157234614E+03  0.21944990725E+03  0.12500000000E+03 0.  0.
         25    1    1    2    0    0  0.18822876907E+03  0.18438965227E+02 -0.70259477845E+03  0.73826451062E+03  0.12500000000E+03 0.  0.
</event>
<event>
 5    0  0.5648525E-005  0.3184191E+03  0.7546771E-02  0.1076379E+00
         21   -1    0    0  502  501  0.00000000000E+00  0.00000000000E+00  0.61695237522E+02  0.61695237522E+02  0.00000000000E+00 0.  1.
         21   -1    0    0  501  502 -0.00000000000E+00 -0.00000000000E+00 -0.16434124470E+04  0.16434124470E+04  0.00000000000E+00 0.  1.
         25    1    1    2    0    0  0.11493537000E+03 -0.78404892630E+02 -0.43364487655E+03  0.47226088704E+03  0.12500000000E+03 0.  0.
         25    1    1    2    0    0 -0.12555038194E+03 -0.12011691426E+03 -0.57292536527E+03  0.61160399416E+03  0.12500000000E+03 0.  0.
         25    1    1    2    0    0  0.10615011945E+02  0.19852180689E+03 -0.57514696769E+03  0.62124280337E+03  0.12500000000E+03 0.  0.
</event>
<event>
 5    0  0.5648525E-005  0.3408821E+03  0.7546771E-02  0.1066421E+00
         21   -1    0    0  502  501  0.00000000000E+00  0.00000000000E+00  0.49253351993E+03  0.49253351993E+03  0.00000000000E+00 0.  1.
         21   -1    0    0  501  502 -0.00000000000E+00 -0.00000000000E+00 -0.23592429291E+03  0.23592429291E+03  0.00000000000E+00 0.  1.
         25    1    1    2    0    0 -0.20875520217E+03  0.12758586005E+01 -0.27193189850E+02  0.24483633681E+03  0.12500000000E+03 0.  0.
         25    1    1    2    0    0  0.78274404613E+02 -0.47427731894E+02  0.13887262094E+02  0.15554461810E+03  0.12500000000E+03 0.  0.
         25    1    1    2    0    0  0.13048079756E+03  0.46151873294E+02  0.26991515477E+03  0.32807685794E+03  0.12500000000E+03 0.  0.
</event>
<event>
 5    0  0.5648525E-005  0.2732212E+03  0.7546771E-02  0.1099450E+00
         21   -1    0    0  502  501  0.00000000000E+00  0.00000000000E+00  0.23700719315E+03  0.23700719315E+03  0.00000000000E+00 0. -1.
         21   -1    0    0  501  502 -0.00000000000E+00 -0.00000000000E+00 -0.31496856054E+03  0.31496856054E+03  0.00000000000E+00 0. -1.
         25    1    1    2    0    0 -0.12585054955E+03 -0.10544224722E+03 -0.11062648531E+03  0.23413595959E+03  0.12500000000E+03 0.  0.
         25    1    1    2    0    0  0.99162950121E+02  0.99835412384E+02  0.19680754241E+02  0.18924252252E+03  0.12500000000E+03 0.  0.
         25    1    1    2    0    0  0.26687599426E+02  0.56068348330E+01  0.12984363681E+02  0.12859727159E+03  0.12500000000E+03 0.  0.
</event>
<event>
 5    0  0.5648525E-005  0.3574017E+03  0.7546771E-02  0.1059617E+00
         21   -1    0    0  502  501  0.00000000000E+00  0.00000000000E+00  0.73483271693E+03  0.73483271693E+03  0.00000000000E+00 0.  1.
         21   -1    0    0  501  502 -0.00000000000E+00 -0.00000000000E+00 -0.17383002671E+03  0.17383002671E+03  0.00000000000E+00 0.  1.
         25    1    1    2    0    0 -0.83381752158E+02  0.10913043896E+03  0.28098170671E+03  0.33680511992E+03  0.12500000000E+03 0.  0.
         25    1    1    2    0    0 -0.83233882788E+02  0.43282878180E+02  0.27191495706E+03  0.31363040455E+03  0.12500000000E+03 0.  0.
         25    1    1    2    0    0  0.16661563495E+03 -0.15241331714E+03  0.81060264474E+01  0.25822721916E+03  0.12500000000E+03 0.  0.
</event>
<event>
 5    0  0.5648525E-005  0.2223554E+03  0.7546771E-02  0.1132139E+00
         21   -1    0    0  502  501  0.00000000000E+00  0.00000000000E+00  0.27058373561E+02  0.27058373561E+02  0.00000000000E+00 0. -1.
         21   -1    0    0  501  502 -0.00000000000E+00 -0.00000000000E+00 -0.18272314936E+04  0.18272314936E+04  0.00000000000E+00 0. -1.
         25    1    1    2    0    0 -0.26632492799E+02 -0.75284240428E+02 -0.44084075384E+03  0.46512640946E+03  0.12500000000E+03 0.  0.
         25    1    1    2    0    0  0.66658454029E+02  0.57049425469E+02 -0.78835708569E+03  0.80301300176E+03  0.12500000000E+03 0.  0.
         25    1    1    2    0    0 -0.40025961230E+02  0.18234814959E+02 -0.57097528055E+03  0.58615045598E+03  0.12500000000E+03 0.  0.
</event>
<event>
 5    0  0.6133242E-005  0.2812078E+03  0.7546771E-02  0.1095031E+00
         21   -1    0    0  502  501  0.00000000000E+00  0.00000000000E+00  0.81786469737E+02  0.81786469737E+02  0.00000000000E+00 0. -1.
         21   -1    0    0  501  502 -0.00000000000E+00 -0.00000000000E+00 -0.96688179658E+03  0.96688179658E+03  0.00000000000E+00 0. -1.
         25    1    1    2    0    0 -0.25470346203E+02 -0.14383993821E+03 -0.17374207511E+03  0.25913312220E+03  0.12500000000E+03 0.  0.
         25    1    1    2    0    0  0.26903745982E+02  0.11345816958E+02 -0.46965085914E+03  0.48687726236E+03  0.12500000000E+03 0.  0.
         25    1    1    2    0    0 -0.14333997788E+01  0.13249412125E+03 -0.24170239260E+03  0.30265788176E+03  0.12500000000E+03 0.  0.
</event>
<event>
 5    0  0.5648525E-005  0.2836731E+03  0.7546771E-02  0.1093700E+00
         21   -1    0    0  502  501  0.00000000000E+00  0.00000000000E+00  0.55477905861E+02  0.55477905861E+02  0.00000000000E+00 0.  1.
         21   -1    0    0  501  502 -0.00000000000E+00 -0.00000000000E+00 -0.14504951715E+04  0.14504951715E+04  0.00000000000E+00 0.  1.
         25    1    1    2    0    0 -0.82082674661E+02  0.16549045841E+02 -0.10313009887E+04  0.10422179070E+04  0.12500000000E+03 0.  0.
         25    1    1    2    0    0  0.54458314525E+02 -0.16925165500E+02 -0.27679285125E+03  0.30901691175E+03  0.12500000000E+03 0.  0.
         25    1    1    2    0    0  0.27624360136E+02  0.37611965944E+00 -0.86923425686E+02  0.15473825859E+03  0.12500000000E+03 0.  0.
</event>
<event>
 5    0  0.5648525E-005  0.2400939E+03  0.7546771E-02  0.1119730E+00
         21   -1    0    0  502  501  0.00000000000E+00  0.00000000000E+00  0.17177446391E+03  0.17177446391E+03  0.00000000000E+00 0. -1.
         21   -1    0    0  501  502 -0.00000000000E+00 -0.00000000000E+00 -0.33558583346E+03  0.33558583346E+03  0.00000000000E+00 0. -1.
         25    1    1    2    0    0 -0.32904775070E+02  0.99098715092E+02  0.11764832514E+02  0.16329939020E+03  0.12500000000E+03 0.  0.
         25    1    1    2    0    0  0.13664226780E+02  0.11613433075E+02 -0.58176058730E+02  0.13903609866E+03  0.12500000000E+03 0.  0.
         25    1    1    2    0    0  0.19240548290E+02 -0.11071214817E+03 -0.11740014333E+03  0.20502480851E+03  0.12500000000E+03 0.  0.
</event>
<event>
 5    0  0.5648525E-005  0.2867592E+03  0.7546771E-02  0.1092053E+00
         21   -1    0    0  502  501  0.00000000000E+00  0.00000000000E+00  0.32262124556E+02  0.32262124556E+02  0.00000000000E+00 0.  1.
         21   -1    0    0  501  502 -0.00000000000E+00 -0.00000000000E+00 -0.25488348496E+04  0.25488348496E+04  0.00000000000E+00 0.  1.
         25    1    1    2    0    0  0.55220687193E+02 -0.52669671801E+02 -0.49833697112E+03  0.51941135471E+03  0.12500000000E+03 0.  0.
         25    1    1    2    0    0 -0.80882817457E+02  0.14081605638E+03 -0.58053061682E+03  0.61563949594E+03  0.12500000000E+03 0.  0.
         25    1    1    2    0    0  0.25662130264E+02 -0.88146384576E+02 -0.14377051371E+04  0.14460461235E+04  0.12500000000E+03 0.  0.
</event>
<event>
 5    0  0.5648525E-005  0.3480295E+03  0.7546771E-02  0.1063427E+00
         21   -1    0    0  502  501  0.00000000000E+00  0.00000000000E+00  0.40168470523E+02  0.40168470523E+02  0.00000000000E+00 0. -1.
         21   -1    0    0  501  502 -0.00000000000E+00 -0.00000000000E+00 -0.30154126245E+04  0.30154126245E+04  0.00000000000E+00 0. -1.
         25    1    1    2    0    0  0.96804806432E+02 -0.22654608602E+02 -0.94606551612E+03  0.95945263699E+03  0.12500000000E+03 0.  0.
         25    1    1    2    0    0 -0.14116348598E+03 -0.17990057751E+03 -0.13539705757E+04  0.13788229283E+04  0.12500000000E+03 0.  0.
         25    1    1    2    0    0  0.44358679548E+02  0.20255518611E+03 -0.67520806210E+03  0.71730552974E+03  0.12500000000E+03 0.  0.
</event>
<event>
 5    0  0.5648525E-005  0.2943213E+03  0.7546771E-02  0.1088114E+00
         21   -1    0    0  502  501  0.00000000000E+00  0.00000000000E+00  0.27638480231E+02  0.27638480231E+02  0.00000000000E+00 0.  1.
         21   -1    0    0  501  502 -0.00000000000E+00 -0.00000000000E+00 -0.31342178226E+04  0.31342178226E+04  0.00000000000E+00 0.  1.
         25    1    1    2    0    0  0.43582321752E+02  0.61618384934E+02 -0.31008402118E+03  0.34274384651E+03  0.12500000000E+03 0.  0.
         25    1    1    2    0    0 -0.99825870875E+02  0.62007655500E+02 -0.13979229839E+04  0.14084118087E+04  0.12500000000E+03 0.  0.
         25    1    1    2    0    0  0.56243549123E+02 -0.12362604043E+03 -0.13985723373E+04  0.14107006477E+04  0.12500000000E+03 0.  0.
</event>
<event>
 5    0  0.5862807E-005  0.2902964E+03  0.7546771E-02  0.1090194E+00
         21   -1    0    0  502  501  0.00000000000E+00  0.00000000000E+00  0.29218413096E+03  0.29218413096E+03  0.00000000000E+00 0. -1.
         21   -1    0    0  501  502 -0.00000000000E+00 -0.00000000000E+00 -0.28842089871E+03  0.28842089871E+03  0.00000000000E+00 0. -1.
         25    1    1    2    0    0 -0.17285379499E+03 -0.34887139708E+02 -0.82936706975E+01  0.21630841854E+03  0.12500000000E+03 0.  0.
         25    1    1    2    0    0  0.10164700872E+03  0.23601373875E+01 -0.90357793678E+02  0.18473552855E+03  0.12500000000E+03 0.  0.
         25    1    1    2    0    0  0.71206786268E+02  0.32527002321E+02  0.10241469662E+03  0.17956108257E+03  0.12500000000E+03 0.  0.
</event>
<event>
 5    0  0.5919021E-005  0.5217247E+03  0.7546771E-02  0.1008259E+00
         21   -1    0    0  502  501  0.00000000000E+00  0.00000000000E+00  0.48672943908E+03  0.48672943908E+03  0.00000000000E+00 0.  1.
         21   -1    0    0  501  502 -0.00000000000E+00 -0.00000000000E+00 -0.55923605790E+03  0.55923605790E+03  0.00000000000E+00 0.  1.
         25    1    1    2    0    0 -0.31595018792E+03  0.11976389792E+03 -0.11678840905E+03  0.37872476151E+03  0.12500000000E+03 0.  0.
         25    1    1    2    0    0  0.28086153661E+03 -0.10260740679E+03 -0.20652371447E+03  0.38430265068E+03  0.12500000000E+03 0.  0.
         25    1    1    2    0    0  0.35088651303E+02 -0.17156491134E+02  0.25080550470E+03  0.28293808479E+03  0.12500000000E+03 0.  0.
</event>
<event>
 5    0  0.5648525E-005  0.2639482E+03  0.7546771E-02  0.1104794E+00
         21   -1    0    0  502  501  0.00000000000E+00  0.00000000000E+00  0.11361227517E+04  0.11361227517E+04  0.00000000000E+00 0.  1.
         21   -1    0    0  501  502 -0.00000000000E+00 -0.00000000000E+00 -0.61321407129E+02  0.61321407129E+02  0.00000000000E+00 0.  1.
         25    1    1    2    0    0  0.13672686728E+03  0.37837128221E+02  0.26297584113E+03  0.32389377507E+03  0.12500000000E+03 0.  0.
         25    1    1    2    0    0 -0.11225126760E+03  0.27295322558E+02  0.54268334627E+03  0.56874915035E+03  0.12500000000E+03 0.  0.
         25    1    1    2    0    0 -0.24475599678E+02 -0.65132450780E+02  0.26914215720E+03  0.30480123344E+03  0.12500000000E+03 0.  0.
</event>
<event>
 5    0  0.5648525E-005  0.3749561E+03  0.7546771E-02  0.1052814E+00
         21   -1    0    0  502  501  0.00000000000E+00  0.00000000000E+00  0.36525602333E+02  0.36525602333E+02  0.00000000000E+00 0. -1.
         21   -1    0    0  501  502 -0.00000000000E+00 -0.00000000000E+00 -0.38491370276E+04  0.38491370276E+04  0.00000000000E+00 0. -1.
         25    1    1    2    0    0 -0.10282889880E+03 -0.21530985588E+02 -0.23592983017E+03  0.28692377129E+03  0.12500000000E+03 0.  0.
         25    1    1    2    0    0  0.82423905632E+02  0.86158259908E+02 -0.80093244018E+03  0.81935018136E+03  0.12500000000E+03 0.  0.
         25    1    1    2    0    0  0.20404993170E+02 -0.64627274320E+02 -0.27757491549E+04  0.27793886772E+04  0.12500000000E+03 0.  0.
</event>
<event>
 5    0  0.5648525E-005  0.4445618E+03  0.7546771E-02  0.1029356E+00
         21   -1    0    0  502  501  0.00000000000E+00  0.00000000000E+00  0.15510028684E+04  0.15510028684E+04  0.00000000000E+00 0.  1.
         21   -1    0    0  501  502 -0.00000000000E+00 -0.00000000000E+00 -0.12742410952E+03  0.12742410952E+03  0.00000000000E+00 0.  1.
         25    1    1    2    0    0  0.30585644781E+03  0.20331110397E+03  0.70137133156E+03  0.80151750848E+03  0.12500000000E+03 0.  0.
         25    1    1    2    0    0 -0.13930217116E+03  0.24157453151E+02  0.26026130838E+03  0.32148036654E+03  0.12500000000E+03 0.  0.
         25    1    1    2    0    0 -0.16655427664E+03 -0.22746855712E+03  0.46194611893E+03  0.55542910290E+03  0.12500000000E+03 0.  0.
</event>
<event>
 5    0  0.5648525E-005  0.3194478E+03  0.7546771E-02  0.1075904E+00
         21   -1    0    0  502  501  0.00000000000E+00  0.00000000000E+00  0.13235903547E+03  0.13235903547E+03  0.00000000000E+00 0. -1.
         21   -1    0    0  501  502 -0.00000000000E+00 -0.00000000000E+00 -0.77098548556E+03  0.77098548556E+03  0.00000000000E+00 0. -1.
         25    1    1    2    0    0 -0.84514178665E+02 -0.22899483548E+02 -0.53611099003E+03  0.55741100310E+03  0.12500000000E+03 0.  0.
         25    1    1    2    0    0 -0.22089322170E+02  0.85477666471E+02 -0.64499508059E+02  0.16607093713E+03  0.12500000000E+03 0.  0.
         25    1    1    2    0    0  0.10660350083E+03 -0.62578182924E+02 -0.38015952005E+02  0.17986258081E+03  0.12500000000E+03 0.  0.
</event>
<event>
 5    0  0.6069538E-005  0.3351059E+03  0.7546771E-02  0.1068900E+00
         21   -1    0    0  502  501  0.00000000000E+00  0.00000000000E+00  0.65303442154E+03  0.65303442154E+03  0.00000000000E+00 0.  1.
         21   -1    0    0  501  502 -0.00000000000E+00 -0.00000000000E+00 -0.17196021966E+03  0.17196021966E+03  0.00000000000E+00 0.  1.
         25    1    1    2    0    0  0.18114204163E+03 -0.17066362709E+02 -0.14931096848E+02  0.22125016979E+03  0.12500000000E+03 0.  0.
         25    1    1    2    0    0 -0.15715886800E+03  0.10785389974E+02  0.21065545610E+03  0.29123179018E+03  0.12500000000E+03 0.  0.
         25    1    1    2    0    0 -0.23983173632E+02  0.62809727353E+01  0.28534984263E+03  0.31251268122E+03  0.12500000000E+03 0.  0.
</event>
<event>
 5    0  0.5648525E-005  0.2352337E+03  0.7546771E-02  0.1123009E+00
         21   -1    0    0  502  501  0.00000000000E+00  0.00000000000E+00  0.12793230984E+04  0.12793230984E+04  0.00000000000E+00 0.  1.
         21   -1    0    0  501  502 -0.00000000000E+00 -0.00000000000E+00 -0.43253243365E+02  0.43253243365E+02  0.00000000000E+00 0.  1.
         25    1    1    2    0    0 -0.32927611378E+02 -0.87835026912E+02  0.57384018894E+03  0.59474093687E+03  0.12500000000E+03 0.  0.
         25    1    1    2    0    0 -0.34870711548E+02 -0.15097004743E+01  0.22940931293E+03  0.26357518581E+03  0.12500000000E+03 0.  0.
         25    1    1    2    0    0  0.67798322926E+02  0.89344727386E+02  0.43282035313E+03  0.46426021904E+03  0.12500000000E+03 0.  0.
</event>
<event>
 5    0  0.5648525E-005  0.2578336E+03  0.7546771E-02  0.1108452E+00
         21   -1    0    0  502  501  0.00000000000E+00  0.00000000000E+00  0.22348766366E+03  0.22348766366E+03  0.00000000000E+00 0. -1.
         21   -1    0    0  501  502 -0.00000000000E+00 -0.00000000000E+00 -0.29745793692E+03  0.29745793692E+03  0.00000000000E+00 0. -1.
         25    1    1    2    0    0 -0.86773899617E+02  0.95227651243E+02 -0.92536976528E+02  0.20195570614E+03  0.12500000000E+03 0.  0.
         25    1    1    2    0    0  0.86554216941E+02 -0.47910950831E+02  0.72167690171E+02  0.17498647715E+03  0.12500000000E+03 0.  0.
         25    1    1    2    0    0  0.21968267586E+00 -0.47316700412E+02 -0.53600986901E+02  0.14400341730E+03  0.12500000000E+03 0.  0.
</event>
<event>
 5    0  0.5648525E-005  0.2281800E+03  0.7546771E-02  0.1127927E+00
         21   -1    0    0  502  501  0.00000000000E+00  0.00000000000E+00  0.77453743302E+03  0.77453743302E+03  0.00000000000E+00 0. -1.
         21   -1    0    0  501  502 -0.00000000000E+00 -0.00000000000E+00 -0.67222173461E+02  0.67222173461E+02  0.00000000000E+00 0. -1.
         25    1    1    2    0    0 -0.25040478369E+02  0.10869324695E+03  0.21583289926E+03  0.27322168269E+03  0.12500000000E+03 0.  0.
         25    1    1    2    0    0  0.26552948652E+02 -0.91321054542E+02  0.23457715803E+03  0.28230486562E+03  0.12500000000E+03 0.  0.
         25    1    1    2    0    0 -0.15124702836E+01 -0.17372192406E+02  0.25690520226E+03  0.28623305816E+03  0.12500000000E+03 0.  0.
</event>
<event>
 5    0  0.5648525E-005  0.2345835E+03  0.7546771E-02  0.1123455E+00
         21   -1    0    0  502  501  0.00000000000E+00  0.00000000000E+00  0.28108880472E+02  0.28108880472E+02  0.00000000000E+00 0.  1.
         21   -1    0    0  501  502 -0.00000000000E+00 -0.00000000000E+00 -0.19577239760E+04  0.19577239760E+04  0.00000000000E+00 0.  1.
         25    1    1    2    0    0  0.36058351307E+02  0.18844868430E+02 -0.84748387065E+03  0.85761835613E+03  0.12500000000E+03 0.  0.
         25    1    1    2    0    0  0.36656687257E+02 -0.89620179776E+02 -0.52749947914E+03  0.55068701622E+03  0.12500000000E+03 0.  0.
         25    1    1    2    0    0 -0.72715038564E+02  0.70775311346E+02 -0.55463174579E+03  0.57752748416E+03  0.12500000000E+03 0.  0.
</event>
<event>
 5    0  0.5648525E-005  0.2804404E+03  0.7546771E-02  0.1095449E+00
         21   -1    0    0  502  501  0.00000000000E+00  0.00000000000E+00  0.64723671069E+03  0.64723671069E+03  0.00000000000E+00 0.  1.
         21   -1    0    0  501  502 -0.00000000000E+00 -0.00000000000E+00 -0.12151171024E+03  0.12151171024E+03  0.00000000000E+00 0.  1.
         25    1    1    2    0    0 -0.11342635532E+03  0.19600730842E+02  0.10866712165E+03  0.20170094213E+03  0.12500000000E+03 0.  0.
         25    1    1    2    0    0  0.13109040923E+03  0.45597492973E+02  0.83716743958E+02  0.20468834841E+03  0.12500000000E+03 0.  0.
         25    1    1    2    0    0 -0.17664053906E+02 -0.65198223816E+02  0.33334113485E+03  0.36235913038E+03  0.12500000000E+03 0.  0.
</event>
<event>
 5    0  0.5648525E-005  0.3429736E+03  0.7546771E-02  0.1065536E+00
         21   -1    0    0  502  501  0.00000000000E+00  0.00000000000E+00  0.13971640580E+03  0.13971640580E+03  0.00000000000E+00 0. -1.
         21   -1    0    0  501  502 -0.00000000000E+00 -0.00000000000E+00 -0.84192623269E+03  0.84192623269E+03  0.00000000000E+00 0. -1.
         25    1    1    2    0    0 -0.42697717697E+02  0.11970826607E+03 -0.37962705856E+03  0.41939822085E+03  0.12500000000E+03 0.  0.
         25    1    1    2    0    0 -0.39272888292E+02 -0.17704815251E+03 -0.21579915637E+02  0.22131222475E+03  0.12500000000E+03 0.  0.
         25    1    1    2    0    0  0.81970605989E+02  0.57339886445E+02 -0.30100285269E+03  0.34093219290E+03  0.12500000000E+03 0.  0.
</event>
<event>
 5    0  0.5648525E-005  0.3277571E+03  0.7546771E-02  0.1072134E+00
         21   -1    0    0  502  501  0.00000000000E+00  0.00000000000E+00  0.14744785315E+03  0.14744785315E+03  0.00000000000E+00 0. -1.
         21   -1    0    0  501  502 -0.00000000000E+00 -0.00000000000E+00 -0.72856073747E+03  0.72856073747E+03  0.00000000000E+00 0. -1.
         25    1    1    2    0    0 -0.84176047646E+02  0.15307911227E+03 -0.18993426559E+03  0.28673828984E+03  0.12500000000E+03 0.  0.
         25    1    1    2    0    0  0.76588747633E+02  0.78797253599E+02 -0.21659966203E+03  0.27315793423E+03  0.12500000000E+03 0.  0.
         25    1    1    2    0    0  0.75873000133E+01 -0.23187636587E+03 -0.17457895670E+03  0.31611236656E+03  0.12500000000E+03 0.  0.
</event>
<event>
 5    0  0.5648525E-005  0.3544438E+03  0.7546771E-02  0.1060806E+00
         21   -1    0    0  502  501  0.00000000000E+00  0.00000000000E+00  0.24864276550E+04  0.24864276550E+04  0.00000000000E+00 0. -1.
         21   -1    0    0  501  502 -0.00000000000E+00 -0.00000000000E+00 -0.50526458885E+02  0.50526458885E+02  0.00000000000E+00 0. -1.
         25    1    1    2    0    0  0.59027840062E+02 -0.18060798017E+02  0.29001504704E+03  0.32178285510E+03  0.12500000000E+03 0.  0.
         25    1    1    2    0    0 -0.11630318485E+03  0.97379791398E+02  0.27752940308E+03  0.34008355467E+03  0.12500000000E+03 0.  0.
         25    1    1    2    0    0  0.57275344793E+02 -0.79318993381E+02  0.18683567460E+04  0.18750877041E+04  0.12500000000E+03 0.  0.
</event>
<event>
 5    0  0.5648525E-005  0.2248864E+03  0.7546771E-02  0.1130292E+00
         21   -1    0    0  502  501  0.00000000000E+00  0.00000000000E+00  0.38414194499E+02  0.38414194499E+02  0.00000000000E+00 0.  1.
         21   -1    0    0  501  502 -0.00000000000E+00 -0.00000000000E+00 -0.13165419518E+04  0.13165419518E+04  0.00000000000E+00 0.  1.
         25    1    1    2    0    0  0.24816242460E+02 -0.14764651636E+01 -0.66085785553E+03  0.67303501473E+03  0.12500000000E+03 0.  0.
         25    1    1    2    0    0  0.20168956262E+02  0.60557354406E+02 -0.36028418373E+03  0.38665704832E+03  0.12500000000E+03 0.  0.
         25    1    1    2    0    0 -0.44985198722E+02 -0.59080889242E+02 -0.25698571802E+03  0.29526408323E+03  0.12500000000E+03 0.  0.
</event>
<event>
 5    0  0.5648525E-005  0.2337884E+03  0.7546771E-02  0.1124001E+00
         21   -1    0    0  502  501  0.00000000000E+00  0.00000000000E+00  0.31039928440E+03  0.31039928440E+03  0.00000000000E+00 0. -1.
         21   -1    0    0  501  502 -0.00000000000E+00 -0.00000000000E+00 -0.17608610211E+03  0.17608610211E+03  0.00000000000E+00 0. -1.
         25    1    1    2    0    0  0.39018384962E+02  0.97806683755E+00 -0.22875546022E+02  0.13293487724E+03  0.12500000000E+03 0.  0.
         25    1    1    2    0    0 -0.10136155986E+02 -0.25022822429E+02  0.18024510177E+03  0.22100266970E+03  0.12500000000E+03 0.  0.
         25    1    1    2    0    0 -0.28882228976E+02  0.24044755591E+02 -0.23056373454E+02  0.13254783959E+03  0.12500000000E+03 0.  0.
</event>
<event>
 5    0  0.5648525E-005  0.3089988E+03  0.7546771E-02  0.1080827E+00
         21   -1    0    0  502  501  0.00000000000E+00  0.00000000000E+00  0.73836073747E+03  0.73836073747E+03  0.00000000000E+00 0. -1.
         21   -1    0    0  501  502 -0.00000000000E+00 -0.00000000000E+00 -0.12931381594E+03  0.12931381594E+03  0.00000000000E+00 0. -1.
         25    1    1    2    0    0  0.49648842097E+02 -0.65045546242E+02  0.70626572173E+02  0.16525448044E+03  0.12500000000E+03 0.  0.
         25    1    1    2    0    0  0.50688551065E+02  0.94913303187E+02  0.28897746855E+02  0.16744534662E+03  0.12500000000E+03 0.  0.
         25    1    1    2    0    0 -0.10033739316E+03 -0.29867756945E+02  0.50952260251E+03  0.53497472635E+03  0.12500000000E+03 0.  0.
</event>
<event>
 5    0  0.5648525E-005  0.4160910E+03  0.7546771E-02  0.1038346E+00
         21   -1    0    0  502  501  0.00000000000E+00  0.00000000000E+00  0.48038935333E+03  0.48038935333E+03  0.00000000000E+00 0. -1.
         21   -1    0    0  501  502 -0.00000000000E+00 -0.00000000000E+00 -0.36039877140E+03  0.36039877140E+03  0.00000000000E+00 0. -1.
         25    1    1    2    0    0  0.14221936845E+03 -0.14229376191E+02  0.16389470551E+03  0.25082922159E+03  0.12500000000E+03 0.  0.
         25    1    1    2    0    0 -0.33130962404E+03 -0.27813948806E+02  0.42885622445E+00  0.35519694065E+03  0.12500000000E+03 0.  0.
         25    1    1    2    0    0  0.18909025559E+03  0.42043324997E+02 -0.44332979797E+02  0.23476196249E+03  0.12500000000E+03 0.  0.
</event>
<event>
 5    0  0.5648525E-005  0.4896329E+03  0.7546771E-02  0.1016521E+00
         21   -1    0    0  502  501  0.00000000000E+00  0.00000000000E+00  0.62726874324E+03  0.62726874324E+03  0.00000000000E+00 0.  1.
         21   -1    0    0  501  502 -0.00000000000E+00 -0.00000000000E+00 -0.38219717924E+03  0.38219717924E+03  0.00000000000E+00 0.  1.
         25    1    1    2    0    0 -0.22488696600E+03  0.14434758723E+03 -0.12426858716E+03  0.32012193797E+03  0.12500000000E+03 0.  0.
         25    1    1    2    0    0  0.34914379868E+03 -0.98638465971E+02  0.17104994583E+03  0.42013571985E+03  0.12500000000E+03 0.  0.
         25    1    1    2    0    0 -0.12425683268E+03 -0.45709121259E+02  0.19829020532E+03  0.26920826466E+03  0.12500000000E+03 0.  0.
</event>
<event>
 5    0  0.5648525E-005  0.2716432E+03  0.7546771E-02  0.1100343E+00
         21   -1    0    0  502  501  0.00000000000E+00  0.00000000000E+00  0.26780179452E+03  0.26780179452E+03  0.00000000000E+00 0. -1.
         21   -1    0    0  501  502 -0.00000000000E+00 -0.00000000000E+00 -0.27553979026E+03  0.27553979026E+03  0.00000000000E+00 0. -1.
         25    1    1    2    0    0  0.40899987933E+02 -0.46849937420E+02  0.15689997055E+03  0.21002458525E+03  0.12500000000E+03 0.  0.
         25    1    1    2    0    0 -0.85077471153E+02  0.26312623181E+02 -0.10813106218E+03  0.18774412599E+03  0.12500000000E+03 0.  0.
         25    1    1    2    0    0  0.44177483220E+02  0.20537314239E+02 -0.56506904112E+02  0.14557287354E+03  0.12500000000E+03 0.  0.
</event>
<event>
 5    0  0.5648525E-005  0.3064064E+03  0.7546771E-02  0.1082081E+00
         21   -1    0    0  502  501  0.00000000000E+00  0.00000000000E+00  0.13446665233E+03  0.13446665233E+03  0.00000000000E+00 0.  1.
         21   -1    0    0  501  502 -0.00000000000E+00 -0.00000000000E+00 -0.69820189961E+03  0.69820189961E+03  0.00000000000E+00 0.  1.
         25    1    1    2    0    0 -0.61601250303E+02  0.61205282264E+02 -0.35951618042E+01  0.15224561013E+03  0.12500000000E+03 0.  0.
         25    1    1    2    0    0  0.10312368246E+03  0.72754128086E+02 -0.38311446419E+03  0.42229059865E+03  0.12500000000E+03 0.  0.
         25    1    1    2    0    0 -0.41522432161E+02 -0.13395941035E+03 -0.17702562128E+03  0.25813234316E+03  0.12500000000E+03 0.  0.
</event>
<event>
 5    0  0.5796194E-005  0.2962073E+03  0.7546771E-02  0.1087152E+00
         21   -1    0    0  502  501  0.00000000000E+00  0.00000000000E+00  0.33841584514E+03  0.33841584514E+03  0.00000000000E+00 0. -1.
         21   -1    0    0  501  502 -0.00000000000E+00 -0.00000000000E+00 -0.25926312375E+03  0.25926312375E+03  0.00000000000E+00 0. -1.
         25    1    1    2    0    0  0.17244952202E+03  0.13478801490E+03  0.33385963123E+01  0.25207695815E+03  0.12500000000E+03 0.  0.
         25    1    1    2    0    0 -0.76745114105E+02 -0.77744315191E+02  0.12121190235E+02  0.16645093672E+03  0.12500000000E+03 0.  0.
         25    1    1    2    0    0 -0.95704407917E+02 -0.57043699705E+02  0.63692934849E+02  0.17915107401E+03  0.12500000000E+03 0.  0.
</event>
<event>
 5    0  0.5648525E-005  0.3624565E+03  0.7546771E-02  0.1057615E+00
         21   -1    0    0  502  501  0.00000000000E+00  0.00000000000E+00  0.30110431573E+03  0.30110431573E+03  0.00000000000E+00 0. -1.
         21   -1    0    0  501  502 -0.00000000000E+00 -0.00000000000E+00 -0.43630957591E+03  0.43630957591E+03  0.00000000000E+00 0. -1.
         25    1    1    2    0    0  0.93066267764E+02 -0.80030185363E+02 -0.16600242296E+02  0.17597365942E+03  0.12500000000E+03 0.  0.
         25    1    1    2    0    0 -0.22679209898E+03  0.19797867723E+03 -0.33670337176E+02  0.32770246322E+03  0.12500000000E+03 0.  0.
         25    1    1    2    0    0  0.13372583121E+03 -0.11794849187E+03 -0.84934680704E+02  0.23373776900E+03  0.12500000000E+03 0.  0.
</event>
<event>
 5    0  0.5648525E-005  0.3042563E+03  0.7546771E-02  0.1083132E+00
         21   -1    0    0  502  501  0.00000000000E+00  0.00000000000E+00  0.20042491999E+03  0.20042491999E+03  0.00000000000E+00 0.  1.
         21   -1    0    0  501  502 -0.00000000000E+00 -0.00000000000E+00 -0.46187822447E+03  0.46187822447E+03  0.00000000000E+00 0.  1.
         25    1    1    2    0    0 -0.16358401485E+03 -0.41160052758E+01 -0.10311695624E+03  0.23029280944E+03  0.12500000000E+03 0.  0.
         25    1    1    2    0    0  0.13902564320E+03  0.31619734499E+02  0.40863528386E+02  0.19396588625E+03  0.12500000000E+03 0.  0.
         25    1    1    2    0    0  0.24558371651E+02 -0.27503729223E+02 -0.19919987663E+03  0.23804444877E+03  0.12500000000E+03 0.  0.
</event>
<event>
 5    0  0.5710235E-005  0.4158678E+03  0.7546771E-02  0.1038420E+00
         21   -1    0    0  502  501  0.00000000000E+00  0.00000000000E+00  0.70555146906E+03  0.70555146906E+03  0.00000000000E+00 0. -1.
         21   -1    0    0  501  502 -0.00000000000E+00 -0.00000000000E+00 -0.24512176557E+03  0.24512176557E+03  0.00000000000E+00 0. -1.
         25    1    1    2    0    0  0.22906877412E+02 -0.17181623254E+03  0.37545718617E+03  0.43201694578E+03  0.12500000000E+03 0.  0.
         25    1    1    2    0    0 -0.15051502929E+03  0.86813552267E+02  0.19734994684E+03  0.29114149209E+03  0.12500000000E+03 0.  0.
         25    1    1    2    0    0  0.12760815187E+03  0.85002680278E+02 -0.11237742951E+03  0.22751479676E+03  0.12500000000E+03 0.  0.
</event>
<event>
 5    0  0.5648525E-005  0.2471548E+03  0.7546771E-02  0.1115116E+00
         21   -1    0    0  502  501  0.00000000000E+00  0.00000000000E+00  0.18751762708E+03  0.18751762708E+03  0.00000000000E+00 0.  1.
         21   -1    0    0  501  502 -0.00000000000E+00 -0.00000000000E+00 -0.32575861543E+03  0.32575861543E+03  0.00000000000E+00 0.  1.
         25    1    1    2    0    0 -0.23161932595E+02  0.68920527562E+02 -0.17129940434E+02  0.14561919207E+03  0.12500000000E+03 0.  0.
         25    1    1    2    0    0  0.98632021110E+02 -0.10378896941E+03 -0.10373612326E+03  0.21653315919E+03  0.12500000000E+03 0.  0.
         25    1    1    2    0    0 -0.75470088515E+02  0.34868441853E+02 -0.17374924658E+02  0.15112389124E+03  0.12500000000E+03 0.  0.
</event>
<event>
 5    0  0.5648525E-005  0.3379076E+03  0.7546771E-02  0.1067691E+00
         21   -1    0    0  502  501  0.00000000000E+00  0.00000000000E+00  0.22758515498E+04  0.22758515498E+04  0.00000000000E+00 0. -1.
         21   -1    0    0  501  502 -0.00000000000E+00 -0.00000000000E+00 -0.50170915694E+02  0.50170915694E+02  0.00000000000E+00 0. -1.
         25    1    1    2    0    0 -0.17382941475E+03  0.60066589660E+02  0.96147059244E+03  0.98685123537E+03  0.12500000000E+03 0.  0.
         25    1    1    2    0    0 -0.22850105282E+02 -0.12201767425E+03  0.32697815141E+03  0.37141641273E+03  0.12500000000E+03 0.  0.
         25    1    1    2    0    0  0.19667952003E+03  0.61951084592E+02  0.93723189021E+03  0.96775481735E+03  0.12500000000E+03 0.  0.
</event>
<event>
 5    0  0.5648525E-005  0.2285080E+03  0.7546771E-02  0.1127694E+00
         21   -1    0    0  502  501  0.00000000000E+00  0.00000000000E+00  0.26759345560E+03  0.26759345560E+03  0.00000000000E+00 0.  1.
         21   -1    0    0  501  502 -0.00000000000E+00 -0.00000000000E+00 -0.19513140884E+03  0.19513140884E+03  0.00000000000E+00 0. -1.
         25    1    1    2    0    0 -0.55982107801E+02  0.95442438009E+02 -0.90612444848E+01  0.16718361618E+03  0.12500000000E+03 0.  0.
         25    1    1    2    0    0 -0.77414521409E+01 -0.28512119014E+02  0.31670306452E+02  0.13229088904E+03  0.12500000000E+03 0.  0.
         25    1    1    2    0    0  0.63723559942E+02 -0.66930318994E+02  0.49852984795E+02  0.16325035922E+03  0.12500000000E+03 0.  0.
</event>
<event>
 5    0  0.5648525E-005  0.3331202E+03  0.7546771E-02  0.1069765E+00
         21   -1    0    0  502  501  0.00000000000E+00  0.00000000000E+00  0.10919325330E+04  0.10919325330E+04  0.00000000000E+00 0.  1.
         21   -1    0    0  501  502 -0.00000000000E+00 -0.00000000000E+00 -0.10162629605E+03  0.10162629605E+03  0.00000000000E+00 0.  1.
         25    1    1    2    0    0  0.13865097603E+02 -0.80289236378E+02  0.28025080562E+03  0.31749664008E+03  0.12500000000E+03 0.  0.
         25    1    1    2    0    0  0.16905420485E+03 -0.33314764012E+01  0.12433781967E+03  0.24428531743E+03  0.12500000000E+03 0.  0.
         25    1    1    2    0    0 -0.18291930245E+03  0.83620712780E+02  0.58571761161E+03  0.63177687150E+03  0.12500000000E+03 0.  0.
</event>
<event>
 5    0  0.5648525E-005  0.4087278E+03  0.7546771E-02  0.1040799E+00
         21   -1    0    0  502  501  0.00000000000E+00  0.00000000000E+00  0.79615277312E+02  0.79615277312E+02  0.00000000000E+00 0.  1.
         21   -1    0    0  501  502 -0.00000000000E+00 -0.00000000000E+00 -0.20983214989E+04  0.20983214989E+04  0.00000000000E+00 0.  1.
         25    1    1    2    0    0  0.35745678478E+02 -0.17727357738E+03 -0.38434412573E+03  0.44277430114E+03  0.12500000000E+03 0.  0.
         25    1    1    2    0    0 -0.23943126107E+03  0.55095483558E+02 -0.11376582317E+04  0.11705785293E+04  0.12500000000E+03 0.  0.
         25    1    1    2    0    0  0.20368558259E+03  0.12217809382E+03 -0.49670386418E+03  0.56458394580E+03  0.12500000000E+03 0.  0.
</event>
<event>
 5    0  0.5648525E-005  0.4491582E+03  0.7546771E-02  0.1027973E+00
         21   -1    0    0  502  501  0.00000000000E+00  0.00000000000E+00  0.12998091577E+03  0.12998091577E+03  0.00000000000E+00 0. -1.
         21   -1    0    0  501  502 -0.00000000000E+00 -0.00000000000E+00 -0.15520979541E+04  0.15520979541E+04  0.00000000000E+00 0.  1.
         25    1    1    2    0    0  0.14603559453E+03 -0.28449337000E+03 -0.55078730619E+03  0.64904123837E+03  0.12500000000E+03 0.  0.
         25    1    1    2    0    0  0.47998234930E+02 -0.42211330660E+02 -0.13341314930E+03  0.19367419911E+03  0.12500000000E+03 0.  0.
         25    1    1    2    0    0 -0.19403382946E+03  0.32670470066E+03 -0.73791658289E+03  0.83936343244E+03  0.12500000000E+03 0.  0.
</event>
<event>
 5    0  0.5648525E-005  0.3341513E+03  0.7546771E-02  0.1069315E+00
         21   -1    0    0  502  501  0.00000000000E+00  0.00000000000E+00  0.15335520880E+03  0.15335520880E+03  0.00000000000E+00 0.  1.
         21   -1    0    0  501  502 -0.00000000000E+00 -0.00000000000E+00 -0.72809438570E+03  0.72809438570E+03  0.00000000000E+00 0.  1.
         25    1    1    2    0    0 -0.30204332426E+02  0.20383590731E+02 -0.53136284226E+02  0.14062808101E+03  0.12500000000E+03 0.  0.
         25    1    1    2    0    0  0.19381364555E+03  0.19180385092E+02 -0.47153533177E+03  0.52526391984E+03  0.12500000000E+03 0.  0.
         25    1    1    2    0    0 -0.16360931313E+03 -0.39563975823E+02 -0.50067560897E+02  0.21555759365E+03  0.12500000000E+03 0.  0.
</event>
<event>
 5    0  0.5648525E-005  0.2658377E+03  0.7546771E-02  0.1103686E+00
         21   -1    0    0  502  501  0.00000000000E+00  0.00000000000E+00  0.69902524162E+02  0.69902524162E+02  0.00000000000E+00 0. -1.
         21   -1    0    0  501  502 -0.00000000000E+00 -0.00000000000E+00 -0.10109744632E+04  0.10109744632E+04  0.00000000000E+00 0. -1.
         25    1    1    2    0    0  0.90551242409E+01  0.52779133773E+01 -0.25590622575E+03  0.28499622458E+03  0.12500000000E+03 0.  0.
         25    1    1    2    0    0  0.47712907496E+02 -0.41611523920E+02 -0.62691929838E+03  0.64238683607E+03  0.12500000000E+03 0.  0.
         25    1    1    2    0    0 -0.56768031737E+02  0.36333610543E+02 -0.58246414859E+02  0.15349392668E+03  0.12500000000E+03 0.  0.
</event>
<event>
 5    0  0.5648525E-005  0.3093181E+03  0.7546771E-02  0.1080673E+00
         21   -1    0    0  502  501  0.00000000000E+00  0.00000000000E+00  0.39282705232E+03  0.39282705232E+03  0.00000000000E+00 0.  1.
         21   -1    0    0  501  502 -0.00000000000E+00 -0.00000000000E+00 -0.24356182357E+03  0.24356182357E+03  0.00000000000E+00 0.  1.
         25    1    1    2    0    0  0.26796521208E+02  0.15121681441E+03  0.84691207308E+02  0.21536522260E+03  0.12500000000E+03 0.  0.
         25    1    1    2    0    0  0.11990048414E+03 -0.61159040106E+02 -0.33589043954E+02  0.18673451249E+03  0.12500000000E+03 0.  0.
         25    1    1    2    0    0 -0.14669700535E+03 -0.90057774306E+02  0.98163065390E+02  0.23428914080E+03  0.12500000000E+03 0.  0.
</event>
<event>
 5    0  0.5648525E-005  0.3641497E+03  0.7546771E-02  0.1056953E+00
         21   -1    0    0  502  501  0.00000000000E+00  0.00000000000E+00  0.39528973019E+03  0.39528973019E+03  0.00000000000E+00 0.  1.
         21   -1    0    0  501  502 -0.00000000000E+00 -0.00000000000E+00 -0.33546281393E+03  0.33546281393E+03  0.00000000000E+00 0.  1.
         25    1    1    2    0    0  0.76247519543E+02 -0.18343481435E+03  0.12169705518E+03  0.26438076441E+03  0.12500000000E+03 0.  0.
         25    1    1    2    0    0 -0.14952351441E+02  0.26362935845E+03  0.53919511818E+01  0.29219528502E+03  0.12500000000E+03 0.  0.
         25    1    1    2    0    0 -0.61295168102E+02 -0.80194544101E+02 -0.67262090092E+02  0.17417649468E+03  0.12500000000E+03 0.  0.
</event>
<event>
 5    0  0.5648525E-005  0.2667936E+03  0.7546771E-02  0.1103129E+00
         21   -1    0    0  502  501  0.00000000000E+00  0.00000000000E+00  0.52725015368E+03  0.52725015368E+03  0.00000000000E+00 0. -1.
         21   -1    0    0  501  502 -0.00000000000E+00 -0.00000000000E+00 -0.13500013911E+03  0.13500013911E+03  0.00000000000E+00 0. -1.
         25    1    1    2    0    0  0.26394318260E+02 -0.18741971574E+02  0.12937245267E+03  0.18278444421E+03  0.12500000000E+03 0.  0.
         25    1    1    2    0    0  0.63250335558E+01  0.15182483035E+03  0.20733506931E+03  0.28583844410E+03  0.12500000000E+03 0.  0.
         25    1    1    2    0    0 -0.32719351816E+02 -0.13308285878E+03  0.55542492585E+02  0.19362740448E+03  0.12500000000E+03 0.  0.
</event>
<event>
 5    0  0.5648525E-005  0.4570372E+03  0.7546771E-02  0.1025644E+00
         21   -1    0    0  502  501  0.00000000000E+00  0.00000000000E+00  0.59703265139E+03  0.59703265139E+03  0.00000000000E+00 0. -1.
         21   -1    0    0  501  502 -0.00000000000E+00 -0.00000000000E+00 -0.34986858680E+03  0.34986858680E+03  0.00000000000E+00 0. -1.
         25    1    1    2    0    0 -0.66729388865E+02  0.58926651240E+02  0.51560995131E+03  0.53796262273E+03  0.12500000000E+03 0.  0.
         25    1    1    2    0    0 -0.25208863947E+02 -0.81790950501E+02 -0.13835169837E+03  0.20516198197E+03  0.12500000000E+03 0.  0.
         25    1    1    2    0    0  0.91938252812E+02  0.22864299261E+02 -0.13009418835E+03  0.20377663348E+03  0.12500000000E+03 0.  0.
</event>
<event>
 5    0  0.5648525E-005  0.4091369E+03  0.7546771E-02  0.1040661E+00
         21   -1    0    0  502  501  0.00000000000E+00  0.00000000000E+00  0.21110804025E+04  0.21110804025E+04  0.00000000000E+00 0. -1.
         21   -1    0    0  501  502 -0.00000000000E+00 -0.00000000000E+00 -0.79292590870E+02  0.79292590870E+02  0.00000000000E+00 0. -1.
         25    1    1    2    0    0  0.84858878576E+02  0.20353240164E+03  0.74898899616E+03  0.79071865044E+03  0.12500000000E+03 0.  0.
         25    1    1    2    0    0  0.34228888748E+02 -0.17167927672E+03  0.17296433846E+03  0.27602002329E+03  0.12500000000E+03 0.  0.
         25    1    1    2    0    0 -0.11908776732E+03 -0.31853124917E+02  0.11098344770E+04  0.11236343196E+04  0.12500000000E+03 0.  0.
</event>
<event>
 5    0  0.5648525E-005  0.3451812E+03  0.7546771E-02  0.1064610E+00
         21   -1    0    0  502  501  0.00000000000E+00  0.00000000000E+00  0.57181622835E+02  0.57181622835E+02  0.00000000000E+00 0. -1.
         21   -1    0    0  501  502 -0.00000000000E+00 -0.00000000000E+00 -0.20837125761E+04  0.20837125761E+04  0.00000000000E+00 0. -1.
         25    1    1    2    0    0 -0.43912224503E+02  0.13220131499E+03 -0.20444477653E+03  0.27717889133E+03  0.12500000000E+03 0.  0.
         25    1    1    2    0    0  0.13461851165E+03 -0.14497605815E+03 -0.98625149661E+03  0.10136356425E+04  0.12500000000E+03 0.  0.
         25    1    1    2    0    0 -0.90706287143E+02  0.12774743153E+02 -0.83583468015E+03  0.85007966517E+03  0.12500000000E+03 0.  0.
</event>
<event>
 5    0  0.5648525E-005  0.3170740E+03  0.7546771E-02  0.1077004E+00
         21   -1    0    0  502  501  0.00000000000E+00  0.00000000000E+00  0.13748933874E+04  0.13748933874E+04  0.00000000000E+00 0. -1.
         21   -1    0    0  501  502 -0.00000000000E+00 -0.00000000000E+00 -0.73122715046E+02  0.73122715046E+02  0.00000000000E+00 0. -1.
         25    1    1    2    0    0 -0.13266607963E+03  0.15358880119E+03  0.48391080142E+03  0.53942976583E+03  0.12500000000E+03 0.  0.
         25    1    1    2    0    0  0.11428469096E+03 -0.34987755609E+01  0.55695782470E+03  0.58215139828E+03  0.12500000000E+03 0.  0.
         25    1    1    2    0    0  0.18381388673E+02 -0.15009002563E+03  0.26090204628E+03  0.32643493838E+03  0.12500000000E+03 0.  0.
</event>
<event>
 5    0  0.5648525E-005  0.4960554E+03  0.7546771E-02  0.1014814E+00
         21   -1    0    0  502  501  0.00000000000E+00  0.00000000000E+00  0.10020240329E+04  0.10020240329E+04  0.00000000000E+00 0. -1.
         21   -1    0    0  501  502 -0.00000000000E+00 -0.00000000000E+00 -0.24557394933E+03  0.24557394933E+03  0.00000000000E+00 0. -1.
         25    1    1    2    0    0 -0.21898887564E+03  0.25979521374E+03  0.53391247964E+03  0.64508698379E+03  0.12500000000E+03 0.  0.
         25    1    1    2    0    0 -0.20881923110E+02 -0.17401240705E+03 -0.36442689538E+02  0.21833332806E+03  0.12500000000E+03 0.  0.
         25    1    1    2    0    0  0.23987079875E+03 -0.85782806685E+02  0.25898029346E+03  0.38417767037E+03  0.12500000000E+03 0.  0.
</event>
<event>
 5    0  0.5648525E-005  0.2036457E+03  0.7546771E-02  0.1146699E+00
         21   -1    0    0  502  501  0.00000000000E+00  0.00000000000E+00  0.10013206678E+03  0.10013206678E+03  0.00000000000E+00 0.  1.
         21   -1    0    0  501  502 -0.00000000000E+00 -0.00000000000E+00 -0.41416856929E+03  0.41416856929E+03  0.00000000000E+00 0.  1.
         25    1    1    2    0    0  0.25025644757E+02 -0.29310323869E+01 -0.19218378732E+03  0.23063928970E+03  0.12500000000E+03 0.  0.
         25    1    1    2    0    0 -0.99767714299E+01 -0.89694241023E+01 -0.35866060578E+02  0.13073393147E+03  0.12500000000E+03 0.  0.
         25    1    1    2    0    0 -0.15048873327E+02  0.11900456489E+02 -0.85986654622E+02  0.15292741489E+03  0.12500000000E+03 0.  0.
</event>
<event>
 5    0  0.5648525E-005  0.3460623E+03  0.7546771E-02  0.1064243E+00
         21   -1    0    0  502  501  0.00000000000E+00  0.00000000000E+00  0.32461271392E+03  0.32461271392E+03  0.00000000000E+00 0. -1.
         21   -1    0    0  501  502 -0.00000000000E+00 -0.00000000000E+00 -0.36892926004E+03  0.36892926004E+03  0.00000000000E+00 0. -1.
         25    1    1    2    0    0  0.33038341001E+02  0.26884470042E+03 -0.13095284557E+02  0.29860591320E+03  0.12500000000E+03 0.  0.
         25    1    1    2    0    0 -0.30753312564E+02 -0.22049816673E+03  0.74288947158E+01  0.25543178393E+03  0.12500000000E+03 0.  0.
         25    1    1    2    0    0 -0.22850284374E+01 -0.48346533688E+02 -0.38650156276E+02  0.13950427683E+03  0.12500000000E+03 0.  0.
</event>
<event>
 5    0  0.5648525E-005  0.2466830E+03  0.7546771E-02  0.1115419E+00
         21   -1    0    0  502  501  0.00000000000E+00  0.00000000000E+00  0.13769405637E+03  0.13769405637E+03  0.00000000000E+00 0. -1.
         21   -1    0    0  501  502 -0.00000000000E+00 -0.00000000000E+00 -0.44194003970E+03  0.44194003970E+03  0.00000000000E+00 0. -1.
         25    1    1    2    0    0 -0.33710922293E+02 -0.13106416925E+02 -0.98730930859E+02  0.16334320052E+03  0.12500000000E+03 0.  0.
         25    1    1    2    0    0  0.10014925247E+03 -0.91199672360E+02 -0.84021252629E+02  0.20256313559E+03  0.12500000000E+03 0.  0.
         25    1    1    2    0    0 -0.66438330175E+02  0.10430608929E+03 -0.12149379984E+03  0.21372775996E+03  0.12500000000E+03 0.  0.
</event>
<event>
 5    0  0.6027981E-005  0.2916057E+03  0.7546771E-02  0.1089514E+00
         21   -1    0    0  502  501  0.00000000000E+00  0.00000000000E+00  0.48254753848E+03  0.48254753848E+03  0.00000000000E+00 0.  1.
         21   -1    0    0  501  502 -0.00000000000E+00 -0.00000000000E+00 -0.17621867894E+03  0.17621867894E+03  0.00000000000E+00 0.  1.
         25    1    1    2    0    0 -0.67364430697E+02  0.27390908056E+02  0.68579120956E+01  0.14477658418E+03  0.12500000000E+03 0.  0.
         25    1    1    2    0    0 -0.10024724504E+03 -0.10286521794E+03  0.17809141212E+03  0.26071500584E+03  0.12500000000E+03 0.  0.
         25    1    1    2    0    0  0.16761167574E+03  0.75474309880E+02  0.12137953531E+03  0.25327462741E+03  0.12500000000E+03 0.  0.
</event>
<event>
 5    0  0.5648525E-005  0.4540727E+03  0.7546771E-02  0.1026514E+00
         21   -1    0    0  502  501  0.00000000000E+00  0.00000000000E+00  0.10538729749E+04  0.10538729749E+04  0.00000000000E+00 0. -1.
         21   -1    0    0  501  502 -0.00000000000E+00 -0.00000000000E+00 -0.19564218387E+03  0.19564218387E+03  0.00000000000E+00 0. -1.
         25    1    1    2    0    0 -0.62174648702E+02  0.26901041549E+03  0.21776781860E+03  0.37320250991E+03  0.12500000000E+03 0.  0.
         25    1    1    2    0    0  0.17074824402E+03 -0.27747464797E+03  0.61704110378E+03  0.70888071412E+03  0.12500000000E+03 0.  0.
         25    1    1    2    0    0 -0.10857359532E+03  0.84642324849E+01  0.23421868615E+02  0.16743193471E+03  0.12500000000E+03 0.  0.
</event>
<event>
 5    0  0.5648525E-005  0.3053539E+03  0.7546771E-02  0.1082594E+00
         21   -1    0    0  502  501  0.00000000000E+00  0.00000000000E+00  0.10115679128E+03  0.10115679128E+03  0.00000000000E+00 0. -1.
         21   -1    0    0  501  502 -0.00000000000E+00 -0.00000000000E+00 -0.92174752064E+03  0.92174752064E+03  0.00000000000E+00 0. -1.
         25    1    1    2    0    0  0.66377814768E+02  0.20852104540E+01 -0.51074860043E+03  0.52999952381E+03  0.12500000000E+03 0.  0.
         25    1    1    2    0    0 -0.17046621219E+03 -0.41924366985E+02 -0.18506506471E+03  0.28406066292E+03  0.12500000000E+03 0.  0.
         25    1    1    2    0    0  0.10408839742E+03  0.39839156531E+02 -0.12477706422E+03  0.20884412518E+03  0.12500000000E+03 0.  0.
</event>
<event>
 5    0  0.5648525E-005  0.3058991E+03  0.7546771E-02  0.1082328E+00
         21   -1    0    0  502  501  0.00000000000E+00  0.00000000000E+00  0.71610312381E+02  0.71610312381E+02  0.00000000000E+00 0. -1.
         21   -1    0    0  501  502 -0.00000000000E+00 -0.00000000000E+00 -0.13067152183E+04  0.13067152183E+04  0.00000000000E+00 0. -1.
         25    1    1    2    0    0 -0.78738729065E+02 -0.13394064656E+03 -0.24535146093E+03  0.31616803070E+03  0.12500000000E+03 0.  0.
         25    1    1    2    0    0 -0.45147450093E+02  0.44813562017E+02 -0.17714614238E+03  0.22594756770E+03  0.12500000000E+03 0.  0.
         25    1    1    2    0    0  0.12388617916E+03  0.89127084545E+02 -0.81260730258E+03  0.83620993225E+03  0.12500000000E+03 0.  0.
</event>
<event>
 5    0  0.5648525E-005  0.2501682E+03  0.7546771E-02  0.1113199E+00
         21   -1    0    0  502  501  0.00000000000E+00  0.00000000000E+00  0.54671300638E+03  0.54671300638E+03  0.00000000000E+00 0. -1.
         21   -1    0    0  501  502 -0.00000000000E+00 -0.00000000000E+00 -0.11447346111E+03  0.11447346111E+03  0.00000000000E+00 0. -1.
         25    1    1    2    0    0  0.73311796403E+02 -0.10195954955E+03  0.19753037355E+03  0.26535564382E+03  0.12500000000E+03 0.  0.
         25    1    1    2    0    0 -0.49658733132E+01  0.97155570176E+02  0.57735902655E+02  0.16858914309E+03  0.12500000000E+03 0.  0.
         25    1    1    2    0    0 -0.68345923090E+02  0.48039793726E+01  0.17697326907E+03  0.22724168057E+03  0.12500000000E+03 0.  0.
</event>
<event>
 5    0  0.5747555E-005  0.2759842E+03  0.7546771E-02  0.1097903E+00
         21   -1    0    0  502  501  0.00000000000E+00  0.00000000000E+00  0.22802212301E+03  0.22802212301E+03  0.00000000000E+00 0. -1.
         21   -1    0    0  501  502 -0.00000000000E+00 -0.00000000000E+00 -0.33403469018E+03  0.33403469018E+03  0.00000000000E+00 0. -1.
         25    1    1    2    0    0  0.13196007444E+03  0.35797833516E+02 -0.16863103557E+03  0.25051221984E+03  0.12500000000E+03 0.  0.
         25    1    1    2    0    0 -0.77913873441E+01 -0.28743883754E+02  0.18967942378E+02  0.12989110596E+03  0.12500000000E+03 0.  0.
         25    1    1    2    0    0 -0.12416868709E+03 -0.70539497613E+01  0.43650526021E+02  0.18165348740E+03  0.12500000000E+03 0.  0.
</event>
<event>
 5    0  0.5648525E-005  0.3651697E+03  0.7546771E-02  0.1056555E+00
         21   -1    0    0  502  501  0.00000000000E+00  0.00000000000E+00  0.10405144038E+03  0.10405144038E+03  0.00000000000E+00 0.  1.
         21   -1    0    0  501  502 -0.00000000000E+00 -0.00000000000E+00 -0.12815670779E+04  0.12815670779E+04  0.00000000000E+00 0.  1.
         25    1    1    2    0    0  0.12220608581E+03 -0.95156217094E+02 -0.19444073851E+03  0.27824671400E+03  0.12500000000E+03 0.  0.
         25    1    1    2    0    0  0.46199814099E+02 -0.94356397451E+02 -0.65155653605E+03  0.67170564403E+03  0.12500000000E+03 0.  0.
         25    1    1    2    0    0 -0.16840589991E+03  0.18951261454E+03 -0.33151836292E+03  0.43566616021E+03  0.12500000000E+03 0.  0.
</event>
<event>
 5    0  0.5648525E-005  0.2885323E+03  0.7546771E-02  0.1091118E+00
         21   -1    0    0  502  501  0.00000000000E+00  0.00000000000E+00  0.11470959983E+03  0.11470959983E+03  0.00000000000E+00 0.  1.
         21   -1    0    0  501  502 -0.00000000000E+00 -0.00000000000E+00 -0.72575341787E+03  0.72575341787E+03  0.00000000000E+00 0.  1.
         25    1    1    2    0    0 -0.16218363542E+02  0.54480159961E+02 -0.30965834451E+03  0.33873944776E+03  0.12500000000E+03 0.  0.
         25    1    1    2    0    0  0.80810329484E+02 -0.39314102106E+02  0.15445222150E+02  0.15472382772E+03  0.12500000000E+03 0.  0.
         25    1    1    2    0    0 -0.64591965942E+02 -0.15166057855E+02 -0.31683069568E+03  0.34699974222E+03  0.12500000000E+03 0.  0.
</event>
<event>
 5    0  0.5885554E-005  0.3826361E+03  0.7546771E-02  0.1049964E+00
         21   -1    0    0  502  501  0.00000000000E+00  0.00000000000E+00  0.64207408948E+03  0.64207408948E+03  0.00000000000E+00 0.  1.
         21   -1    0    0  501  502 -0.00000000000E+00 -0.00000000000E+00 -0.22802726589E+03  0.22802726589E+03  0.00000000000E+00 0.  1.
         25    1    1    2    0    0  0.99365190674E+02  0.11317410901E+02 -0.96981290425E+02  0.18716809450E+03  0.12500000000E+03 0.  0.
         25    1    1    2    0    0 -0.70421970786E+02 -0.18264711195E+03  0.20701467393E+03  0.31112585347E+03  0.12500000000E+03 0.  0.
         25    1    1    2    0    0 -0.28943219889E+02  0.17132970105E+03  0.30401344008E+03  0.37180740739E+03  0.12500000000E+03 0.  0.
</event>
<event>
 5    0  0.5648525E-005  0.3274600E+03  0.7546771E-02  0.1072266E+00
         21   -1    0    0  502  501  0.00000000000E+00  0.00000000000E+00  0.22471554684E+03  0.22471554684E+03  0.00000000000E+00 0. -1.
         21   -1    0    0  501  502 -0.00000000000E+00 -0.00000000000E+00 -0.47718123769E+03  0.47718123769E+03  0.00000000000E+00 0. -1.
         25    1    1    2    0    0 -0.24150647110E+02  0.32281795386E+02 -0.13149590432E+03  0.18585354697E+03  0.12500000000E+03 0.  0.
         25    1    1    2    0    0 -0.18944117319E+03 -0.99401712115E+01  0.23857387960E+02  0.22843147783E+03  0.12500000000E+03 0.  0.
         25    1    1    2    0    0  0.21359182030E+03 -0.22341624175E+02 -0.14482717449E+03  0.28761175973E+03  0.12500000000E+03 0.  0.
</event>
<event>
 5    0  0.5648525E-005  0.2203456E+03  0.7546771E-02  0.1133626E+00
         21   -1    0    0  502  501  0.00000000000E+00  0.00000000000E+00  0.23579464036E+03  0.23579464036E+03  0.00000000000E+00 0.  1.
         21   -1    0    0  501  502 -0.00000000000E+00 -0.00000000000E+00 -0.20590885179E+03  0.20590885179E+03  0.00000000000E+00 0.  1.
         25    1    1    2    0    0 -0.55717801213E+02  0.82765421122E+02  0.54063514813E+02  0.16882669202E+03  0.12500000000E+03 0.  0.
         25    1    1    2    0    0  0.22116010586E+02 -0.23176089183E+02 -0.17544946087E+02  0.13022701013E+03  0.12500000000E+03 0.  0.
         25    1    1    2    0    0  0.33601790627E+02 -0.59589331938E+02 -0.66327801563E+01  0.14264979000E+03  0.12500000000E+03 0.  0.
</event>
<event>
 5    0  0.5648525E-005  0.3697573E+03  0.7546771E-02  0.1054786E+00
         21   -1    0    0  502  501  0.00000000000E+00  0.00000000000E+00  0.78160641904E+03  0.78160641904E+03  0.00000000000E+00 0. -1.
         21   -1    0    0  501  502 -0.00000000000E+00 -0.00000000000E+00 -0.17492238551E+03  0.17492238551E+03  0.00000000000E+00 0. -1.
         25    1    1    2    0    0 -0.18334360222E+03  0.88869193648E+02  0.12378711304E+03  0.26918554829E+03  0.12500000000E+03 0.  0.
         25    1    1    2    0    0  0.13686395488E+03 -0.20702442950E+03  0.40896948397E+03  0.49444099281E+03  0.12500000000E+03 0.  0.
         25    1    1    2    0    0  0.46479647338E+02  0.11815523585E+03  0.73927436520E+02  0.19290226346E+03  0.12500000000E+03 0.  0.
</event>
<event>
 5    0  0.7066638E-005  0.5902428E+03  0.7546771E-02  0.9925859E-01
         21   -1    0    0  502  501  0.00000000000E+00  0.00000000000E+00  0.52899442391E+03  0.52899442391E+03  0.00000000000E+00 0.  1.
         21   -1    0    0  501  502 -0.00000000000E+00 -0.00000000000E+00 -0.65858260765E+03  0.65858260765E+03  0.00000000000E+00 0.  1.
         25    1    1    2    0    0 -0.38132961125E+03 -0.61302854145E+02  0.59138404727E+01  0.40599296281E+03  0.12500000000E+03 0.  0.
         25    1    1    2    0    0  0.10460277119E+03  0.19888247361E+03  0.18684988482E+03  0.31785823492E+03  0.12500000000E+03 0.  0.
         25    1    1    2    0    0  0.27672684005E+03 -0.13757961946E+03 -0.32235190904E+03  0.46372583383E+03  0.12500000000E+03 0.  0.
</event>
<event>
 5    0  0.5648525E-005  0.2884152E+03  0.7546771E-02  0.1091179E+00
         21   -1    0    0  502  501  0.00000000000E+00  0.00000000000E+00  0.43549260976E+03  0.43549260976E+03  0.00000000000E+00 0. -1.
         21   -1    0    0  501  502 -0.00000000000E+00 -0.00000000000E+00 -0.19100979677E+03  0.19100979677E+03  0.00000000000E+00 0. -1.
         25    1    1    2    0    0  0.80700253770E+02  0.14702763253E+03  0.25124350941E+00  0.20917628644E+03  0.12500000000E+03 0.  0.
         25    1    1    2    0    0 -0.10386578563E+03 -0.13215768236E+03  0.13644466597E+03  0.24999180247E+03  0.12500000000E+03 0.  0.
         25    1    1    2    0    0  0.23165531860E+02 -0.14869950175E+02  0.10778690351E+03  0.16733431762E+03  0.12500000000E+03 0.  0.
</event>
<event>
 5    0  0.5648525E-005  0.4069089E+03  0.7546771E-02  0.1041413E+00
         21   -1    0    0  502  501  0.00000000000E+00  0.00000000000E+00  0.23426431130E+03  0.23426431130E+03  0.00000000000E+00 0.  1.
         21   -1    0    0  501  502 -0.00000000000E+00 -0.00000000000E+00 -0.70678656624E+03  0.70678656624E+03  0.00000000000E+00 0.  1.
         25    1    1    2    0    0 -0.24798394747E+03  0.23292152022E+02 -0.31010096066E+03  0.41692465548E+03  0.12500000000E+03 0.  0.
         25    1    1    2    0    0  0.21412730882E+03  0.13323320431E+03 -0.33357410749E+02  0.28344189521E+03  0.12500000000E+03 0.  0.
         25    1    1    2    0    0  0.33856638654E+02 -0.15652535633E+03 -0.12906388353E+03  0.24068432684E+03  0.12500000000E+03 0.  0.
</event>
<event>
 5    0  0.5648525E-005  0.3151097E+03  0.7546771E-02  0.1077922E+00
         21   -1    0    0  502  501  0.00000000000E+00  0.00000000000E+00  0.41360344687E+03  0.41360344687E+03  0.00000000000E+00 0. -1.
         21   -1    0    0  501  502 -0.00000000000E+00 -0.00000000000E+00 -0.24007078146E+03  0.24007078146E+03  0.00000000000E+00 0. -1.
         25    1    1    2    0    0 -0.20298818063E+03  0.98205637644E+02  0.58228667768E+02  0.26431822959E+03  0.12500000000E+03 0.  0.
         25    1    1    2    0    0  0.16118010917E+03 -0.28596390439E+02  0.87912283887E+01  0.20615301801E+03  0.12500000000E+03 0.  0.
         25    1    1    2    0    0  0.41808071469E+02 -0.69609247205E+02  0.10651276925E+03  0.18320298073E+03  0.12500000000E+03 0.  0.
</event>
<event>
 5    0  0.5648525E-005  0.2287848E+03  0.7546771E-02  0.1127498E+00
         21   -1    0    0  502  501  0.00000000000E+00  0.00000000000E+00  0.66640948158E+02  0.66640948158E+02  0.00000000000E+00 0.  1.
         21   -1    0    0  501  502 -0.00000000000E+00 -0.00000000000E+00 -0.78544025513E+03  0.78544025513E+03  0.00000000000E+00 0.  1.
         25    1    1    2    0    0 -0.64804024889E+01 -0.19578492635E+02 -0.16767958427E+03  0.21015888268E+03  0.12500000000E+03 0.  0.
         25    1    1    2    0    0  0.93240730663E+02  0.26243149863E+02 -0.17355208831E+03  0.23479323697E+03  0.12500000000E+03 0.  0.
         25    1    1    2    0    0 -0.86760328174E+02 -0.66646572287E+01 -0.37756763439E+03  0.40712908364E+03  0.12500000000E+03 0.  0.
</event>
<event>
 5    0  0.5648525E-005  0.2446889E+03  0.7546771E-02  0.1116708E+00
         21   -1    0    0  502  501  0.00000000000E+00  0.00000000000E+00  0.65995863035E+03  0.65995863035E+03  0.00000000000E+00 0.  1.
         21   -1    0    0  501  502 -0.00000000000E+00 -0.00000000000E+00 -0.90721829984E+02  0.90721829984E+02  0.00000000000E+00 0.  1.
         25    1    1    2    0    0 -0.54450755544E+02  0.20188960212E+02  0.43857807176E+02  0.14464088683E+03  0.12500000000E+03 0.  0.
         25    1    1    2    0    0  0.77549871006E+02 -0.17089567263E+02  0.15469410037E+03  0.21415251689E+03  0.12500000000E+03 0.  0.
         25    1    1    2    0    0 -0.23099115462E+02 -0.30993929485E+01  0.37068489282E+03  0.39188705661E+03  0.12500000000E+03 0.  0.
</event>
<event>
 5    0  0.5648525E-005  0.2814482E+03  0.7546771E-02  0.1094901E+00
         21   -1    0    0  502  501  0.00000000000E+00  0.00000000000E+00  0.41236835042E+02  0.41236835042E+02  0.00000000000E+00 0.  1.
         21   -1    0    0  501  502 -0.00000000000E+00 -0.00000000000E+00 -0.19209301038E+04  0.19209301038E+04  0.00000000000E+00 0.  1.
         25    1    1    2    0    0  0.82290945060E+02  0.11322346657E+02 -0.55913023956E+03  0.57892281002E+03  0.12500000000E+03 0.  0.
         25    1    1    2    0    0  0.96512846247E+02 -0.83336492999E+02 -0.66650513266E+03  0.69000999444E+03  0.12500000000E+03 0.  0.
         25    1    1    2    0    0 -0.17880379131E+03  0.72014146341E+02 -0.65405789657E+03  0.69323413442E+03  0.12500000000E+03 0.  0.
</event>
<event>
 5    0  0.5648525E-005  0.8541348E+03  0.7546771E-02  0.9484804E-01
         21   -1    0    0  502  501  0.00000000000E+00  0.00000000000E+00  0.48855196822E+03  0.48855196822E+03  0.00000000000E+00 0. -1.
         21   -1    0    0  501  502 -0.00000000000E+00 -0.00000000000E+00 -0.14932828481E+04  0.14932828481E+04  0.00000000000E+00 0. -1.
         25    1    1    2    0    0  0.25824599580E+03 -0.64031681408E+03 -0.25060143747E+03  0.74506556570E+03  0.12500000000E+03 0.  0.
         25    1    1    2    0    0 -0.24462191428E+03  0.14534046815E+02 -0.38386961871E+02  0.27775830915E+03  0.12500000000E+03 0.  0.
         25    1    1    2    0    0 -0.13624081521E+02  0.62578276726E+03 -0.71574248059E+03  0.95901094150E+03  0.12500000000E+03 0.  0.
</event>
<event>
 5    0  0.5648525E-005  0.3265461E+03  0.7546771E-02  0.1072675E+00
         21   -1    0    0  502  501  0.00000000000E+00  0.00000000000E+00  0.43496524405E+03  0.43496524405E+03  0.00000000000E+00 0. -1.
         21   -1    0    0  501  502 -0.00000000000E+00 -0.00000000000E+00 -0.24515145961E+03  0.24515145961E+03  0.00000000000E+00 0. -1.
         25    1    1    2    0    0 -0.11265467666E+03  0.10873894091E+03  0.29498233790E+03  0.35658773551E+03  0.12500000000E+03 0.  0.
         25    1    1    2    0    0  0.25100110641E+02 -0.76955225598E+02 -0.65404616026E+02  0.16264958069E+03  0.12500000000E+03 0.  0.
         25    1    1    2    0    0  0.87554566024E+02 -0.31783715314E+02 -0.39763937431E+02  0.16087938746E+03  0.12500000000E+03 0.  0.
</event>
<event>
 5    0  0.7523745E-005  0.5848610E+03  0.7546771E-02  0.9937322E-01
         21   -1    0    0  502  501  0.00000000000E+00  0.00000000000E+00  0.82862521635E+03  0.82862521635E+03  0.00000000000E+00 0. -1.
         21   -1    0    0  501  502 -0.00000000000E+00 -0.00000000000E+00 -0.41280711092E+03  0.41280711092E+03  0.00000000000E+00 0.  1.
         25    1    1    2    0    0 -0.71137656035E+02 -0.47239447443E+02 -0.20271323111E+03  0.25300155250E+03  0.12500000000E+03 0.  0.
         25    1    1    2    0    0 -0.30634940942E+03 -0.85284913476E+02  0.19907316381E+03  0.39544734373E+03  0.12500000000E+03 0.  0.
         25    1    1    2    0    0  0.37748706545E+03  0.13252436092E+03  0.41945817273E+03  0.59298343104E+03  0.12500000000E+03 0.  0.
</event>
<event>
 5    0  0.5648525E-005  0.2884091E+03  0.7546771E-02  0.1091183E+00
         21   -1    0    0  502  501  0.00000000000E+00  0.00000000000E+00  0.10169540983E+03  0.10169540983E+03  0.00000000000E+00 0. -1.
         21   -1    0    0  501  502 -0.00000000000E+00 -0.00000000000E+00 -0.81793091416E+03  0.81793091416E+03  0.00000000000E+00 0. -1.
         25    1    1    2    0    0 -0.15656519158E+03 -0.10625205054E+03 -0.22396299879E+03  0.31872650076E+03  0.12500000000E+03 0.  0.
         25    1    1    2    0    0  0.15908581495E+03  0.70013371441E+02 -0.29315482372E+03  0.36300815330E+03  0.12500000000E+03 0.  0.
         25    1    1    2    0    0 -0.25206233619E+01  0.36238679104E+02 -0.19911768182E+03  0.23789166992E+03  0.12500000000E+03 0.  0.
</event>
<event>
 5    0  0.5648525E-005  0.2767692E+03  0.7546771E-02  0.1097467E+00
         21   -1    0    0  502  501  0.00000000000E+00  0.00000000000E+00  0.10844731642E+04  0.10844731642E+04  0.00000000000E+00 0. -1.
         21   -1    0    0  501  502 -0.00000000000E+00 -0.00000000000E+00 -0.70634497719E+02  0.70634497719E+02  0.00000000000E+00 0. -1.
         25    1    1    2    0    0 -0.10618123332E+03 -0.34402956512E+02  0.94666902390E+02  0.19247036170E+03  0.12500000000E+03 0.  0.
         25    1    1    2    0    0  0.93824352682E+02  0.32953306402E+02  0.48213484821E+03  0.50790544535E+03  0.12500000000E+03 0.  0.
         25    1    1    2    0    0  0.12356880640E+02  0.14496501099E+01  0.43703691590E+03  0.45473185488E+03  0.12500000000E+03 0.  0.
</event>
<event>
 5    0  0.5648525E-005  0.3312574E+03  0.7546771E-02  0.1070582E+00
         21   -1    0    0  502  501  0.00000000000E+00  0.00000000000E+00  0.12524750511E+03  0.12524750511E+03  0.00000000000E+00 0.  1.
         21   -1    0    0  501  502 -0.00000000000E+00 -0.00000000000E+00 -0.87611672430E+03  0.87611672430E+03  0.00000000000E+00 0.  1.
         25    1    1    2    0    0 -0.25225866348E+03 -0.60669873098E+02 -0.32051208916E+03  0.43089240664E+03  0.12500000000E+03 0.  0.
         25    1    1    2    0    0  0.13879202197E+03 -0.32611295036E+01 -0.27416575638E+03  0.33176154433E+03  0.12500000000E+03 0.  0.
         25    1    1    2    0    0  0.11346664151E+03  0.63931002602E+02 -0.15619137365E+03  0.23871027844E+03  0.12500000000E+03 0.  0.
</event>
<event>
 5    0  0.5648525E-005  0.3093406E+03  0.7546771E-02  0.1080662E+00
         21   -1    0    0  502  501  0.00000000000E+00  0.00000000000E+00  0.59576372215E+03  0.59576372215E+03  0.00000000000E+00 0.  1.
         21   -1    0    0  501  502 -0.00000000000E+00 -0.00000000000E+00 -0.16062005184E+03  0.16062005184E+03  0.00000000000E+00 0.  1.
         25    1    1    2    0    0 -0.73702900010E+02 -0.80195296734E+02  0.14557690134E+03  0.22063779661E+03  0.12500000000E+03 0.  0.
         25    1    1    2    0    0 -0.14158048932E+03  0.21125639029E+02  0.16265192864E+03  0.25014391352E+03  0.12500000000E+03 0.  0.
         25    1    1    2    0    0  0.21528338933E+03  0.59069657705E+02  0.12691484033E+03  0.28560206386E+03  0.12500000000E+03 0.  0.
</event>
<event>
 5    0  0.5648525E-005  0.2891368E+03  0.7546771E-02  0.1090801E+00
         21   -1    0    0  502  501  0.00000000000E+00  0.00000000000E+00  0.70902120843E+02  0.70902120843E+02  0.00000000000E+00 0. -1.
         21   -1    0    0  501  502 -0.00000000000E+00 -0.00000000000E+00 -0.11790912689E+04  0.11790912689E+04  0.00000000000E+00 0. -1.
         25    1    1    2    0    0 -0.43569948961E+02  0.15377336677E+02 -0.99023007960E+02  0.16602818749E+03  0.12500000000E+03 0.  0.
         25    1    1    2    0    0  0.81227181033E+02 -0.97275176836E+02 -0.82423712419E+03  0.84323908345E+03  0.12500000000E+03 0.  0.
         25    1    1    2    0    0 -0.37657232071E+02  0.81897840159E+02 -0.18492901592E+03  0.24072611881E+03  0.12500000000E+03 0.  0.
</event>
<event>
 5    0  0.5648525E-005  0.3030851E+03  0.7546771E-02  0.1083708E+00
         21   -1    0    0  502  501  0.00000000000E+00  0.00000000000E+00  0.15087016596E+03  0.15087016596E+03  0.00000000000E+00 0. -1.
         21   -1    0    0  501  502 -0.00000000000E+00 -0.00000000000E+00 -0.60887186857E+03  0.60887186857E+03  0.00000000000E+00 0. -1.
         25    1    1    2    0    0  0.12302594554E+03  0.98422136723E+02 -0.20447193062E+03  0.28680319156E+03  0.12500000000E+03 0.  0.
         25    1    1    2    0    0 -0.16397443644E+03  0.38024105042E+02 -0.13707154364E+03  0.25049362556E+03  0.12500000000E+03 0.  0.
         25    1    1    2    0    0  0.40948490897E+02 -0.13644624177E+03 -0.11645822835E+03  0.22244521741E+03  0.12500000000E+03 0.  0.
</event>
<event>
 5    0  0.5648525E-005  0.3281909E+03  0.7546771E-02  0.1071940E+00
         21   -1    0    0  502  501  0.00000000000E+00  0.00000000000E+00  0.15554747476E+03  0.15554747476E+03  0.00000000000E+00 0.  1.
         21   -1    0    0  501  502 -0.00000000000E+00 -0.00000000000E+00 -0.69245287511E+03  0.69245287511E+03  0.00000000000E+00 0.  1.
         25    1    1    2    0    0  0.19794232444E+03 -0.11792615476E+03 -0.27038101590E+03  0.37658815109E+03  0.12500000000E+03 0.  0.
         25    1    1    2    0    0 -0.19514892175E+03  0.85993986716E+02 -0.22914878095E+03  0.33706413518E+03  0.12500000000E+03 0.  0.
         25    1    1    2    0    0 -0.27934026915E+01  0.31932168045E+02 -0.37375603497E+02  0.13434806359E+03  0.12500000000E+03 0.  0.
</event>
<event>
 5    0  0.5648525E-005  0.3126349E+03  0.7546771E-02  0.1079090E+00
         21   -1    0    0  502  501  0.00000000000E+00  0.00000000000E+00  0.15096831072E+03  0.15096831072E+03  0.00000000000E+00 0.  1.
         21   -1    0    0  501  502 -0.00000000000E+00 -0.00000000000E+00 -0.64742456967E+03  0.64742456967E+03  0.00000000000E+00 0.  1.
         25    1    1    2    0    0  0.20844093794E+03 -0.99275658888E+02 -0.21401913972E+03  0.33872182277E+03  0.12500000000E+03 0.  0.
         25    1    1    2    0    0 -0.10788728287E+03  0.67570171812E+02 -0.22320599069E+03  0.28574693035E+03  0.12500000000E+03 0.  0.
         25    1    1    2    0    0 -0.10055365507E+03  0.31705487076E+02 -0.59231128538E+02  0.17392412727E+03  0.12500000000E+03 0.  0.
</event>
<event>
 5    0  0.5648525E-005  0.2853894E+03  0.7546771E-02  0.1092781E+00
         21   -1    0    0  502  501  0.00000000000E+00  0.00000000000E+00  0.12338298839E+04  0.12338298839E+04  0.00000000000E+00 0. -1.
         21   -1    0    0  501  502 -0.00000000000E+00 -0.00000000000E+00 -0.66011605081E+02  0.66011605081E+02  0.00000000000E+00 0. -1.
         25    1    1    2    0    0  0.32402892377E+02  0.43106934261E+02  0.77076082481E+02  0.15644129156E+03  0.12500000000E+03 0.  0.
         25    1    1    2    0    0  0.16034036457E+02  0.35411489519E+02  0.82704380937E+03  0.83733955271E+03  0.12500000000E+03 0.  0.
         25    1    1    2    0    0 -0.48436928833E+02 -0.78518423780E+02  0.26369838696E+03  0.30606064469E+03  0.12500000000E+03 0.  0.
</event>
<event>
 5    0  0.5648525E-005  0.2722201E+03  0.7546771E-02  0.1100016E+00
         21   -1    0    0  502  501  0.00000000000E+00  0.00000000000E+00  0.18247070338E+03  0.18247070338E+03  0.00000000000E+00 0. -1.
         21   -1    0    0  501  502 -0.00000000000E+00 -0.00000000000E+00 -0.40611320464E+03  0.40611320464E+03  0.00000000000E+00 0. -1.
         25    1    1    2    0    0  0.13745407353E+03 -0.26216207072E+02 -0.18452837879E+03  0.26316655263E+03  0.12500000000E+03 0.  0.
         25    1    1    2    0    0 -0.15985301995E+02  0.62278733524E+02 -0.44208514745E+02  0.14735522829E+03  0.12500000000E+03 0.  0.
         25    1    1    2    0    0 -0.12146877153E+03 -0.36062526452E+02  0.50943922793E+01  0.17806212709E+03  0.12500000000E+03 0.  0.
</event>
<event>
 5    0  0.5648525E-005  0.3786882E+03  0.7546771E-02  0.1051420E+00
         21   -1    0    0  502  501  0.00000000000E+00  0.00000000000E+00  0.49671525169E+03  0.49671525169E+03  0.00000000000E+00 0.  1.
         21   -1    0    0  501  502 -0.00000000000E+00 -0.00000000000E+00 -0.28870609520E+03  0.28870609520E+03  0.00000000000E+00 0.  1.
         25    1    1    2    0    0  0.15375344450E+03 -0.11308395261E+03  0.21232125288E+03  0.31166234366E+03  0.12500000000E+03 0.  0.
         25    1    1    2    0    0  0.77567042348E+02  0.97979696958E+02  0.84376486699E+02  0.19585979317E+03  0.12500000000E+03 0.  0.
         25    1    1    2    0    0 -0.23132048685E+03  0.15104255647E+02 -0.88688583088E+02  0.27789921005E+03  0.12500000000E+03 0.  0.
</event>
<event>
 5    0  0.5648525E-005  0.2761296E+03  0.7546771E-02  0.1097822E+00
         21   -1    0    0  502  501  0.00000000000E+00  0.00000000000E+00  0.92322472954E+03  0.92322472954E+03  0.00000000000E+00 0.  1.
         21   -1    0    0  501  502 -0.00000000000E+00 -0.00000000000E+00 -0.82588274398E+02  0.82588274398E+02  0.00000000000E+00 0.  1.
         25    1    1    2    0    0  0.14112555431E+03  0.37044047501E+02  0.44389914137E+03  0.48369425389E+03  0.12500000000E+03 0.  0.
         25    1    1    2    0    0  0.20632028942E+02 -0.45986937347E+02  0.16033404826E+03  0.20945759967E+03  0.12500000000E+03 0.  0.
         25    1    1    2    0    0 -0.16175758325E+03  0.89428898457E+01  0.23640326551E+03  0.31266115039E+03  0.12500000000E+03 0.  0.
</event>
<event>
 5    0  0.5648525E-005  0.2633808E+03  0.7546771E-02  0.1105129E+00
         21   -1    0    0  502  501  0.00000000000E+00  0.00000000000E+00  0.19998579676E+04  0.19998579676E+04  0.00000000000E+00 0. -1.
         21   -1    0    0  501  502 -0.00000000000E+00 -0.00000000000E+00 -0.34687188961E+02  0.34687188961E+02  0.00000000000E+00 0. -1.
         25    1    1    2    0    0 -0.65276376003E+02 -0.10060835824E+03  0.87539825854E+03  0.89237332887E+03  0.12500000000E+03 0.  0.
         25    1    1    2    0    0 -0.50373269361E+02  0.10185164702E+03  0.61510539116E+03  0.63787997813E+03  0.12500000000E+03 0.  0.
         25    1    1    2    0    0  0.11564964536E+03 -0.12432887820E+01  0.47466712890E+03  0.50429184953E+03  0.12500000000E+03 0.  0.
</event>
<event>
 5    0  0.5648525E-005  0.2607541E+03  0.7546771E-02  0.1106691E+00
         21   -1    0    0  502  501  0.00000000000E+00  0.00000000000E+00  0.10049174882E+03  0.10049174882E+03  0.00000000000E+00 0. -1.
         21   -1    0    0  501  502 -0.00000000000E+00 -0.00000000000E+00 -0.67659970748E+03  0.67659970748E+03  0.00000000000E+00 0. -1.
         25    1    1    2    0    0  0.44437775724E+02 -0.76892972362E+02 -0.94881310494E+02  0.18031835234E+03  0.12500000000E+03 0.  0.
         25    1    1    2    0    0  0.43392864522E+02 -0.11554449390E+02 -0.71967236156E+02  0.15106531393E+03  0.12500000000E+03 0.  0.
         25    1    1    2    0    0 -0.87830640246E+02  0.88447421752E+02 -0.40925941200E+03  0.44570779003E+03  0.12500000000E+03 0.  0.
</event>
<event>
 5    0  0.5648525E-005  0.2346256E+03  0.7546771E-02  0.1123426E+00
         21   -1    0    0  502  501  0.00000000000E+00  0.00000000000E+00  0.87205420714E+03  0.87205420714E+03  0.00000000000E+00 0. -1.
         21   -1    0    0  501  502 -0.00000000000E+00 -0.00000000000E+00 -0.63125860555E+02  0.63125860555E+02  0.00000000000E+00 0. -1.
         25    1    1    2    0    0 -0.62178578079E+02 -0.65947139507E+02  0.17031210432E+03  0.22988347844E+03  0.12500000000E+03 0.  0.
         25    1    1    2    0    0  0.24361653555E+02  0.65426559773E+02  0.47409588860E+03  0.49524341134E+03  0.12500000000E+03 0.  0.
         25    1    1    2    0    0  0.37816924524E+02  0.52057973429E+00  0.16452035367E+03  0.21005317792E+03  0.12500000000E+03 0.  0.
</event>
<event>
 5    0  0.5648525E-005  0.2425182E+03  0.7546771E-02  0.1118127E+00
         21   -1    0    0  502  501  0.00000000000E+00  0.00000000000E+00  0.15790817864E+03  0.15790817864E+03  0.00000000000E+00 0.  1.
         21   -1    0    0  501  502 -0.00000000000E+00 -0.00000000000E+00 -0.37246366540E+03  0.37246366540E+03  0.00000000000E+00 0.  1.
         25    1    1    2    0    0 -0.16498456066E+02 -0.14242492434E+02 -0.12423245432E+03  0.17757744888E+03  0.12500000000E+03 0.  0.
         25    1    1    2    0    0  0.23473658916E+02 -0.10548381055E+03 -0.65728834861E+02  0.17782892533E+03  0.12500000000E+03 0.  0.
         25    1    1    2    0    0 -0.69752028502E+01  0.11972630298E+03 -0.24594197574E+02  0.17496546984E+03  0.12500000000E+03 0.  0.
</event>
<event>
 5    0  0.5648525E-005  0.2956834E+03  0.7546771E-02  0.1087419E+00
         21   -1    0    0  502  501  0.00000000000E+00  0.00000000000E+00  0.59607255770E+03  0.59607255770E+03  0.00000000000E+00 0.  1.
         21   -1    0    0  501  502 -0.00000000000E+00 -0.00000000000E+00 -0.14667458839E+03  0.14667458839E+03  0.00000000000E+00 0.  1.
         25    1    1    2    0    0  0.87946748472E+02 -0.40727620873E+02  0.27732643197E+02  0.16058477253E+03  0.12500000000E+03 0.  0.
         25    1    1    2    0    0 -0.10064693671E+02  0.14260641009E+03  0.10152227117E+03  0.21533615071E+03  0.12500000000E+03 0.  0.
         25    1    1    2    0    0 -0.77882054801E+02 -0.10187878922E+03  0.32014305493E+03  0.36682622286E+03  0.12500000000E+03 0.  0.
</event>
<event>
 5    0  0.5648525E-005  0.3133768E+03  0.7546771E-02  0.1078739E+00
         21   -1    0    0  502  501  0.00000000000E+00  0.00000000000E+00  0.81769534017E+02  0.81769534017E+02  0.00000000000E+00 0.  1.
         21   -1    0    0  501  502 -0.00000000000E+00 -0.00000000000E+00 -0.12009976132E+04  0.12009976132E+04  0.00000000000E+00 0.  1.
         25    1    1    2    0    0 -0.85958836830E+02 -0.73686355307E+02 -0.94508903048E+02  0.19332752867E+03  0.12500000000E+03 0.  0.
         25    1    1    2    0    0  0.61321155533E+01 -0.40973027829E+02 -0.71792686603E+03  0.72990436142E+03  0.12500000000E+03 0.  0.
         25    1    1    2    0    0  0.79826721277E+02  0.11465938314E+03 -0.30679231005E+03  0.35953525707E+03  0.12500000000E+03 0.  0.
</event>
<event>
 5    0  0.5648525E-005  0.4398508E+03  0.7546771E-02  0.1030793E+00
         21   -1    0    0  502  501  0.00000000000E+00  0.00000000000E+00  0.17242700056E+03  0.17242700056E+03  0.00000000000E+00 0.  1.
         21   -1    0    0  501  502 -0.00000000000E+00 -0.00000000000E+00 -0.11220324664E+04  0.11220324664E+04  0.00000000000E+00 0.  1.
         25    1    1    2    0    0 -0.20713253500E+03 -0.57611937887E+00 -0.60162995662E+03  0.64845032476E+03  0.12500000000E+03 0.  0.
         25    1    1    2    0    0  0.12260754447E+03 -0.12618097561E+02 -0.43656207833E+03  0.47053509390E+03  0.12500000000E+03 0.  0.
         25    1    1    2    0    0  0.84524990532E+02  0.13194216940E+02  0.88586569152E+02  0.17547404828E+03  0.12500000000E+03 0.  0.
</event>
<event>
 5    0  0.5648525E-005  0.3404471E+03  0.7546771E-02  0.1066606E+00
         21   -1    0    0  502  501  0.00000000000E+00  0.00000000000E+00  0.14909777769E+03  0.14909777769E+03  0.00000000000E+00 0.  1.
         21   -1    0    0  501  502 -0.00000000000E+00 -0.00000000000E+00 -0.77737038663E+03  0.77737038663E+03  0.00000000000E+00 0.  1.
         25    1    1    2    0    0  0.84552014043E+02  0.59347278824E+01 -0.15134900987E+03  0.21381250399E+03  0.12500000000E+03 0.  0.
         25    1    1    2    0    0  0.14418912903E+03  0.45687358900E+02 -0.38461081005E+02  0.19995523110E+03  0.12500000000E+03 0.  0.
         25    1    1    2    0    0 -0.22874114307E+03 -0.51622086783E+02 -0.43846251807E+03  0.51270042923E+03  0.12500000000E+03 0.  0.
</event>
<event>
 5    0  0.5648525E-005  0.3452771E+03  0.7546771E-02  0.1064570E+00
         21   -1    0    0  502  501  0.00000000000E+00  0.00000000000E+00  0.24744381751E+03  0.24744381751E+03  0.00000000000E+00 0.  1.
         21   -1    0    0  501  502 -0.00000000000E+00 -0.00000000000E+00 -0.48179139834E+03  0.48179139834E+03  0.00000000000E+00 0.  1.
         25    1    1    2    0    0  0.82111970411E+02  0.51810447875E+02 -0.10027828650E+03  0.18736977594E+03  0.12500000000E+03 0.  0.
         25    1    1    2    0    0 -0.95267164517E+02  0.17860974271E+03  0.17879929162E+02  0.23858324478E+03  0.12500000000E+03 0.  0.
         25    1    1    2    0    0  0.13155194106E+02 -0.23042019058E+03 -0.15194922349E+03  0.30328219512E+03  0.12500000000E+03 0.  0.
</event>
<event>
 5    0  0.5648525E-005  0.2380282E+03  0.7546771E-02  0.1121113E+00
         21   -1    0    0  502  501  0.00000000000E+00  0.00000000000E+00  0.51188183969E+02  0.51188183969E+02  0.00000000000E+00 0.  1.
         21   -1    0    0  501  502 -0.00000000000E+00 -0.00000000000E+00 -0.11068455498E+04  0.11068455498E+04  0.00000000000E+00 0.  1.
         25    1    1    2    0    0 -0.51900976528E+02 -0.60121002721E+02 -0.43933484629E+03  0.46362522958E+03  0.12500000000E+03 0.  0.
         25    1    1    2    0    0  0.75583104982E+02 -0.98614910481E+01 -0.45202422715E+03  0.47514309076E+03  0.12500000000E+03 0.  0.
         25    1    1    2    0    0 -0.23682128454E+02  0.69982493769E+02 -0.16429829234E+03  0.21926541339E+03  0.12500000000E+03 0.  0.
</event>
<event>
 5    0  0.9095910E-005  0.4050171E+03  0.7546771E-02  0.1042056E+00
         21   -1    0    0  502  501  0.00000000000E+00  0.00000000000E+00  0.42679857673E+03  0.42679857673E+03  0.00000000000E+00 0.  1.
         21   -1    0    0  501  502 -0.00000000000E+00 -0.00000000000E+00 -0.38434732456E+03  0.38434732456E+03  0.00000000000E+00 0.  1.
         25    1    1    2    0    0  0.16590256350E+03 -0.19648559165E+03  0.76818126172E+02  0.29606802058E+03  0.12500000000E+03 0.  0.
         25    1    1    2    0    0 -0.84148038555E+02  0.11205738470E+03  0.16645949794E+03  0.25094125670E+03  0.12500000000E+03 0.  0.
         25    1    1    2    0    0 -0.81754524943E+02  0.84428206952E+02 -0.20082637194E+03  0.26413662401E+03  0.12500000000E+03 0.  0.
</event>
<event>
 5    0  0.5648525E-005  0.3269411E+03  0.7546771E-02  0.1072498E+00
         21   -1    0    0  502  501  0.00000000000E+00  0.00000000000E+00  0.17687762020E+04  0.17687762020E+04  0.00000000000E+00 0.  1.
         21   -1    0    0  501  502 -0.00000000000E+00 -0.00000000000E+00 -0.60431885640E+02  0.60431885640E+02  0.00000000000E+00 0.  1.
         25    1    1    2    0    0 -0.52213693810E+02  0.17590825124E+03  0.49146320131E+03  0.53928754938E+03  0.12500000000E+03 0.  0.
         25    1    1    2    0    0  0.36524454723E+02 -0.24451360995E+03  0.68150987347E+03  0.73566408699E+03  0.12500000000E+03 0.  0.
         25    1    1    2    0    0  0.15689239088E+02  0.68605358707E+02  0.53537124154E+03  0.55425645124E+03  0.12500000000E+03 0.  0.
</event>
<event>
 5    0  0.5648525E-005  0.3794155E+03  0.7546771E-02  0.1051150E+00
         21   -1    0    0  502  501  0.00000000000E+00  0.00000000000E+00  0.61638266537E+03  0.61638266537E+03  0.00000000000E+00 0. -1.
         21   -1    0    0  501  502 -0.00000000000E+00 -0.00000000000E+00 -0.23354986928E+03  0.23354986928E+03  0.00000000000E+00 0. -1.
         25    1    1    2    0    0  0.17039232317E+03 -0.15935505345E+03  0.32349269136E+03  0.41797140838E+03  0.12500000000E+03 0.  0.
         25    1    1    2    0    0  0.18532694085E+02 -0.32165333505E+02  0.30523233097E+02  0.13392063765E+03  0.12500000000E+03 0.  0.
         25    1    1    2    0    0 -0.18892501726E+03  0.19152038696E+03  0.28816871621E+02  0.29804048862E+03  0.12500000000E+03 0.  0.
</event>
<event>
 5    0  0.5648525E-005  0.2533984E+03  0.7546771E-02  0.1111176E+00
         21   -1    0    0  502  501  0.00000000000E+00  0.00000000000E+00  0.24150437505E+03  0.24150437505E+03  0.00000000000E+00 0.  1.
         21   -1    0    0  501  502 -0.00000000000E+00 -0.00000000000E+00 -0.26587820766E+03  0.26587820766E+03  0.00000000000E+00 0.  1.
         25    1    1    2    0    0  0.47409157060E+02 -0.60194037904E+02 -0.42400863430E+02  0.15262301134E+03  0.12500000000E+03 0.  0.
         25    1    1    2    0    0 -0.54234154035E+02  0.12780424116E+03  0.75255707305E+02  0.20140429242E+03  0.12500000000E+03 0.  0.
         25    1    1    2    0    0  0.68249969746E+01 -0.67610203255E+02 -0.57228676492E+02  0.15335527895E+03  0.12500000000E+03 0.  0.
</event>
<event>
 5    0  0.5648525E-005  0.3423594E+03  0.7546771E-02  0.1065795E+00
         21   -1    0    0  502  501  0.00000000000E+00  0.00000000000E+00  0.93735281503E+02  0.93735281503E+02  0.00000000000E+00 0. -1.
         21   -1    0    0  501  502 -0.00000000000E+00 -0.00000000000E+00 -0.12504361025E+04  0.12504361025E+04  0.00000000000E+00 0. -1.
         25    1    1    2    0    0  0.53231159780E+02  0.74449044746E+01 -0.21253404730E+02  0.13771597651E+03  0.12500000000E+03 0.  0.
         25    1    1    2    0    0 -0.19376821616E+02 -0.10205298884E+02 -0.96402900580E+02  0.15936790323E+03  0.12500000000E+03 0.  0.
         25    1    1    2    0    0 -0.33854338164E+02  0.27603944090E+01 -0.10390445157E+04  0.10470875043E+04  0.12500000000E+03 0.  0.
</event>
<event>
 5    0  0.5648525E-005  0.2936086E+03  0.7546771E-02  0.1088480E+00
         21   -1    0    0  502  501  0.00000000000E+00  0.00000000000E+00  0.46327662732E+02  0.46327662732E+02  0.00000000000E+00 0.  1.
         21   -1    0    0  501  502 -0.00000000000E+00 -0.00000000000E+00 -0.18607884731E+04  0.18607884731E+04  0.00000000000E+00 0.  1.
         25    1    1    2    0    0  0.45029302557E+02 -0.27531544928E+02 -0.35614823171E+03  0.38111964920E+03  0.12500000000E+03 0.  0.
         25    1    1    2    0    0 -0.55231469611E+02 -0.47656017659E+02 -0.14605806626E+03  0.20561996492E+03  0.12500000000E+03 0.  0.
         25    1    1    2    0    0  0.10202167054E+02  0.75187562587E+02 -0.13122545124E+04  0.13203765217E+04  0.12500000000E+03 0.  0.
</event>
<event>
 5    0  0.5648525E-005  0.2038899E+03  0.7546771E-02  0.1146498E+00
         21   -1    0    0  502  501  0.00000000000E+00  0.00000000000E+00  0.19912524448E+03  0.19912524448E+03  0.00000000000E+00 0.  1.
         21   -1    0    0  501  502 -0.00000000000E+00 -0.00000000000E+00 -0.20876862289E+03  0.20876862289E+03  0.00000000000E+00 0.  1.
         25    1    1    2    0    0  0.19499179753E+02 -0.41750226696E+02  0.42263160441E+02  0.13976578326E+03  0.12500000000E+03 0.  0.
         25    1    1    2    0    0  0.21055703908E+02  0.12390943793E+02 -0.13350224043E+02  0.12806290110E+03  0.12500000000E+03 0.  0.
         25    1    1    2    0    0 -0.40554883660E+02  0.29359282903E+02 -0.38556314802E+02  0.14006518301E+03  0.12500000000E+03 0.  0.
</event>
<event>
 5    0  0.5648525E-005  0.2764659E+03  0.7546771E-02  0.1097635E+00
         21   -1    0    0  502  501  0.00000000000E+00  0.00000000000E+00  0.33112552566E+03  0.33112552566E+03  0.00000000000E+00 0.  1.
         21   -1    0    0  501  502 -0.00000000000E+00 -0.00000000000E+00 -0.23082907884E+03  0.23082907884E+03  0.00000000000E+00 0.  1.
         25    1    1    2    0    0 -0.11387313903E+03  0.31195630707E+02  0.12375619879E+03  0.21185102291E+03  0.12500000000E+03 0.  0.
         25    1    1    2    0    0  0.19603194175E+02 -0.24179623583E+02 -0.11147997094E+03  0.17035763364E+03  0.12500000000E+03 0.  0.
         25    1    1    2    0    0  0.94269944854E+02 -0.70160071237E+01  0.88020218975E+02  0.17974594796E+03  0.12500000000E+03 0.  0.
</event>
<event>
 5    0  0.5648525E-005  0.4025089E+03  0.7546771E-02  0.1042914E+00
         21   -1    0    0  502  501  0.00000000000E+00  0.00000000000E+00  0.54606260361E+03  0.54606260361E+03  0.00000000000E+00 0. -1.
         21   -1    0    0  501  502 -0.00000000000E+00 -0.00000000000E+00 -0.29669381176E+03  0.29669381176E+03  0.00000000000E+00 0. -1.
         25    1    1    2    0    0  0.70862395546E+02 -0.15129751828E+03 -0.11865824737E+03  0.24003582609E+03  0.12500000000E+03 0.  0.
         25    1    1    2    0    0  0.37168626839E+02 -0.96962056377E+02  0.57985398964E+02  0.17254116521E+03  0.12500000000E+03 0.  0.
         25    1    1    2    0    0 -0.10803102238E+03  0.24825957465E+03  0.31004164025E+03  0.43017942407E+03  0.12500000000E+03 0.  0.
</event>
<event>
 5    0  0.5648525E-005  0.3675917E+03  0.7546771E-02  0.1055618E+00
         21   -1    0    0  502  501  0.00000000000E+00  0.00000000000E+00  0.23110237441E+03  0.23110237441E+03  0.00000000000E+00 0.  1.
         21   -1    0    0  501  502 -0.00000000000E+00 -0.00000000000E+00 -0.58469180074E+03  0.58469180074E+03  0.00000000000E+00 0.  1.
         25    1    1    2    0    0  0.24353225214E+03 -0.31157563575E+02 -0.99245366596E+02  0.29283680505E+03  0.12500000000E+03 0.  0.
         25    1    1    2    0    0 -0.11955329077E+03  0.11258531097E+03 -0.25618408165E+03  0.32897374557E+03  0.12500000000E+03 0.  0.
         25    1    1    2    0    0 -0.12397896137E+03 -0.81427747397E+02  0.18400219155E+01  0.19398362454E+03  0.12500000000E+03 0.  0.
</event>
<event>
 5    0  0.5648525E-005  0.3024959E+03  0.7546771E-02  0.1084000E+00
         21   -1    0    0  502  501  0.00000000000E+00  0.00000000000E+00  0.20478225207E+04  0.20478225207E+04  0.00000000000E+00 0. -1.
         21   -1    0    0  501  502 -0.00000000000E+00 -0.00000000000E+00 -0.44683448878E+02  0.44683448878E+02  0.00000000000E+00 0. -1.
         25    1    1    2    0    0 -0.52246302371E+02 -0.60314379648E+02  0.31819450847E+03  0.35105590114E+03  0.12500000000E+03 0.  0.
         25    1    1    2    0    0 -0.14989569181E+03  0.36799050663E+02  0.67239267849E+03  0.70111325949E+03  0.12500000000E+03 0.  0.
         25    1    1    2    0    0  0.20214199418E+03  0.23515328984E+02  0.10125518848E+04  0.10403368089E+04  0.12500000000E+03 0.  0.
</event>
<event>
 5    0  0.5648525E-005  0.3019034E+03  0.7546771E-02  0.1084293E+00
         21   -1    0    0  502  501  0.00000000000E+00  0.00000000000E+00  0.85784816646E+03  0.85784816646E+03  0.00000000000E+00 0. -1.
         21   -1    0    0  501  502 -0.00000000000E+00 -0.00000000000E+00 -0.10624916699E+03  0.10624916699E+03  0.00000000000E+00 0. -1.
         25    1    1    2    0    0  0.70881829734E+02  0.67771964429E+02  0.31592361729E+03  0.35362410115E+03  0.12500000000E+03 0.  0.
         25    1    1    2    0    0 -0.85506915224E+02 -0.19565801325E+03  0.23425779215E+03  0.34072746277E+03  0.12500000000E+03 0.  0.
         25    1    1    2    0    0  0.14625085490E+02  0.12788604883E+03  0.20141759003E+03  0.26974576954E+03  0.12500000000E+03 0.  0.
</event>
<event>
 5    0  0.5648525E-005  0.2263926E+03  0.7546771E-02  0.1129205E+00
         21   -1    0    0  502  501  0.00000000000E+00  0.00000000000E+00  0.70800522676E+03  0.70800522676E+03  0.00000000000E+00 0. -1.
         21   -1    0    0  501  502 -0.00000000000E+00 -0.00000000000E+00 -0.72391545768E+02  0.72391545768E+02  0.00000000000E+00 0. -1.
         25    1    1    2    0    0 -0.91505764498E+02  0.43172550422E+02  0.26144206077E+03  0.30694319537E+03  0.12500000000E+03 0.  0.
         25    1    1    2    0    0  0.92042582613E+02  0.24408164783E+01  0.22740528786E+03  0.27534698027E+03  0.12500000000E+03 0.  0.
         25    1    1    2    0    0 -0.53681811545E+00 -0.45613366901E+02  0.14676633237E+03  0.19810659689E+03  0.12500000000E+03 0.  0.
</event>
<event>
 5    0  0.5648525E-005  0.3627744E+03  0.7546771E-02  0.1057491E+00
         21   -1    0    0  502  501  0.00000000000E+00  0.00000000000E+00  0.28658305090E+03  0.28658305090E+03  0.00000000000E+00 0.  1.
         21   -1    0    0  501  502 -0.00000000000E+00 -0.00000000000E+00 -0.45922214344E+03  0.45922214344E+03  0.00000000000E+00 0.  1.
         25    1    1    2    0    0  0.10908387619E+03 -0.16629484196E+03 -0.79465713788E+02  0.24797795502E+03  0.12500000000E+03 0.  0.
         25    1    1    2    0    0 -0.15665766906E+02  0.22703627258E+03 -0.17332091533E+03  0.31217947564E+03  0.12500000000E+03 0.  0.
         25    1    1    2    0    0 -0.93418109288E+02 -0.60741430624E+02  0.80147536577E+02  0.18564776367E+03  0.12500000000E+03 0.  0.
</event>
<event>
 5    0  0.5678259E-005  0.3154120E+03  0.7546771E-02  0.1077780E+00
         21   -1    0    0  502  501  0.00000000000E+00  0.00000000000E+00  0.11253339449E+03  0.11253339449E+03  0.00000000000E+00 0.  1.
         21   -1    0    0  501  502 -0.00000000000E+00 -0.00000000000E+00 -0.88404649445E+03  0.88404649445E+03  0.00000000000E+00 0.  1.
         25    1    1    2    0    0  0.12676524987E+03 -0.69969685562E+02 -0.16731950270E+03  0.25413776078E+03  0.12500000000E+03 0.  0.
         25    1    1    2    0    0 -0.13201495499E+03  0.12191174145E+03 -0.55786711792E+03  0.59927551452E+03  0.12500000000E+03 0.  0.
         25    1    1    2    0    0  0.52497051267E+01 -0.51942055891E+02 -0.46326479341E+02  0.14316661364E+03  0.12500000000E+03 0.  0.
</event>
<event>
 5    0  0.5648525E-005  0.2771378E+03  0.7546771E-02  0.1097263E+00
         21   -1    0    0  502  501  0.00000000000E+00  0.00000000000E+00  0.15002546672E+03  0.15002546672E+03  0.00000000000E+00 0. -1.
         21   -1    0    0  501  502 -0.00000000000E+00 -0.00000000000E+00 -0.51194884108E+03  0.51194884108E+03  0.00000000000E+00 0. -1.
         25    1    1    2    0    0 -0.44450925899E+02 -0.43703506080E+02 -0.11612867824E+02  0.14016326179E+03  0.12500000000E+03 0.  0.
         25    1    1    2    0    0  0.91840814414E+02 -0.95853291789E+02 -0.23252523104E+03  0.29549208418E+03  0.12500000000E+03 0.  0.
         25    1    1    2    0    0 -0.47389888516E+02  0.13955679787E+03 -0.11778527549E+03  0.22631896184E+03  0.12500000000E+03 0.  0.
</event>
<event>
 5    0  0.5648525E-005  0.2994516E+03  0.7546771E-02  0.1085515E+00
         21   -1    0    0  502  501  0.00000000000E+00  0.00000000000E+00  0.10231184198E+04  0.10231184198E+04  0.00000000000E+00 0. -1.
         21   -1    0    0  501  502 -0.00000000000E+00 -0.00000000000E+00 -0.87645072348E+02  0.87645072348E+02  0.00000000000E+00 0. -1.
         25    1    1    2    0    0 -0.32018158131E+02 -0.14762018406E+03  0.62069573800E+03  0.65092632484E+03  0.12500000000E+03 0.  0.
         25    1    1    2    0    0  0.71601487024E+02  0.11202937406E+03  0.24947521705E+03  0.30909583873E+03  0.12500000000E+03 0.  0.
         25    1    1    2    0    0 -0.39583328893E+02  0.35590810005E+02  0.65302392357E+02  0.15074132854E+03  0.12500000000E+03 0.  0.
</event>
<event>
 5    0  0.5648525E-005  0.3794185E+03  0.7546771E-02  0.1051149E+00
         21   -1    0    0  502  501  0.00000000000E+00  0.00000000000E+00  0.11497295835E+04  0.11497295835E+04  0.00000000000E+00 0. -1.
         21   -1    0    0  501  502 -0.00000000000E+00 -0.00000000000E+00 -0.12521066112E+03  0.12521066112E+03  0.00000000000E+00 0. -1.
         25    1    1    2    0    0 -0.74068729733E+01  0.20950005556E+03  0.13077600288E+03  0.27689799200E+03  0.12500000000E+03 0.  0.
         25    1    1    2    0    0 -0.13873786435E+03 -0.13670523688E+03  0.38346793791E+03  0.44789415736E+03  0.12500000000E+03 0.  0.
         25    1    1    2    0    0  0.14614473732E+03 -0.72794818684E+02  0.51027498164E+03  0.55014809530E+03  0.12500000000E+03 0.  0.
</event>
<event>
 5    0  0.5648525E-005  0.2111882E+03  0.7546771E-02  0.1140628E+00
         21   -1    0    0  502  501  0.00000000000E+00  0.00000000000E+00  0.76988499110E+03  0.76988499110E+03  0.00000000000E+00 0.  1.
         21   -1    0    0  501  502 -0.00000000000E+00 -0.00000000000E+00 -0.57931337592E+02  0.57931337592E+02  0.00000000000E+00 0.  1.
         25    1    1    2    0    0  0.44631843494E+02  0.16802988824E+02  0.15766988423E+03  0.20678281911E+03  0.12500000000E+03 0.  0.
         25    1    1    2    0    0 -0.49070393473E+02  0.47592760264E+00  0.39842153989E+03  0.42044363888E+03  0.12500000000E+03 0.  0.
         25    1    1    2    0    0  0.44385499793E+01 -0.17278916427E+02  0.15586222938E+03  0.20058987070E+03  0.12500000000E+03 0.  0.
</event>
<event>
 5    0  0.5648525E-005  0.2344376E+03  0.7546771E-02  0.1123555E+00
         21   -1    0    0  502  501  0.00000000000E+00  0.00000000000E+00  0.86949888481E+02  0.86949888481E+02  0.00000000000E+00 0.  1.
         21   -1    0    0  501  502 -0.00000000000E+00 -0.00000000000E+00 -0.63209972728E+03  0.63209972728E+03  0.00000000000E+00 0.  1.
         25    1    1    2    0    0 -0.54965187279E+02 -0.37970893377E+02 -0.28109427938E+03  0.31480462903E+03  0.12500000000E+03 0.  0.
         25    1    1    2    0    0 -0.37996714854E+02  0.61603298477E+02 -0.15931622287E+03  0.21504737988E+03  0.12500000000E+03 0.  0.
         25    1    1    2    0    0  0.92961902133E+02 -0.23632405100E+02 -0.10473933654E+03  0.18919760685E+03  0.12500000000E+03 0.  0.
</event>
<event>
 5    0  0.5648525E-005  0.3873094E+03  0.7546771E-02  0.1048265E+00
         21   -1    0    0  502  501  0.00000000000E+00  0.00000000000E+00  0.10434631123E+03  0.10434631123E+03  0.00000000000E+00 0.  1.
         21   -1    0    0  501  502 -0.00000000000E+00 -0.00000000000E+00 -0.14376030088E+04  0.14376030088E+04  0.00000000000E+00 0.  1.
         25    1    1    2    0    0  0.22980569535E+03 -0.39524330329E+02 -0.31447204845E+03  0.41096289316E+03  0.12500000000E+03 0.  0.
         25    1    1    2    0    0 -0.27310055754E+03  0.13368265100E+03 -0.68273819567E+03  0.75776738484E+03  0.12500000000E+03 0.  0.
         25    1    1    2    0    0  0.43294862189E+02 -0.94158320667E+02 -0.33604645341E+03  0.37321904197E+03  0.12500000000E+03 0.  0.
</event>
<event>
 5    0  0.5648525E-005  0.3510968E+03  0.7546771E-02  0.1062166E+00
         21   -1    0    0  502  501  0.00000000000E+00  0.00000000000E+00  0.25082985599E+03  0.25082985599E+03  0.00000000000E+00 0. -1.
         21   -1    0    0  501  502 -0.00000000000E+00 -0.00000000000E+00 -0.49144460893E+03  0.49144460893E+03  0.00000000000E+00 0. -1.
         25    1    1    2    0    0 -0.86198388750E+02 -0.37135166668E+02  0.92883365779E+01  0.15659008916E+03  0.12500000000E+03 0.  0.
         25    1    1    2    0    0 -0.17472295564E+03  0.85390435559E+02 -0.15107786837E+03  0.27616871659E+03  0.12500000000E+03 0.  0.
         25    1    1    2    0    0  0.26092134439E+03 -0.48255268891E+02 -0.98825221146E+02  0.30951565917E+03  0.12500000000E+03 0.  0.
</event>
<event>
 5    0  0.5648525E-005  0.3006024E+03  0.7546771E-02  0.1084940E+00
         21   -1    0    0  502  501  0.00000000000E+00  0.00000000000E+00  0.76216409619E+03  0.76216409619E+03  0.00000000000E+00 0. -1.
         21   -1    0    0  501  502 -0.00000000000E+00 -0.00000000000E+00 -0.11855951140E+03  0.11855951140E+03  0.00000000000E+00 0. -1.
         25    1    1    2    0    0 -0.12150517653E+03  0.78630204149E+02  0.44152685605E+03  0.48116232348E+03  0.12500000000E+03 0.  0.
         25    1    1    2    0    0  0.52872199720E+02  0.56852472370E+02  0.72715015127E+02  0.16413453793E+03  0.12500000000E+03 0.  0.
         25    1    1    2    0    0  0.68632976807E+02 -0.13548267652E+03  0.12936271362E+03  0.23542674618E+03  0.12500000000E+03 0.  0.
</event>
<event>
 5    0  0.5648525E-005  0.3367830E+03  0.7546771E-02  0.1068174E+00
         21   -1    0    0  502  501  0.00000000000E+00  0.00000000000E+00  0.11888043809E+03  0.11888043809E+03  0.00000000000E+00 0.  1.
         21   -1    0    0  501  502 -0.00000000000E+00 -0.00000000000E+00 -0.95409151518E+03  0.95409151518E+03  0.00000000000E+00 0.  1.
         25    1    1    2    0    0 -0.20508059102E+03  0.13588075703E+03 -0.26678006906E+03  0.38382057552E+03  0.12500000000E+03 0.  0.
         25    1    1    2    0    0  0.12553265575E+03 -0.57976277502E+02 -0.15262120751E+03  0.24091062533E+03  0.12500000000E+03 0.  0.
         25    1    1    2    0    0  0.79547935271E+02 -0.77904479525E+02 -0.41580980052E+03  0.44824075243E+03  0.12500000000E+03 0.  0.
</event>
<event>
 5    0  0.5648525E-005  0.3043588E+03  0.7546771E-02  0.1083082E+00
         21   -1    0    0  502  501  0.00000000000E+00  0.00000000000E+00  0.14536157725E+04  0.14536157725E+04  0.00000000000E+00 0.  1.
         21   -1    0    0  501  502 -0.00000000000E+00 -0.00000000000E+00 -0.63726798033E+02  0.63726798033E+02  0.00000000000E+00 0.  1.
         25    1    1    2    0    0 -0.34907390293E+02 -0.37470679534E+02  0.19928669508E+03  0.24075457328E+03  0.12500000000E+03 0.  0.
         25    1    1    2    0    0  0.20319716688E+03  0.64280926006E+02  0.70301504232E+03  0.74516862240E+03  0.12500000000E+03 0.  0.
         25    1    1    2    0    0 -0.16828977658E+03 -0.26810246473E+02  0.48758723709E+03  0.53141937487E+03  0.12500000000E+03 0.  0.
</event>
<event>
 5    0  0.5648525E-005  0.3447059E+03  0.7546771E-02  0.1064809E+00
         21   -1    0    0  502  501  0.00000000000E+00  0.00000000000E+00  0.21781879298E+04  0.21781879298E+04  0.00000000000E+00 0. -1.
         21   -1    0    0  501  502 -0.00000000000E+00 -0.00000000000E+00 -0.54550906715E+02  0.54550906715E+02  0.00000000000E+00 0. -1.
         25    1    1    2    0    0  0.51847490873E+02 -0.15873661223E+03  0.15392693283E+04  0.15533385141E+04  0.12500000000E+03 0.  0.
         25    1    1    2    0    0 -0.28155116182E+02  0.16532049461E+03  0.28042043386E+03  0.34983452693E+03  0.12500000000E+03 0.  0.
         25    1    1    2    0    0 -0.23692374691E+02 -0.65838823811E+01  0.30394726095E+03  0.32956579550E+03  0.12500000000E+03 0.  0.
</event>
<event>
 5    0  0.5648525E-005  0.2483210E+03  0.7546771E-02  0.1114371E+00
         21   -1    0    0  502  501  0.00000000000E+00  0.00000000000E+00  0.20682966163E+03  0.20682966163E+03  0.00000000000E+00 0.  1.
         21   -1    0    0  501  502 -0.00000000000E+00 -0.00000000000E+00 -0.29813584934E+03  0.29813584934E+03  0.00000000000E+00 0.  1.
         25    1    1    2    0    0  0.34044088119E+02 -0.29755958362E+01 -0.30567622898E+02  0.13314365804E+03  0.12500000000E+03 0.  0.
         25    1    1    2    0    0 -0.36571593589E+02  0.13028511259E+03 -0.58801884339E+02  0.19337619715E+03  0.12500000000E+03 0.  0.
         25    1    1    2    0    0  0.25275054698E+01 -0.12730951676E+03 -0.19366804735E+01  0.17844565579E+03  0.12500000000E+03 0.  0.
</event>
<event>
 5    0  0.5648525E-005  0.3238860E+03  0.7546771E-02  0.1073875E+00
         21   -1    0    0  502  501  0.00000000000E+00  0.00000000000E+00  0.67214908904E+02  0.67214908904E+02  0.00000000000E+00 0. -1.
         21   -1    0    0  501  502 -0.00000000000E+00 -0.00000000000E+00 -0.15606972587E+04  0.15606972587E+04  0.00000000000E+00 0. -1.
         25    1    1    2    0    0 -0.27669353959E+02 -0.36814913289E+02 -0.30493637085E+03  0.33276436296E+03  0.12500000000E+03 0.  0.
         25    1    1    2    0    0  0.21076722080E+03  0.10469577791E+03 -0.79395106263E+03  0.83747675617E+03  0.12500000000E+03 0.  0.
         25    1    1    2    0    0 -0.18309786684E+03 -0.67880864619E+02 -0.39459491627E+03  0.45767104843E+03  0.12500000000E+03 0.  0.
</event>
<event>
 5    0  0.5648525E-005  0.2619317E+03  0.7546771E-02  0.1105988E+00
         21   -1    0    0  502  501  0.00000000000E+00  0.00000000000E+00  0.42275232968E+02  0.42275232968E+02  0.00000000000E+00 0. -1.
         21   -1    0    0  501  502 -0.00000000000E+00 -0.00000000000E+00 -0.16228934907E+04  0.16228934907E+04  0.00000000000E+00 0. -1.
         25    1    1    2    0    0 -0.12393841003E+03 -0.10816967349E+02 -0.26383913534E+03  0.31735441639E+03  0.12500000000E+03 0.  0.
         25    1    1    2    0    0  0.75847243077E+02  0.37267111791E+02 -0.66850659258E+03  0.68532306705E+03  0.12500000000E+03 0.  0.
         25    1    1    2    0    0  0.48091166950E+02 -0.26450144442E+02 -0.64827252980E+03  0.66249124023E+03  0.12500000000E+03 0.  0.
</event>
<event>
 5    0  0.5648525E-005  0.6316765E+03  0.7546771E-02  0.9841783E-01
         21   -1    0    0  502  501  0.00000000000E+00  0.00000000000E+00  0.70299046653E+03  0.70299046653E+03  0.00000000000E+00 0. -1.
         21   -1    0    0  501  502 -0.00000000000E+00 -0.00000000000E+00 -0.56759694355E+03  0.56759694355E+03  0.00000000000E+00 0. -1.
         25    1    1    2    0    0 -0.19932683452E+03 -0.10037366193E+02  0.50645823586E+02  0.24087742760E+03  0.12500000000E+03 0.  0.
         25    1    1    2    0    0 -0.20694593207E+03 -0.37908924906E+03  0.24563467812E+02  0.45029283973E+03  0.12500000000E+03 0.  0.
         25    1    1    2    0    0  0.40627276660E+03  0.38912661526E+03  0.60184231585E+02  0.57941714275E+03  0.12500000000E+03 0.  0.
</event>
<event>
 5    0  0.5648525E-005  0.3199485E+03  0.7546771E-02  0.1075673E+00
         21   -1    0    0  502  501  0.00000000000E+00  0.00000000000E+00  0.36797339410E+03  0.36797339410E+03  0.00000000000E+00 0.  1.
         21   -1    0    0  501  502 -0.00000000000E+00 -0.00000000000E+00 -0.27819144663E+03  0.27819144663E+03  0.00000000000E+00 0.  1.
         25    1    1    2    0    0  0.50136523468E+02  0.90359376233E+01  0.11599857405E+03  0.17797749390E+03  0.12500000000E+03 0.  0.
         25    1    1    2    0    0 -0.14222447965E+03 -0.16218175004E+03 -0.17799911321E+02  0.24994511298E+03  0.12500000000E+03 0.  0.
         25    1    1    2    0    0  0.92087956186E+02  0.15314581242E+03 -0.84167152587E+01  0.21824223384E+03  0.12500000000E+03 0.  0.
</event>
<event>
 5    0  0.5648525E-005  0.5795494E+03  0.7546771E-02  0.9948767E-01
         21   -1    0    0  502  501  0.00000000000E+00  0.00000000000E+00  0.63134409633E+03  0.63134409633E+03  0.00000000000E+00 0. -1.
         21   -1    0    0  501  502 -0.00000000000E+00 -0.00000000000E+00 -0.53200383450E+03  0.53200383450E+03  0.00000000000E+00 0. -1.
         25    1    1    2    0    0  0.44787829973E+03  0.88160374758E+02 -0.24070684642E+03  0.53097270076E+03  0.12500000000E+03 0.  0.
         25    1    1    2    0    0 -0.24400365160E+03  0.58490571229E+01  0.14824822308E+03  0.31172829372E+03  0.12500000000E+03 0.  0.
         25    1    1    2    0    0 -0.20387464813E+03 -0.94009431881E+02  0.19179888518E+03  0.32064693634E+03  0.12500000000E+03 0.  0.
</event>
<event>
 5    0  0.5648525E-005  0.3781226E+03  0.7546771E-02  0.1051630E+00
         21   -1    0    0  502  501  0.00000000000E+00  0.00000000000E+00  0.19137727169E+03  0.19137727169E+03  0.00000000000E+00 0.  1.
         21   -1    0    0  501  502 -0.00000000000E+00 -0.00000000000E+00 -0.74709351370E+03  0.74709351370E+03  0.00000000000E+00 0.  1.
         25    1    1    2    0    0 -0.27591899229E+03 -0.51107690097E+02 -0.91763427393E+02  0.32060694456E+03  0.12500000000E+03 0.  0.
         25    1    1    2    0    0  0.16199017427E+03  0.10538870806E+03 -0.27284111961E+03  0.35695219973E+03  0.12500000000E+03 0.  0.
         25    1    1    2    0    0  0.11392881803E+03 -0.54281017962E+02 -0.19111169502E+03  0.26091164110E+03  0.12500000000E+03 0.  0.
</event>
<event>
 5    0  0.5648525E-005  0.2915605E+03  0.7546771E-02  0.1089537E+00
         21   -1    0    0  502  501  0.00000000000E+00  0.00000000000E+00  0.13941199757E+04  0.13941199757E+04  0.00000000000E+00 0. -1.
         21   -1    0    0  501  502 -0.00000000000E+00 -0.00000000000E+00 -0.60975751715E+02  0.60975751715E+02  0.00000000000E+00 0. -1.
         25    1    1    2    0    0 -0.13083522046E+03 -0.28642238524E+02  0.45313664630E+03  0.48876993868E+03  0.12500000000E+03 0.  0.
         25    1    1    2    0    0 -0.52823046220E+02  0.13877287809E+02  0.14831521482E+03  0.20150745961E+03  0.12500000000E+03 0.  0.
         25    1    1    2    0    0  0.18365826668E+03  0.14764950715E+02  0.73169236283E+03  0.76481832909E+03  0.12500000000E+03 0.  0.
</event>
<event>
 5    0  0.5648525E-005  0.2927750E+03  0.7546771E-02  0.1088909E+00
         21   -1    0    0  502  501  0.00000000000E+00  0.00000000000E+00  0.17636031541E+03  0.17636031541E+03  0.00000000000E+00 0.  1.
         21   -1    0    0  501  502 -0.00000000000E+00 -0.00000000000E+00 -0.48603435916E+03  0.48603435916E+03  0.00000000000E+00 0.  1.
         25    1    1    2    0    0 -0.40252455545E+02  0.54832290345E+02 -0.64348266317E+02  0.15618111160E+03  0.12500000000E+03 0.  0.
         25    1    1    2    0    0 -0.52163565304E+02  0.12237144346E+03 -0.26274451452E+02  0.18442113360E+03  0.12500000000E+03 0.  0.
         25    1    1    2    0    0  0.92416020849E+02 -0.17720373381E+03 -0.21905132598E+03  0.32179242937E+03  0.12500000000E+03 0.  0.
</event>
<event>
 5    0  0.5648525E-005  0.2360888E+03  0.7546771E-02  0.1122426E+00
         21   -1    0    0  502  501  0.00000000000E+00  0.00000000000E+00  0.15539145435E+03  0.15539145435E+03  0.00000000000E+00 0. -1.
         21   -1    0    0  501  502 -0.00000000000E+00 -0.00000000000E+00 -0.35869363381E+03  0.35869363381E+03  0.00000000000E+00 0. -1.
         25    1    1    2    0    0  0.80124429456E+02 -0.14785849902E+02 -0.13162871152E+03  0.19897151366E+03  0.12500000000E+03 0.  0.
         25    1    1    2    0    0 -0.98897480050E+02 -0.27919308083E+02 -0.81781462601E+02  0.18131025054E+03  0.12500000000E+03 0.  0.
         25    1    1    2    0    0  0.18773050594E+02  0.42705157985E+02  0.10107994665E+02  0.13380332396E+03  0.12500000000E+03 0.  0.
</event>
<event>
 5    0  0.5648525E-005  0.2668236E+03  0.7546771E-02  0.1103111E+00
         21   -1    0    0  502  501  0.00000000000E+00  0.00000000000E+00  0.13225217840E+03  0.13225217840E+03  0.00000000000E+00 0.  1.
         21   -1    0    0  501  502 -0.00000000000E+00 -0.00000000000E+00 -0.53832619687E+03  0.53832619687E+03  0.00000000000E+00 0.  1.
         25    1    1    2    0    0  0.35742934997E+02  0.11060924255E+03 -0.13010085250E+02  0.17119060797E+03  0.12500000000E+03 0.  0.
         25    1    1    2    0    0 -0.26418157682E+01  0.16210866049E+02 -0.17971715611E+03  0.21952910415E+03  0.12500000000E+03 0.  0.
         25    1    1    2    0    0 -0.33101119229E+02 -0.12682010860E+03 -0.21334677711E+03  0.27985866315E+03  0.12500000000E+03 0.  0.
</event>
<event>
 5    0  0.5648525E-005  0.3885027E+03  0.7546771E-02  0.1047835E+00
         21   -1    0    0  502  501  0.00000000000E+00  0.00000000000E+00  0.31958138310E+03  0.31958138310E+03  0.00000000000E+00 0. -1.
         21   -1    0    0  501  502 -0.00000000000E+00 -0.00000000000E+00 -0.47228756663E+03  0.47228756663E+03  0.00000000000E+00 0. -1.
         25    1    1    2    0    0 -0.27943845340E+03  0.42680813204E+02 -0.12389884480E+03  0.33299162872E+03  0.12500000000E+03 0.  0.
         25    1    1    2    0    0  0.20888462422E+03 -0.82144910278E+02 -0.12078428879E+03  0.28389155841E+03  0.12500000000E+03 0.  0.
         25    1    1    2    0    0  0.70553829180E+02  0.39464097074E+02  0.91976950051E+02  0.17498576259E+03  0.12500000000E+03 0.  0.
</event>
<event>
 5    0  0.5648525E-005  0.2243270E+03  0.7546771E-02  0.1130698E+00
         21   -1    0    0  502  501  0.00000000000E+00  0.00000000000E+00  0.57724379238E+02  0.57724379238E+02  0.00000000000E+00 0. -1.
         21   -1    0    0  501  502 -0.00000000000E+00 -0.00000000000E+00 -0.87177406006E+03  0.87177406006E+03  0.00000000000E+00 0. -1.
         25    1    1    2    0    0  0.32542731176E+02  0.32580235630E+02 -0.16115749658E+03  0.20908668013E+03  0.12500000000E+03 0.  0.
         25    1    1    2    0    0 -0.11259012080E+02 -0.81360459970E+02 -0.21485571362E+03  0.26179050302E+03  0.12500000000E+03 0.  0.
         25    1    1    2    0    0 -0.21283719096E+02  0.48780224340E+02 -0.43803647063E+03  0.45862125614E+03  0.12500000000E+03 0.  0.
</event>
<event>
 5    0  0.5648525E-005  0.1955264E+03  0.7546771E-02  0.1153569E+00
         21   -1    0    0  502  501  0.00000000000E+00  0.00000000000E+00  0.18150688733E+03  0.18150688733E+03  0.00000000000E+00 0.  1.
         21   -1    0    0  501  502 -0.00000000000E+00 -0.00000000000E+00 -0.21062886159E+03  0.21062886159E+03  0.00000000000E+00 0.  1.
         25    1    1    2    0    0  0.30611349277E+02  0.63363820329E+01 -0.67195754828E+01  0.12902463771E+03  0.12500000000E+03 0.  0.
         25    1    1    2    0    0 -0.34047963964E+02  0.33759501545E+01  0.19102390164E+02  0.13099832900E+03  0.12500000000E+03 0.  0.
         25    1    1    2    0    0  0.34366146873E+01 -0.97123321874E+01 -0.41504788943E+02  0.13211278221E+03  0.12500000000E+03 0.  0.
</event>
<event>
 5    0  0.5648525E-005  0.4262365E+03  0.7546771E-02  0.1035055E+00
         21   -1    0    0  502  501  0.00000000000E+00  0.00000000000E+00  0.40560463183E+03  0.40560463183E+03  0.00000000000E+00 0. -1.
         21   -1    0    0  501  502 -0.00000000000E+00 -0.00000000000E+00 -0.44791791134E+03  0.44791791134E+03  0.00000000000E+00 0. -1.
         25    1    1    2    0    0  0.77861133452E+02  0.11665993006E+03  0.67043743222E+02  0.19947871789E+03  0.12500000000E+03 0.  0.
         25    1    1    2    0    0  0.17398500126E+03  0.14502354106E+03 -0.69556708857E+02  0.26789129115E+03  0.12500000000E+03 0.  0.
         25    1    1    2    0    0 -0.25184613471E+03 -0.26168347112E+03 -0.39800313878E+02  0.38615253413E+03  0.12500000000E+03 0.  0.
</event>
<event>
 5    0  0.5648525E-005  0.4768186E+03  0.7546771E-02  0.1020013E+00
         21   -1    0    0  502  501  0.00000000000E+00  0.00000000000E+00  0.10182862536E+03  0.10182862536E+03  0.00000000000E+00 0.  1.
         21   -1    0    0  501  502 -0.00000000000E+00 -0.00000000000E+00 -0.22327315410E+04  0.22327315410E+04  0.00000000000E+00 0.  1.
         25    1    1    2    0    0  0.46447518938E+02 -0.12284852480E+03 -0.99772548415E+02  0.20695094462E+03  0.12500000000E+03 0.  0.
         25    1    1    2    0    0 -0.15645160933E+03 -0.66511899852E+02 -0.24318504884E+03  0.32197035090E+03  0.12500000000E+03 0.  0.
         25    1    1    2    0    0  0.11000409039E+03  0.18936042466E+03 -0.17879453184E+04  0.18056388708E+04  0.12500000000E+03 0.  0.
</event>
<event>
 5    0  0.5648525E-005  0.4022830E+03  0.7546771E-02  0.1042992E+00
         21   -1    0    0  502  501  0.00000000000E+00  0.00000000000E+00  0.22763716220E+04  0.22763716220E+04  0.00000000000E+00 0.  1.
         21   -1    0    0  501  502 -0.00000000000E+00 -0.00000000000E+00 -0.71091901019E+02  0.71091901019E+02  0.00000000000E+00 0. -1.
         25    1    1    2    0    0  0.70863988967E+01  0.11824905124E+03  0.85388426319E+03  0.87107771760E+03  0.12500000000E+03 0.  0.
         25    1    1    2    0    0 -0.43538954398E+01 -0.32525300166E+03  0.70980222363E+03  0.79072920028E+03  0.12500000000E+03 0.  0.
         25    1    1    2    0    0 -0.27325034569E+01  0.20700395042E+03  0.64159323416E+03  0.68565660515E+03  0.12500000000E+03 0.  0.
</event>
<event>
 5    0  0.5648525E-005  0.4311353E+03  0.7546771E-02  0.1033502E+00
         21   -1    0    0  502  501  0.00000000000E+00  0.00000000000E+00  0.16201484020E+04  0.16201484020E+04  0.00000000000E+00 0.  1.
         21   -1    0    0  501  502 -0.00000000000E+00 -0.00000000000E+00 -0.11472876941E+03  0.11472876941E+03  0.00000000000E+00 0.  1.
         25    1    1    2    0    0  0.22657249228E+03  0.97670290872E+01  0.17606130517E+03  0.31313427199E+03  0.12500000000E+03 0.  0.
         25    1    1    2    0    0 -0.23439377505E+03 -0.15742972864E+03  0.75870070473E+03  0.81913144281E+03  0.12500000000E+03 0.  0.
         25    1    1    2    0    0  0.78212827698E+01  0.14766269956E+03  0.57065762267E+03  0.60261145660E+03  0.12500000000E+03 0.  0.
</event>
<event>
 5    0  0.5648525E-005  0.2118836E+03  0.7546771E-02  0.1140083E+00
         21   -1    0    0  502  501  0.00000000000E+00  0.00000000000E+00  0.54154208554E+03  0.54154208554E+03  0.00000000000E+00 0.  1.
         21   -1    0    0  501  502 -0.00000000000E+00 -0.00000000000E+00 -0.82901521731E+02  0.82901521731E+02  0.00000000000E+00 0.  1.
         25    1    1    2    0    0 -0.30023923308E+02 -0.66854678600E+02  0.20854235994E+03  0.25394074094E+03  0.12500000000E+03 0.  0.
         25    1    1    2    0    0  0.30745867417E+02  0.67068224303E+02  0.16235896428E+03  0.21778174477E+03  0.12500000000E+03 0.  0.
         25    1    1    2    0    0 -0.72194410935E+00 -0.21354570307E+00  0.87739239589E+02  0.15272112155E+03  0.12500000000E+03 0.  0.
</event>
<event>
 5    0  0.5648525E-005  0.2975925E+03  0.7546771E-02  0.1086450E+00
         21   -1    0    0  502  501  0.00000000000E+00  0.00000000000E+00  0.70359564186E+02  0.70359564186E+02  0.00000000000E+00 0.  1.
         21   -1    0    0  501  502 -0.00000000000E+00 -0.00000000000E+00 -0.12586962966E+04  0.12586962966E+04  0.00000000000E+00 0.  1.
         25    1    1    2    0    0 -0.94925368887E+01 -0.38608861057E+02 -0.33460695587E+03  0.35939889722E+03  0.12500000000E+03 0.  0.
         25    1    1    2    0    0  0.18406155871E+03  0.46337283409E+02 -0.30497203597E+03  0.38034030019E+03  0.12500000000E+03 0.  0.
         25    1    1    2    0    0 -0.17456902182E+03 -0.77284223519E+01 -0.54875774063E+03  0.58931666342E+03  0.12500000000E+03 0.  0.
</event>
<event>
 5    0  0.5648525E-005  0.3741549E+03  0.7546771E-02  0.1053116E+00
         21   -1    0    0  502  501  0.00000000000E+00  0.00000000000E+00  0.13094862010E+03  0.13094862010E+03  0.00000000000E+00 0. -1.
         21   -1    0    0  501  502 -0.00000000000E+00 -0.00000000000E+00 -0.10690597753E+04  0.10690597753E+04  0.00000000000E+00 0. -1.
         25    1    1    2    0    0  0.13660039722E+03  0.13526141915E+02 -0.30225725784E+03  0.35472112279E+03  0.12500000000E+03 0.  0.
         25    1    1    2    0    0 -0.72514081515E+02  0.10543477996E+03 -0.63655289373E+03  0.66121053482E+03  0.12500000000E+03 0.  0.
         25    1    1    2    0    0 -0.64086315705E+02 -0.11896092187E+03  0.69899638284E+00  0.18407673777E+03  0.12500000000E+03 0.  0.
</event>
<event>
 5    0  0.5648525E-005  0.2472802E+03  0.7546771E-02  0.1115036E+00
         21   -1    0    0  502  501  0.00000000000E+00  0.00000000000E+00  0.29032616518E+02  0.29032616518E+02  0.00000000000E+00 0.  1.
         21   -1    0    0  501  502 -0.00000000000E+00 -0.00000000000E+00 -0.21061648109E+04  0.21061648109E+04  0.00000000000E+00 0.  1.
         25    1    1    2    0    0 -0.56673462205E+02 -0.70712906515E+02 -0.93409222451E+03  0.94676580016E+03  0.12500000000E+03 0.  0.
         25    1    1    2    0    0  0.10914471940E+03  0.48604548257E+02 -0.45357873631E+03  0.48542109752E+03  0.12500000000E+03 0.  0.
         25    1    1    2    0    0 -0.52471257194E+02  0.22108358258E+02 -0.68946123361E+03  0.70301052978E+03  0.12500000000E+03 0.  0.
</event>
<event>
 5    0  0.5648525E-005  0.2510720E+03  0.7546771E-02  0.1112629E+00
         21   -1    0    0  502  501  0.00000000000E+00  0.00000000000E+00  0.86494315291E+02  0.86494315291E+02  0.00000000000E+00 0. -1.
         21   -1    0    0  501  502 -0.00000000000E+00 -0.00000000000E+00 -0.72880109100E+03  0.72880109100E+03  0.00000000000E+00 0. -1.
         25    1    1    2    0    0 -0.21379731071E+02  0.84359372620E+02 -0.28192286151E+03  0.32043579153E+03  0.12500000000E+03 0.  0.
         25    1    1    2    0    0  0.44170859942E+02  0.61109563396E+02 -0.15612662864E+03  0.21374276076E+03  0.12500000000E+03 0.  0.
         25    1    1    2    0    0 -0.22791128872E+02 -0.14546893602E+03 -0.20425728555E+03  0.28111685400E+03  0.12500000000E+03 0.  0.
</event>
<event>
 5    0  0.5648525E-005  0.2356905E+03  0.7546771E-02  0.1122697E+00
         21   -1    0    0  502  501  0.00000000000E+00  0.00000000000E+00  0.58023883021E+03  0.58023883021E+03  0.00000000000E+00 0. -1.
         21   -1    0    0  501  502 -0.00000000000E+00 -0.00000000000E+00 -0.95736473983E+02  0.95736473983E+02  0.00000000000E+00 0. -1.
         25    1    1    2    0    0  0.28418832291E+02  0.24154186176E+02  0.32142989968E+02  0.13434740988E+03  0.12500000000E+03 0.  0.
         25    1    1    2    0    0 -0.85440225758E+01 -0.61838638042E+02  0.12067434060E+03  0.18461937589E+03  0.12500000000E+03 0.  0.
         25    1    1    2    0    0 -0.19874809715E+02  0.37684451865E+02  0.33168502567E+03  0.35700851842E+03  0.12500000000E+03 0.  0.
</event>
<event>
 5    0  0.5853747E-005  0.2899254E+03  0.7546771E-02  0.1090388E+00
         21   -1    0    0  502  501  0.00000000000E+00  0.00000000000E+00  0.19354384518E+03  0.19354384518E+03  0.00000000000E+00 0. -1.
         21   -1    0    0  501  502 -0.00000000000E+00 -0.00000000000E+00 -0.43430332838E+03  0.43430332838E+03  0.00000000000E+00 0. -1.
         25    1    1    2    0    0 -0.66418659218E+02  0.86506945169E+02 -0.19615746960E+03  0.25690006371E+03  0.12500000000E+03 0.  0.
         25    1    1    2    0    0  0.14937072997E+03 -0.49252105039E+02 -0.73053631949E+02  0.21377375415E+03  0.12500000000E+03 0.  0.
         25    1    1    2    0    0 -0.82952070752E+02 -0.37254840130E+02  0.28451618352E+02  0.15717335570E+03  0.12500000000E+03 0.  0.
</event>
<event>
 5    0  0.5648525E-005  0.2288541E+03  0.7546771E-02  0.1127449E+00
         21   -1    0    0  502  501  0.00000000000E+00  0.00000000000E+00  0.44610210341E+03  0.44610210341E+03  0.00000000000E+00 0.  1.
         21   -1    0    0  501  502 -0.00000000000E+00 -0.00000000000E+00 -0.11740403084E+03  0.11740403084E+03  0.00000000000E+00 0.  1.
         25    1    1    2    0    0 -0.59282382583E+02  0.80808103462E+02  0.15554696836E+03  0.22330295528E+03  0.12500000000E+03 0.  0.
         25    1    1    2    0    0 -0.11042983581E+02 -0.53268991736E+02  0.12886403750E+03  0.18759123948E+03  0.12500000000E+03 0.  0.
         25    1    1    2    0    0  0.70325366164E+02 -0.27539111726E+02  0.44287066705E+02  0.15261193950E+03  0.12500000000E+03 0.  0.
</event>
<event>
 5    0  0.5648525E-005  0.3431409E+03  0.7546771E-02  0.1065466E+00
         21   -1    0    0  502  501  0.00000000000E+00  0.00000000000E+00  0.10998394525E+03  0.10998394525E+03  0.00000000000E+00 0. -1.
         21   -1    0    0  501  502 -0.00000000000E+00 -0.00000000000E+00 -0.10705716061E+04  0.10705716061E+04  0.00000000000E+00 0. -1.
         25    1    1    2    0    0  0.19682054613E+03  0.70297499006E+02 -0.37322289563E+03  0.44564604292E+03  0.12500000000E+03 0.  0.
         25    1    1    2    0    0 -0.86619111493E+02 -0.14708840373E+03 -0.14637467940E+03  0.25727109390E+03  0.12500000000E+03 0.  0.
         25    1    1    2    0    0 -0.11020143464E+03  0.76790904721E+02 -0.44099008587E+03  0.47763841457E+03  0.12500000000E+03 0.  0.
</event>
<event>
 5    0  0.5748775E-005  0.5568468E+03  0.7546771E-02  0.9999215E-01
         21   -1    0    0  502  501  0.00000000000E+00  0.00000000000E+00  0.11752494565E+04  0.11752494565E+04  0.00000000000E+00 0. -1.
         21   -1    0    0  501  502 -0.00000000000E+00 -0.00000000000E+00 -0.26384047360E+03  0.26384047360E+03  0.00000000000E+00 0.  1.
         25    1    1    2    0    0  0.28608782572E+03 -0.15844994027E+03 -0.31750458471E+01  0.35012527546E+03  0.12500000000E+03 0.  0.
         25    1    1    2    0    0 -0.28362678933E+03  0.63117624376E+02  0.24205142106E+03  0.39829873282E+03  0.12500000000E+03 0.  0.
         25    1    1    2    0    0 -0.24610363929E+01  0.95332315898E+02  0.67253260770E+03  0.69066592183E+03  0.12500000000E+03 0.  0.
</event>
<event>
 5    0  0.5648525E-005  0.7326264E+03  0.7546771E-02  0.9663008E-01
         21   -1    0    0  502  501  0.00000000000E+00  0.00000000000E+00  0.11037921785E+04  0.11037921785E+04  0.00000000000E+00 0.  1.
         21   -1    0    0  501  502 -0.00000000000E+00 -0.00000000000E+00 -0.48627032797E+03  0.48627032797E+03  0.00000000000E+00 0.  1.
         25    1    1    2    0    0 -0.55213236762E+02  0.78012396902E+02  0.34999944478E+03  0.38374346500E+03  0.12500000000E+03 0.  0.
         25    1    1    2    0    0  0.20101244606E+03  0.22386463678E+03  0.62231741805E+03  0.70244241606E+03  0.12500000000E+03 0.  0.
         25    1    1    2    0    0 -0.14579920930E+03 -0.30187703368E+03 -0.35479501230E+03  0.50387662542E+03  0.12500000000E+03 0.  0.
</event>
<event>
 5    0  0.5648525E-005  0.4994744E+03  0.7546771E-02  0.1013916E+00
         21   -1    0    0  502  501  0.00000000000E+00  0.00000000000E+00  0.12031679602E+03  0.12031679602E+03  0.00000000000E+00 0. -1.
         21   -1    0    0  501  502 -0.00000000000E+00 -0.00000000000E+00 -0.20734815429E+04  0.20734815429E+04  0.00000000000E+00 0. -1.
         25    1    1    2    0    0  0.36858624671E+03  0.88263334557E+02 -0.50816951361E+03  0.64614819667E+03  0.12500000000E+03 0.  0.
         25    1    1    2    0    0 -0.49537669891E+02  0.40402694335E+02 -0.16650166194E+03  0.21779385178E+03  0.12500000000E+03 0.  0.
         25    1    1    2    0    0 -0.31904857682E+03 -0.12866602889E+03 -0.12784935713E+04  0.13298562904E+04  0.12500000000E+03 0.  0.
</event>
<event>
 5    0  0.5648525E-005  0.2881260E+03  0.7546771E-02  0.1091332E+00
         21   -1    0    0  502  501  0.00000000000E+00  0.00000000000E+00  0.40954688061E+03  0.40954688061E+03  0.00000000000E+00 0.  1.
         21   -1    0    0  501  502 -0.00000000000E+00 -0.00000000000E+00 -0.20270353527E+03  0.20270353527E+03  0.00000000000E+00 0.  1.
         25    1    1    2    0    0  0.11393098597E+02 -0.19038394436E+03  0.80346164133E+02  0.24177749080E+03  0.12500000000E+03 0.  0.
         25    1    1    2    0    0  0.49837498733E+01  0.18012363158E+03  0.58985939283E+02  0.22709844000E+03  0.12500000000E+03 0.  0.
         25    1    1    2    0    0 -0.16376848470E+02  0.10260312782E+02  0.67511241926E+02  0.14337448508E+03  0.12500000000E+03 0.  0.
</event>
<event>
 5    0  0.5648525E-005  0.4213163E+03  0.7546771E-02  0.1036639E+00
         21   -1    0    0  502  501  0.00000000000E+00  0.00000000000E+00  0.24673239938E+03  0.24673239938E+03  0.00000000000E+00 0. -1.
         21   -1    0    0  501  502 -0.00000000000E+00 -0.00000000000E+00 -0.71943294664E+03  0.71943294664E+03  0.00000000000E+00 0. -1.
         25    1    1    2    0    0 -0.15507419743E+03 -0.81263592849E+02 -0.38942113853E+03  0.44488830213E+03  0.12500000000E+03 0.  0.
         25    1    1    2    0    0 -0.85232846798E+02  0.17173831263E+03 -0.31388961860E+02  0.23101721391E+03  0.12500000000E+03 0.  0.
         25    1    1    2    0    0  0.24030704423E+03 -0.90474719779E+02 -0.51890446857E+02  0.29025982998E+03  0.12500000000E+03 0.  0.
</event>
<event>
 5    0  0.5648525E-005  0.2762366E+03  0.7546771E-02  0.1097762E+00
         21   -1    0    0  502  501  0.00000000000E+00  0.00000000000E+00  0.64114508982E+02  0.64114508982E+02  0.00000000000E+00 0. -1.
         21   -1    0    0  501  502 -0.00000000000E+00 -0.00000000000E+00 -0.11901623252E+04  0.11901623252E+04  0.00000000000E+00 0. -1.
         25    1    1    2    0    0 -0.14935178739E+02  0.36111450554E+02 -0.76980853083E+02  0.15191493727E+03  0.12500000000E+03 0.  0.
         25    1    1    2    0    0 -0.41226019991E+02 -0.32571732129E+02 -0.84947452361E+03  0.86022814922E+03  0.12500000000E+03 0.  0.
         25    1    1    2    0    0  0.56161198729E+02 -0.35397184252E+01 -0.19959243950E+03  0.24213374766E+03  0.12500000000E+03 0.  0.
</event>
<event>
 5    0  0.5648525E-005  0.3948023E+03  0.7546771E-02  0.1045594E+00
         21   -1    0    0  502  501  0.00000000000E+00  0.00000000000E+00  0.13624419598E+03  0.13624419598E+03  0.00000000000E+00 0.  1.
         21   -1    0    0  501  502 -0.00000000000E+00 -0.00000000000E+00 -0.11440402022E+04  0.11440402022E+04  0.00000000000E+00 0.  1.
         25    1    1    2    0    0 -0.44407615289E+02  0.10124174328E+03 -0.81142217438E+02  0.18555588465E+03  0.12500000000E+03 0.  0.
         25    1    1    2    0    0 -0.28796784099E+02 -0.19661749297E+03 -0.88602176886E+03  0.91659547687E+03  0.12500000000E+03 0.  0.
         25    1    1    2    0    0  0.73204399387E+02  0.95375749691E+02 -0.40632019950E+02  0.17813303670E+03  0.12500000000E+03 0.  0.
</event>
<event>
 5    0  0.5648525E-005  0.4480459E+03  0.7546771E-02  0.1028306E+00
         21   -1    0    0  502  501  0.00000000000E+00  0.00000000000E+00  0.53146747027E+03  0.53146747027E+03  0.00000000000E+00 0.  1.
         21   -1    0    0  501  502 -0.00000000000E+00 -0.00000000000E+00 -0.37771850814E+03  0.37771850814E+03  0.00000000000E+00 0.  1.
         25    1    1    2    0    0 -0.13675042140E+03  0.42965548158E+02 -0.34451772501E+02  0.19328383458E+03  0.12500000000E+03 0.  0.
         25    1    1    2    0    0 -0.69349660480E+02 -0.18347553281E+03 -0.15053609665E+03  0.27705371851E+03  0.12500000000E+03 0.  0.
         25    1    1    2    0    0  0.20610008188E+03  0.14050998465E+03  0.33873683129E+03  0.43884842532E+03  0.12500000000E+03 0.  0.
</event>
<event>
 5    0  0.5648525E-005  0.2632426E+03  0.7546771E-02  0.1105211E+00
         21   -1    0    0  502  501  0.00000000000E+00  0.00000000000E+00  0.91824949550E+03  0.91824949550E+03  0.00000000000E+00 0.  1.
         21   -1    0    0  501  502 -0.00000000000E+00 -0.00000000000E+00 -0.75466058999E+02  0.75466058999E+02  0.00000000000E+00 0.  1.
         25    1    1    2    0    0 -0.43771932391E+02  0.52252339858E+02  0.27516173986E+03  0.30981489985E+03  0.12500000000E+03 0.  0.
         25    1    1    2    0    0  0.82256127491E+02 -0.12085260932E+02  0.66064916830E+02  0.16401736883E+03  0.12500000000E+03 0.  0.
         25    1    1    2    0    0 -0.38484195100E+02 -0.40167078926E+02  0.50155677981E+03  0.51988328582E+03  0.12500000000E+03 0.  0.
</event>
<event>
 5    0  0.5648525E-005  0.4466656E+03  0.7546771E-02  0.1028721E+00
         21   -1    0    0  502  501  0.00000000000E+00  0.00000000000E+00  0.22432436994E+03  0.22432436994E+03  0.00000000000E+00 0.  1.
         21   -1    0    0  501  502 -0.00000000000E+00 -0.00000000000E+00 -0.88938228839E+03  0.88938228839E+03  0.00000000000E+00 0.  1.
         25    1    1    2    0    0 -0.57981937622E+01 -0.16720964976E+03 -0.13444877083E+03  0.24838308719E+03  0.12500000000E+03 0.  0.
         25    1    1    2    0    0 -0.18717357562E+02 -0.14066206398E+03  0.50269503773E+02  0.19567365364E+03  0.12500000000E+03 0.  0.
         25    1    1    2    0    0  0.24515551325E+02  0.30787171374E+03 -0.58087865138E+03  0.66964991750E+03  0.12500000000E+03 0.  0.
</event>
<event>
 5    0  0.5648525E-005  0.3177221E+03  0.7546771E-02  0.1076702E+00
         21   -1    0    0  502  501  0.00000000000E+00  0.00000000000E+00  0.65611022224E+03  0.65611022224E+03  0.00000000000E+00 0. -1.
         21   -1    0    0  501  502 -0.00000000000E+00 -0.00000000000E+00 -0.15385724231E+03  0.15385724231E+03  0.00000000000E+00 0. -1.
         25    1    1    2    0    0 -0.12694516014E+03  0.50807797958E+02  0.84605072618E+02  0.20366522611E+03  0.12500000000E+03 0.  0.
         25    1    1    2    0    0  0.11414202605E+03 -0.12219881710E+03  0.41176159518E+03  0.46166390835E+03  0.12500000000E+03 0.  0.
         25    1    1    2    0    0  0.12803134092E+02  0.71391019145E+02  0.58863121353E+01  0.14463833008E+03  0.12500000000E+03 0.  0.
</event>
<event>
 5    0  0.5648525E-005  0.3651123E+03  0.7546771E-02  0.1056578E+00
         21   -1    0    0  502  501  0.00000000000E+00  0.00000000000E+00  0.42408961447E+03  0.42408961447E+03  0.00000000000E+00 0. -1.
         21   -1    0    0  501  502 -0.00000000000E+00 -0.00000000000E+00 -0.31433690542E+03  0.31433690542E+03  0.00000000000E+00 0. -1.
         25    1    1    2    0    0 -0.48011938455E+02 -0.10299259135E+01  0.27327445402E+03  0.30431913217E+03  0.12500000000E+03 0.  0.
         25    1    1    2    0    0  0.11488619287E+02 -0.11547863439E+03 -0.19226922057E+03  0.25702092629E+03  0.12500000000E+03 0.  0.
         25    1    1    2    0    0  0.36523319168E+02  0.11650856031E+03  0.28747475597E+02  0.17708646143E+03  0.12500000000E+03 0.  0.
</event>
<event>
 5    0  0.5648525E-005  0.5136299E+03  0.7546771E-02  0.1010281E+00
         21   -1    0    0  502  501  0.00000000000E+00  0.00000000000E+00  0.67536476503E+03  0.67536476503E+03  0.00000000000E+00 0. -1.
         21   -1    0    0  501  502 -0.00000000000E+00 -0.00000000000E+00 -0.39062701882E+03  0.39062701882E+03  0.00000000000E+00 0. -1.
         25    1    1    2    0    0 -0.30644921242E+03  0.12607732784E+03  0.41795332763E+03  0.54782898469E+03  0.12500000000E+03 0.  0.
         25    1    1    2    0    0  0.56573016053E+02 -0.12050614252E+01  0.66755398513E+02  0.15258847122E+03  0.12500000000E+03 0.  0.
         25    1    1    2    0    0  0.24987619637E+03 -0.12487226641E+03 -0.19997097994E+03  0.36557432794E+03  0.12500000000E+03 0.  0.
</event>
<event>
 5    0  0.5648525E-005  0.2616544E+03  0.7546771E-02  0.1106153E+00
         21   -1    0    0  502  501  0.00000000000E+00  0.00000000000E+00  0.11395178404E+03  0.11395178404E+03  0.00000000000E+00 0.  1.
         21   -1    0    0  501  502 -0.00000000000E+00 -0.00000000000E+00 -0.60080695033E+03  0.60080695033E+03  0.00000000000E+00 0.  1.
         25    1    1    2    0    0 -0.47553427194E+02 -0.26132496074E+02 -0.16134693633E+02  0.13722085894E+03  0.12500000000E+03 0.  0.
         25    1    1    2    0    0  0.85261116029E+01  0.35135086298E+02 -0.54438704973E+02  0.14105226502E+03  0.12500000000E+03 0.  0.
         25    1    1    2    0    0  0.39027315591E+02 -0.90025902243E+01 -0.41628176768E+03  0.43648561042E+03  0.12500000000E+03 0.  0.
</event>
<event>
 5    0  0.5648525E-005  0.2574279E+03  0.7546771E-02  0.1108699E+00
         21   -1    0    0  502  501  0.00000000000E+00  0.00000000000E+00  0.31860040686E+03  0.31860040686E+03  0.00000000000E+00 0. -1.
         21   -1    0    0  501  502 -0.00000000000E+00 -0.00000000000E+00 -0.20800077102E+03  0.20800077102E+03  0.00000000000E+00 0. -1.
         25    1    1    2    0    0  0.64585024296E+01 -0.95322760576E+02 -0.56284369464E+02  0.16709599392E+03  0.12500000000E+03 0.  0.
         25    1    1    2    0    0 -0.66839960685E+02  0.82399664987E+02  0.35129657486E+02  0.16767939041E+03  0.12500000000E+03 0.  0.
         25    1    1    2    0    0  0.60381458255E+02  0.12923095589E+02  0.13175434782E+03  0.19182579355E+03  0.12500000000E+03 0.  0.
</event>
<event>
 5    0  0.5648525E-005  0.5319984E+03  0.7546771E-02  0.1005749E+00
         21   -1    0    0  502  501  0.00000000000E+00  0.00000000000E+00  0.34819481612E+03  0.34819481612E+03  0.00000000000E+00 0.  1.
         21   -1    0    0  501  502 -0.00000000000E+00 -0.00000000000E+00 -0.81282734464E+03  0.81282734464E+03  0.00000000000E+00 0.  1.
         25    1    1    2    0    0  0.24432977348E+03 -0.20720635955E+03  0.17278987853E+03  0.38485433058E+03  0.12500000000E+03 0.  0.
         25    1    1    2    0    0 -0.18678464564E+03  0.90954869219E+02 -0.47640288273E+03  0.53455214783E+03  0.12500000000E+03 0.  0.
         25    1    1    2    0    0 -0.57545127835E+02  0.11625149033E+03 -0.16101952432E+03  0.24161568235E+03  0.12500000000E+03 0.  0.
</event>
<event>
 5    0  0.5648525E-005  0.7768924E+03  0.7546771E-02  0.9594080E-01
         21   -1    0    0  502  501  0.00000000000E+00  0.00000000000E+00  0.12655252414E+04  0.12655252414E+04  0.00000000000E+00 0.  1.
         21   -1    0    0  501  502 -0.00000000000E+00 -0.00000000000E+00 -0.47692593664E+03  0.47692593664E+03  0.00000000000E+00 0.  1.
         25    1    1    2    0    0 -0.17623769103E+02 -0.32285228444E+03 -0.10382637021E+03  0.36186891267E+03  0.12500000000E+03 0.  0.
         25    1    1    2    0    0  0.77010709595E+02 -0.27486918848E+03  0.17679628440E+02  0.31212383669E+03  0.12500000000E+03 0.  0.
         25    1    1    2    0    0 -0.59386940492E+02  0.59772147292E+03  0.87474604651E+03  0.10684584287E+04  0.12500000000E+03 0.  0.
</event>
<event>
 5    0  0.5648525E-005  0.5023357E+03  0.7546771E-02  0.1013171E+00
         21   -1    0    0  502  501  0.00000000000E+00  0.00000000000E+00  0.10396901889E+03  0.10396901889E+03  0.00000000000E+00 0.  1.
         21   -1    0    0  501  502 -0.00000000000E+00 -0.00000000000E+00 -0.24270803253E+04  0.24270803253E+04  0.00000000000E+00 0.  1.
         25    1    1    2    0    0 -0.20930904205E+03 -0.14088003536E+03 -0.16477154974E+03  0.32623936466E+03  0.12500000000E+03 0.  0.
         25    1    1    2    0    0  0.63594301990E+02 -0.43146322375E+01 -0.14482695675E+04  0.14550507178E+04  0.12500000000E+03 0.  0.
         25    1    1    2    0    0  0.14571474006E+03  0.14519466760E+03 -0.71007018925E+03  0.74975926178E+03  0.12500000000E+03 0.  0.
</event>
<event>
 5    0  0.5804616E-005  0.2842464E+03  0.7546771E-02  0.1093392E+00
         21   -1    0    0  502  501  0.00000000000E+00  0.00000000000E+00  0.42603919737E+03  0.42603919737E+03  0.00000000000E+00 0.  1.
         21   -1    0    0  501  502 -0.00000000000E+00 -0.00000000000E+00 -0.18964454435E+03  0.18964454435E+03  0.00000000000E+00 0.  1.
         25    1    1    2    0    0 -0.44935630064E+02  0.19050053875E+03  0.38803341581E+02  0.23545777844E+03  0.12500000000E+03 0.  0.
         25    1    1    2    0    0  0.37434491731E+02 -0.59407543847E+02  0.80827760510E+02  0.16458652529E+03  0.12500000000E+03 0.  0.
         25    1    1    2    0    0  0.75011383337E+01 -0.13109299490E+03  0.11676355093E+03  0.21563943799E+03  0.12500000000E+03 0.  0.
</event>
<event>
 5    0  0.5648525E-005  0.4511979E+03  0.7546771E-02  0.1027365E+00
         21   -1    0    0  502  501  0.00000000000E+00  0.00000000000E+00  0.83995949356E+03  0.83995949356E+03  0.00000000000E+00 0.  1.
         21   -1    0    0  501  502 -0.00000000000E+00 -0.00000000000E+00 -0.24236832130E+03  0.24236832130E+03  0.00000000000E+00 0.  1.
         25    1    1    2    0    0 -0.31541952554E+03  0.81020557142E+02  0.31424657944E+03  0.46949943606E+03  0.12500000000E+03 0.  0.
         25    1    1    2    0    0  0.23515256497E+03 -0.16382121054E+03  0.38947885818E+02  0.31508103028E+03  0.12500000000E+03 0.  0.
         25    1    1    2    0    0  0.80266960570E+02  0.82800653394E+02  0.24439670701E+03  0.29774734853E+03  0.12500000000E+03 0.  0.
</event>
<event>
 5    0  0.5648525E-005  0.3521128E+03  0.7546771E-02  0.1061751E+00
         21   -1    0    0  502  501  0.00000000000E+00  0.00000000000E+00  0.90885722967E+03  0.90885722967E+03  0.00000000000E+00 0. -1.
         21   -1    0    0  501  502 -0.00000000000E+00 -0.00000000000E+00 -0.13641682512E+03  0.13641682512E+03  0.00000000000E+00 0. -1.
         25    1    1    2    0    0  0.51691727628E+02  0.23805745321E+03  0.29384062362E+03  0.40163503062E+03  0.12500000000E+03 0.  0.
         25    1    1    2    0    0  0.68875581835E+02 -0.19935694409E+02  0.22228836751E+03  0.26491205336E+03  0.12500000000E+03 0.  0.
         25    1    1    2    0    0 -0.12056730946E+03 -0.21812175880E+03  0.25631141341E+03  0.37872697081E+03  0.12500000000E+03 0.  0.
</event>
<event>
 5    0  0.5648525E-005  0.1984209E+03  0.7546771E-02  0.1151078E+00
         21   -1    0    0  502  501  0.00000000000E+00  0.00000000000E+00  0.28647988825E+03  0.28647988825E+03  0.00000000000E+00 0. -1.
         21   -1    0    0  501  502 -0.00000000000E+00 -0.00000000000E+00 -0.13742969549E+03  0.13742969549E+03  0.00000000000E+00 0. -1.
         25    1    1    2    0    0 -0.35596722887E+02  0.91833452177E+01  0.45223617084E+02  0.13791894740E+03  0.12500000000E+03 0.  0.
         25    1    1    2    0    0  0.95427406333E+00  0.33924143429E+02  0.44132837059E+02  0.13683736863E+03  0.12500000000E+03 0.  0.
         25    1    1    2    0    0  0.34642448824E+02 -0.43107488647E+02  0.59693738616E+02  0.14915326771E+03  0.12500000000E+03 0.  0.
</event>
<event>
 5    0  0.5648525E-005  0.2697807E+03  0.7546771E-02  0.1101405E+00
         21   -1    0    0  502  501  0.00000000000E+00  0.00000000000E+00  0.68964557175E+03  0.68964557175E+03  0.00000000000E+00 0. -1.
         21   -1    0    0  501  502 -0.00000000000E+00 -0.00000000000E+00 -0.10553486555E+03  0.10553486555E+03  0.00000000000E+00 0. -1.
         25    1    1    2    0    0  0.28583835145E+02 -0.17859268837E+02  0.24182547258E+03  0.27430010628E+03  0.12500000000E+03 0.  0.
         25    1    1    2    0    0  0.98724029700E+02  0.43227954405E+02  0.28925465652E+03  0.33302904738E+03  0.12500000000E+03 0.  0.
         25    1    1    2    0    0 -0.12730786485E+03 -0.25368685568E+02  0.53030577099E+02  0.18785128364E+03  0.12500000000E+03 0.  0.
</event>
<event>
 5    0  0.5648525E-005  0.4623819E+03  0.7546771E-02  0.1024093E+00
         21   -1    0    0  502  501  0.00000000000E+00  0.00000000000E+00  0.96459342912E+03  0.96459342912E+03  0.00000000000E+00 0. -1.
         21   -1    0    0  501  502 -0.00000000000E+00 -0.00000000000E+00 -0.22164471519E+03  0.22164471519E+03  0.00000000000E+00 0. -1.
         25    1    1    2    0    0  0.15931122873E+03 -0.13113298556E+03  0.11240957938E+03  0.26615191346E+03  0.12500000000E+03 0.  0.
         25    1    1    2    0    0 -0.18896548945E+03 -0.20565818548E+03  0.33730832851E+03  0.45541755999E+03  0.12500000000E+03 0.  0.
         25    1    1    2    0    0  0.29654260719E+02  0.33679117104E+03  0.29323080603E+03  0.46466867086E+03  0.12500000000E+03 0.  0.
</event>
<event>
 5    0  0.5648525E-005  0.3550789E+03  0.7546771E-02  0.1060550E+00
         21   -1    0    0  502  501  0.00000000000E+00  0.00000000000E+00  0.16380578083E+04  0.16380578083E+04  0.00000000000E+00 0.  1.
         21   -1    0    0  501  502 -0.00000000000E+00 -0.00000000000E+00 -0.76969824476E+02  0.76969824476E+02  0.00000000000E+00 0.  1.
         25    1    1    2    0    0  0.23121909734E+03 -0.21049034610E+02  0.70175815297E+03  0.74966314975E+03  0.12500000000E+03 0.  0.
         25    1    1    2    0    0 -0.94816417866E+02 -0.52719762960E+02  0.67147382708E+03  0.69157185234E+03  0.12500000000E+03 0.  0.
         25    1    1    2    0    0 -0.13640267947E+03  0.73768797570E+02  0.18785600378E+03  0.27379263068E+03  0.12500000000E+03 0.  0.
</event>
<event>
 5    0  0.5648525E-005  0.3851742E+03  0.7546771E-02  0.1049038E+00
         21   -1    0    0  502  501  0.00000000000E+00  0.00000000000E+00  0.15174248429E+04  0.15174248429E+04  0.00000000000E+00 0.  1.
         21   -1    0    0  501  502 -0.00000000000E+00 -0.00000000000E+00 -0.97770366060E+02  0.97770366060E+02  0.00000000000E+00 0.  1.
         25    1    1    2    0    0  0.16776888235E+03 -0.72061804408E+02  0.90839383252E+03  0.93495649979E+03  0.12500000000E+03 0.  0.
         25    1    1    2    0    0 -0.24573383820E+03  0.94298482018E+02  0.39712720568E+03  0.49255694132E+03  0.12500000000E+03 0.  0.
         25    1    1    2    0    0  0.77964955852E+02 -0.22236677610E+02  0.11413343866E+03  0.18768176788E+03  0.12500000000E+03 0.  0.
</event>
<event>
 5    0  0.5648525E-005  0.2156258E+03  0.7546771E-02  0.1137187E+00
         21   -1    0    0  502  501  0.00000000000E+00  0.00000000000E+00  0.18890930806E+03  0.18890930806E+03  0.00000000000E+00 0.  1.
         21   -1    0    0  501  502 -0.00000000000E+00 -0.00000000000E+00 -0.24612069911E+03  0.24612069911E+03  0.00000000000E+00 0.  1.
         25    1    1    2    0    0 -0.32089924714E+02 -0.43619687671E+02  0.64745179372E+01  0.13637946987E+03  0.12500000000E+03 0.  0.
         25    1    1    2    0    0  0.80453780509E+02  0.24119854520E+01 -0.11812651699E+02  0.14914143359E+03  0.12500000000E+03 0.  0.
         25    1    1    2    0    0 -0.48363855796E+02  0.41207702218E+02 -0.51873257284E+02  0.14950910371E+03  0.12500000000E+03 0.  0.
</event>
<event>
 5    0  0.5648525E-005  0.2333788E+03  0.7546771E-02  0.1124284E+00
         21   -1    0    0  502  501  0.00000000000E+00  0.00000000000E+00  0.24881922076E+03  0.24881922076E+03  0.00000000000E+00 0. -1.
         21   -1    0    0  501  502 -0.00000000000E+00 -0.00000000000E+00 -0.21889659748E+03  0.21889659748E+03  0.00000000000E+00 0. -1.
         25    1    1    2    0    0 -0.11815049106E+03  0.12627911216E+02 -0.14150545542E+01  0.17247030196E+03  0.12500000000E+03 0.  0.
         25    1    1    2    0    0  0.67184822247E+02  0.11925651956E+02  0.60907919181E+02  0.15488962565E+03  0.12500000000E+03 0.  0.
         25    1    1    2    0    0  0.50965668809E+02 -0.24553563172E+02 -0.29570241353E+02  0.14035589063E+03  0.12500000000E+03 0.  0.
</event>
<event>
 5    0  0.5648525E-005  0.3664563E+03  0.7546771E-02  0.1056056E+00
         21   -1    0    0  502  501  0.00000000000E+00  0.00000000000E+00  0.16828367925E+03  0.16828367925E+03  0.00000000000E+00 0.  1.
         21   -1    0    0  501  502 -0.00000000000E+00 -0.00000000000E+00 -0.79799898602E+03  0.79799898602E+03  0.00000000000E+00 0.  1.
         25    1    1    2    0    0 -0.55640028076E+01  0.77936157286E+02 -0.10251670947E+03  0.17955411012E+03  0.12500000000E+03 0.  0.
         25    1    1    2    0    0 -0.52670892143E+02 -0.13767146097E+03  0.42208421332E+02  0.19782367117E+03  0.12500000000E+03 0.  0.
         25    1    1    2    0    0  0.58234894950E+02  0.59735303686E+02 -0.56940701864E+03  0.58890488398E+03  0.12500000000E+03 0.  0.
</event>
<event>
 5    0  0.5648525E-005  0.3227951E+03  0.7546771E-02  0.1074370E+00
         21   -1    0    0  502  501  0.00000000000E+00  0.00000000000E+00  0.84581280206E+02  0.84581280206E+02  0.00000000000E+00 0. -1.
         21   -1    0    0  501  502 -0.00000000000E+00 -0.00000000000E+00 -0.12319120917E+04  0.12319120917E+04  0.00000000000E+00 0. -1.
         25    1    1    2    0    0 -0.57387519013E+02 -0.67470215169E+01 -0.50144805789E+02  0.14655494255E+03  0.12500000000E+03 0.  0.
         25    1    1    2    0    0  0.59532440274E+02 -0.12990638782E+03 -0.77872951195E+03  0.80153879121E+03  0.12500000000E+03 0.  0.
         25    1    1    2    0    0 -0.21449212612E+01  0.13665340934E+03 -0.31845649380E+03  0.36839963819E+03  0.12500000000E+03 0.  0.
</event>
<event>
 5    0  0.5648525E-005  0.3943603E+03  0.7546771E-02  0.1045750E+00
         21   -1    0    0  502  501  0.00000000000E+00  0.00000000000E+00  0.88795666733E+03  0.88795666733E+03  0.00000000000E+00 0.  1.
         21   -1    0    0  501  502 -0.00000000000E+00 -0.00000000000E+00 -0.17514369280E+03  0.17514369280E+03  0.00000000000E+00 0.  1.
         25    1    1    2    0    0 -0.21455060974E+03 -0.18379542275E+03  0.16086704095E+03  0.34830435890E+03  0.12500000000E+03 0.  0.
         25    1    1    2    0    0  0.35182624124E+02  0.12607455648E+02  0.47255936137E+02  0.13876198499E+03  0.12500000000E+03 0.  0.
         25    1    1    2    0    0  0.17936798562E+03  0.17118796710E+03  0.50468999744E+03  0.57603401623E+03  0.12500000000E+03 0.  0.
</event>
<event>
 5    0  0.5648525E-005  0.5263859E+03  0.7546771E-02  0.1007112E+00
         21   -1    0    0  502  501  0.00000000000E+00  0.00000000000E+00  0.44037848925E+03  0.44037848925E+03  0.00000000000E+00 0. -1.
         21   -1    0    0  501  502 -0.00000000000E+00 -0.00000000000E+00 -0.62919096110E+03  0.62919096110E+03  0.00000000000E+00 0. -1.
         25    1    1    2    0    0  0.44354936578E+02  0.57440764123E+02  0.17327577430E+03  0.22564639536E+03  0.12500000000E+03 0.  0.
         25    1    1    2    0    0 -0.14217570939E+03  0.15532220180E+03 -0.49111552291E+03  0.54877898608E+03  0.12500000000E+03 0.  0.
         25    1    1    2    0    0  0.97820772816E+02 -0.21276296593E+03  0.12902727677E+03  0.29514406891E+03  0.12500000000E+03 0.  0.
</event>
<event>
 5    0  0.5648525E-005  0.3372678E+03  0.7546771E-02  0.1067966E+00
         21   -1    0    0  502  501  0.00000000000E+00  0.00000000000E+00  0.18283152059E+03  0.18283152059E+03  0.00000000000E+00 0. -1.
         21   -1    0    0  501  502 -0.00000000000E+00 -0.00000000000E+00 -0.62215505380E+03  0.62215505380E+03  0.00000000000E+00 0. -1.
         25    1    1    2    0    0 -0.13061558963E+03  0.10088416461E+03 -0.31513113541E+03  0.37705527370E+03  0.12500000000E+03 0.  0.
         25    1    1    2    0    0  0.12967060098E+03  0.25600638911E+02  0.39580042614E+02  0.18617582347E+03  0.12500000000E+03 0.  0.
         25    1    1    2    0    0  0.94498864514E+00 -0.12648480352E+03 -0.16377244042E+03  0.24175547722E+03  0.12500000000E+03 0.  0.
</event>
<event>
 5    0  0.5648525E-005  0.2736895E+03  0.7546771E-02  0.1099186E+00
         21   -1    0    0  502  501  0.00000000000E+00  0.00000000000E+00  0.22053659224E+03  0.22053659224E+03  0.00000000000E+00 0. -1.
         21   -1    0    0  501  502 -0.00000000000E+00 -0.00000000000E+00 -0.33965317171E+03  0.33965317171E+03  0.00000000000E+00 0. -1.
         25    1    1    2    0    0 -0.32943214434E+02 -0.74688200731E+02  0.73138769522E+02  0.16624639038E+03  0.12500000000E+03 0.  0.
         25    1    1    2    0    0  0.81236501221E+02 -0.18724504009E+02 -0.12066920688E+02  0.15073349580E+03  0.12500000000E+03 0.  0.
         25    1    1    2    0    0 -0.48293286787E+02  0.93412704741E+02 -0.18018842831E+03  0.24320987778E+03  0.12500000000E+03 0.  0.
</event>
<event>
 5    0  0.5648525E-005  0.3357451E+03  0.7546771E-02  0.1068623E+00
         21   -1    0    0  502  501  0.00000000000E+00  0.00000000000E+00  0.19251185533E+03  0.19251185533E+03  0.00000000000E+00 0. -1.
         21   -1    0    0  501  502 -0.00000000000E+00 -0.00000000000E+00 -0.58554718547E+03  0.58554718547E+03  0.00000000000E+00 0. -1.
         25    1    1    2    0    0  0.68449283895E+02 -0.16883181161E+03 -0.25202828900E+03  0.33516077267E+03  0.12500000000E+03 0.  0.
         25    1    1    2    0    0 -0.29992197729E+02  0.87624662607E+02  0.78921209163E+02  0.17444532289E+03  0.12500000000E+03 0.  0.
         25    1    1    2    0    0 -0.38457086166E+02  0.81207149008E+02 -0.21992825031E+03  0.26845294525E+03  0.12500000000E+03 0.  0.
</event>
<event>
 5    0  0.5648525E-005  0.3245787E+03  0.7546771E-02  0.1073561E+00
         21   -1    0    0  502  501  0.00000000000E+00  0.00000000000E+00  0.45164522159E+03  0.45164522159E+03  0.00000000000E+00 0.  1.
         21   -1    0    0  501  502 -0.00000000000E+00 -0.00000000000E+00 -0.23326128168E+03  0.23326128168E+03  0.00000000000E+00 0.  1.
         25    1    1    2    0    0  0.94821725011E+02  0.13554725488E+02  0.47813218808E+02  0.16457823067E+03  0.12500000000E+03 0.  0.
         25    1    1    2    0    0 -0.36377582862E+02  0.17597078414E+03  0.18335943446E+03  0.28554286475E+03  0.12500000000E+03 0.  0.
         25    1    1    2    0    0 -0.58444142149E+02 -0.18952550963E+03 -0.12788713354E+02  0.23478540785E+03  0.12500000000E+03 0.  0.
</event>
<event>
 5    0  0.5648525E-005  0.3055425E+03  0.7546771E-02  0.1082502E+00
         21   -1    0    0  502  501  0.00000000000E+00  0.00000000000E+00  0.20857012525E+03  0.20857012525E+03  0.00000000000E+00 0.  1.
         21   -1    0    0  501  502 -0.00000000000E+00 -0.00000000000E+00 -0.44760096246E+03  0.44760096246E+03  0.00000000000E+00 0.  1.
         25    1    1    2    0    0  0.85508962373E+02  0.68867578137E+01 -0.16336774211E+01  0.15161424399E+03  0.12500000000E+03 0.  0.
         25    1    1    2    0    0  0.10869225309E+03 -0.62277005958E+02 -0.12400268864E+02  0.17740123456E+03  0.12500000000E+03 0.  0.
         25    1    1    2    0    0 -0.19420121547E+03  0.55390248144E+02 -0.22499689092E+03  0.32715560916E+03  0.12500000000E+03 0.  0.
</event>
<event>
 5    0  0.5648525E-005  0.4011354E+03  0.7546771E-02  0.1043387E+00
         21   -1    0    0  502  501  0.00000000000E+00  0.00000000000E+00  0.80085900562E+03  0.80085900562E+03  0.00000000000E+00 0. -1.
         21   -1    0    0  501  502 -0.00000000000E+00 -0.00000000000E+00 -0.20092129642E+03  0.20092129642E+03  0.00000000000E+00 0. -1.
         25    1    1    2    0    0 -0.32208112572E+03  0.22520392023E+00  0.16396223229E+03  0.38241981627E+03  0.12500000000E+03 0.  0.
         25    1    1    2    0    0  0.80457022858E+02 -0.48352671642E+01  0.72865270518E+02  0.16562324711E+03  0.12500000000E+03 0.  0.
         25    1    1    2    0    0  0.24162410286E+03  0.46100632440E+01  0.36311020639E+03  0.45373723867E+03  0.12500000000E+03 0.  0.
</event>
<event>
 5    0  0.5648525E-005  0.4592897E+03  0.7546771E-02  0.1024987E+00
         21   -1    0    0  502  501  0.00000000000E+00  0.00000000000E+00  0.27003097209E+03  0.27003097209E+03  0.00000000000E+00 0.  1.
         21   -1    0    0  501  502 -0.00000000000E+00 -0.00000000000E+00 -0.78119551751E+03  0.78119551751E+03  0.00000000000E+00 0.  1.
         25    1    1    2    0    0  0.11202434848E+02 -0.31162913057E+03 -0.86213661746E+02  0.34683714484E+03  0.12500000000E+03 0.  0.
         25    1    1    2    0    0 -0.40730634149E+02  0.25785773687E+03 -0.47515835069E+03  0.55637222725E+03  0.12500000000E+03 0.  0.
         25    1    1    2    0    0  0.29528199301E+02  0.53771393702E+02  0.50207467008E+02  0.14801711752E+03  0.12500000000E+03 0.  0.
</event>
<event>
 5    0  0.5648525E-005  0.3459800E+03  0.7546771E-02  0.1064277E+00
         21   -1    0    0  502  501  0.00000000000E+00  0.00000000000E+00  0.27039033141E+03  0.27039033141E+03  0.00000000000E+00 0.  1.
         21   -1    0    0  501  502 -0.00000000000E+00 -0.00000000000E+00 -0.44270140621E+03  0.44270140621E+03  0.00000000000E+00 0.  1.
         25    1    1    2    0    0  0.79750647750E+02 -0.29264100561E+02  0.27788015814E+02  0.15366758676E+03  0.12500000000E+03 0.  0.
         25    1    1    2    0    0 -0.21418704979E+02  0.19165275098E+03 -0.25104571468E+03  0.34035053804E+03  0.12500000000E+03 0.  0.
         25    1    1    2    0    0 -0.58331942770E+02 -0.16238865042E+03  0.50946624077E+02  0.21907361283E+03  0.12500000000E+03 0.  0.
</event>
<event>
 5    0  0.5648525E-005  0.2422513E+03  0.7546771E-02  0.1118302E+00
         21   -1    0    0  502  501  0.00000000000E+00  0.00000000000E+00  0.42804406932E+03  0.42804406932E+03  0.00000000000E+00 0. -1.
         21   -1    0    0  501  502 -0.00000000000E+00 -0.00000000000E+00 -0.13710196140E+03  0.13710196140E+03  0.00000000000E+00 0. -1.
         25    1    1    2    0    0  0.85696345913E+02 -0.91372970876E+02  0.61912958265E+02  0.18748626059E+03  0.12500000000E+03 0.  0.
         25    1    1    2    0    0 -0.82789070095E+02  0.89597148186E+02  0.12183520520E+03  0.21295655969E+03  0.12500000000E+03 0.  0.
         25    1    1    2    0    0 -0.29072758181E+01  0.17758226900E+01  0.10719394446E+03  0.16470321044E+03  0.12500000000E+03 0.  0.
</event>
<event>
 5    0  0.5648525E-005  0.5522086E+03  0.7546771E-02  0.1000984E+00
         21   -1    0    0  502  501  0.00000000000E+00  0.00000000000E+00  0.10764746457E+04  0.10764746457E+04  0.00000000000E+00 0.  1.
         21   -1    0    0  501  502 -0.00000000000E+00 -0.00000000000E+00 -0.28327122584E+03  0.28327122584E+03  0.00000000000E+00 0.  1.
         25    1    1    2    0    0  0.37789347429E+03 -0.87355417490E+02  0.25689695974E+03  0.48172138711E+03  0.12500000000E+03 0.  0.
         25    1    1    2    0    0 -0.46411466653E+03 -0.51278358188E+02  0.42797248158E+03  0.64561392387E+03  0.12500000000E+03 0.  0.
         25    1    1    2    0    0  0.86221192238E+02  0.13863377568E+03  0.10833397854E+03  0.23241056055E+03  0.12500000000E+03 0.  0.
</event>
<event>
 5    0  0.5648525E-005  0.2467321E+03  0.7546771E-02  0.1115388E+00
         21   -1    0    0  502  501  0.00000000000E+00  0.00000000000E+00  0.13338126707E+04  0.13338126707E+04  0.00000000000E+00 0.  1.
         21   -1    0    0  501  502 -0.00000000000E+00 -0.00000000000E+00 -0.45641147853E+02  0.45641147853E+02  0.00000000000E+00 0.  1.
         25    1    1    2    0    0 -0.30671851439E+02 -0.13517382703E+03  0.70327037982E+03  0.72761731227E+03  0.12500000000E+03 0.  0.
         25    1    1    2    0    0  0.16281370079E+02  0.53528928927E+02  0.25536329622E+03  0.28976860130E+03  0.12500000000E+03 0.  0.
         25    1    1    2    0    0  0.14390481360E+02  0.81644898101E+02  0.32953784682E+03  0.36206790499E+03  0.12500000000E+03 0.  0.
</event>
<event>
 5    0  0.5648525E-005  0.3708675E+03  0.7546771E-02  0.1054362E+00
         21   -1    0    0  502  501  0.00000000000E+00  0.00000000000E+00  0.14818158776E+04  0.14818158776E+04  0.00000000000E+00 0.  1.
         21   -1    0    0  501  502 -0.00000000000E+00 -0.00000000000E+00 -0.92820395382E+02  0.92820395382E+02  0.00000000000E+00 0.  1.
         25    1    1    2    0    0  0.72810031813E+02 -0.23306854915E+03  0.66167462067E+03  0.71628245335E+03  0.12500000000E+03 0.  0.
         25    1    1    2    0    0  0.42619631642E+02  0.80162185171E+02  0.84601497437E+02  0.17613864511E+03  0.12500000000E+03 0.  0.
         25    1    1    2    0    0 -0.11542966346E+03  0.15290636398E+03  0.64271936413E+03  0.68221517454E+03  0.12500000000E+03 0.  0.
</event>
<event>
 5    0  0.5648525E-005  0.3620829E+03  0.7546771E-02  0.1057762E+00
         21   -1    0    0  502  501  0.00000000000E+00  0.00000000000E+00  0.46361464385E+03  0.46361464385E+03  0.00000000000E+00 0. -1.
         21   -1    0    0  501  502 -0.00000000000E+00 -0.00000000000E+00 -0.28278670783E+03  0.28278670783E+03  0.00000000000E+00 0. -1.
         25    1    1    2    0    0  0.15659054810E+02 -0.80855711601E+02  0.46027520162E+02  0.15660901860E+03  0.12500000000E+03 0.  0.
         25    1    1    2    0    0 -0.15371846260E+03  0.24220667881E+03  0.14118733134E+03  0.34329623292E+03  0.12500000000E+03 0.  0.
         25    1    1    2    0    0  0.13805940779E+03 -0.16135096721E+03 -0.63869154930E+01  0.24649610015E+03  0.12500000000E+03 0.  0.
</event>
<event>
 5    0  0.5648525E-005  0.4138389E+03  0.7546771E-02  0.1039090E+00
         21   -1    0    0  502  501  0.00000000000E+00  0.00000000000E+00  0.12163419559E+04  0.12163419559E+04  0.00000000000E+00 0. -1.
         21   -1    0    0  501  502 -0.00000000000E+00 -0.00000000000E+00 -0.14080136379E+03  0.14080136379E+03  0.00000000000E+00 0. -1.
         25    1    1    2    0    0  0.11875747335E+02 -0.10949347199E+03  0.57099540845E+02  0.17611136064E+03  0.12500000000E+03 0.  0.
         25    1    1    2    0    0  0.20486013285E+03 -0.25852815344E+02  0.75746184533E+03  0.79499024473E+03  0.12500000000E+03 0.  0.
         25    1    1    2    0    0 -0.21673588019E+03  0.13534628733E+03  0.26097920591E+03  0.38604171429E+03  0.12500000000E+03 0.  0.
</event>
<event>
 5    0  0.5648525E-005  0.3121338E+03  0.7546771E-02  0.1079328E+00
         21   -1    0    0  502  501  0.00000000000E+00  0.00000000000E+00  0.30375391587E+03  0.30375391587E+03  0.00000000000E+00 0. -1.
         21   -1    0    0  501  502 -0.00000000000E+00 -0.00000000000E+00 -0.32074491194E+03  0.32074491194E+03  0.00000000000E+00 0. -1.
         25    1    1    2    0    0  0.18975345781E+03  0.11175291413E+03 -0.31558560957E+02  0.25517843039E+03  0.12500000000E+03 0.  0.
         25    1    1    2    0    0 -0.14891044189E+03 -0.13016814288E+03  0.28952676644E+02  0.23575691423E+03  0.12500000000E+03 0.  0.
         25    1    1    2    0    0 -0.40843015927E+02  0.18415228753E+02 -0.14385111763E+02  0.13356348318E+03  0.12500000000E+03 0.  0.
</event>
<event>
 5    0  0.5648525E-005  0.3819575E+03  0.7546771E-02  0.1050213E+00
         21   -1    0    0  502  501  0.00000000000E+00  0.00000000000E+00  0.19091190673E+03  0.19091190673E+03  0.00000000000E+00 0.  1.
         21   -1    0    0  501  502 -0.00000000000E+00 -0.00000000000E+00 -0.76418229319E+03  0.76418229319E+03  0.00000000000E+00 0.  1.
         25    1    1    2    0    0  0.49755719590E+02  0.10266350329E+03 -0.28256764024E+03  0.32937045686E+03  0.12500000000E+03 0.  0.
         25    1    1    2    0    0  0.19144764048E+03 -0.54800715547E+02 -0.14814810423E+02  0.23558394699E+03  0.12500000000E+03 0.  0.
         25    1    1    2    0    0 -0.24120336007E+03 -0.47862787747E+02 -0.27588793580E+03  0.39013979607E+03  0.12500000000E+03 0.  0.
</event>
<event>
 5    0  0.5648525E-005  0.3306339E+03  0.7546771E-02  0.1070857E+00
         21   -1    0    0  502  501  0.00000000000E+00  0.00000000000E+00  0.10345166175E+04  0.10345166175E+04  0.00000000000E+00 0. -1.
         21   -1    0    0  501  502 -0.00000000000E+00 -0.00000000000E+00 -0.10567137107E+03  0.10567137107E+03  0.00000000000E+00 0. -1.
         25    1    1    2    0    0 -0.13270466529E+03 -0.25520019262E+01  0.60315806351E+03  0.63011244273E+03  0.12500000000E+03 0.  0.
         25    1    1    2    0    0  0.66097793187E+02  0.12828446437E+03  0.10025076641E+03  0.21564099385E+03  0.12500000000E+03 0.  0.
         25    1    1    2    0    0  0.66606872098E+02 -0.12573246244E+03  0.22543641651E+03  0.29443455200E+03  0.12500000000E+03 0.  0.
</event>
<event>
 5    0  0.5648525E-005  0.4444545E+03  0.7546771E-02  0.1029389E+00
         21   -1    0    0  502  501  0.00000000000E+00  0.00000000000E+00  0.92137923398E+03  0.92137923398E+03  0.00000000000E+00 0. -1.
         21   -1    0    0  501  502 -0.00000000000E+00 -0.00000000000E+00 -0.21439577170E+03  0.21439577170E+03  0.00000000000E+00 0. -1.
         25    1    1    2    0    0  0.15335241600E+03 -0.58165973275E+02  0.81783817970E+02  0.22184191854E+03  0.12500000000E+03 0.  0.
         25    1    1    2    0    0 -0.36521897144E+03 -0.63597044906E+02  0.39104835205E+03  0.55314852875E+03  0.12500000000E+03 0.  0.
         25    1    1    2    0    0  0.21186655544E+03  0.12176301818E+03  0.23415129226E+03  0.36078455839E+03  0.12500000000E+03 0.  0.
</event>
<event>
 5    0  0.5648525E-005  0.2332006E+03  0.7546771E-02  0.1124407E+00
         21   -1    0    0  502  501  0.00000000000E+00  0.00000000000E+00  0.26648552964E+03  0.26648552964E+03  0.00000000000E+00 0. -1.
         21   -1    0    0  501  502 -0.00000000000E+00 -0.00000000000E+00 -0.20407308355E+03  0.20407308355E+03  0.00000000000E+00 0. -1.
         25    1    1    2    0    0  0.33062043449E+02 -0.46202593064E+02  0.36629161121E+02  0.14210726149E+03  0.12500000000E+03 0.  0.
         25    1    1    2    0    0  0.43080764938E+02 -0.58143800985E+02 -0.11430719869E+02  0.14488725015E+03  0.12500000000E+03 0.  0.
         25    1    1    2    0    0 -0.76142808387E+02  0.10434639405E+03  0.37214004839E+02  0.18356410155E+03  0.12500000000E+03 0.  0.
</event>
<event>
 5    0  0.5648525E-005  0.2778065E+03  0.7546771E-02  0.1096893E+00
         21   -1    0    0  502  501  0.00000000000E+00  0.00000000000E+00  0.22268525069E+03  0.22268525069E+03  0.00000000000E+00 0. -1.
         21   -1    0    0  501  502 -0.00000000000E+00 -0.00000000000E+00 -0.34657201322E+03  0.34657201322E+03  0.00000000000E+00 0. -1.
         25    1    1    2    0    0 -0.29974835159E+02  0.30801650416E+02 -0.68289426314E+02  0.14878063771E+03  0.12500000000E+03 0.  0.
         25    1    1    2    0    0  0.10160857621E+03 -0.13203395954E+03 -0.11083143894E+03  0.23593617164E+03  0.12500000000E+03 0.  0.
         25    1    1    2    0    0 -0.71633741052E+02  0.10123230912E+03  0.55234102723E+02  0.18454045456E+03  0.12500000000E+03 0.  0.
</event>
<event>
 5    0  0.5648525E-005  0.4720495E+03  0.7546771E-02  0.1021343E+00
         21   -1    0    0  502  501  0.00000000000E+00  0.00000000000E+00  0.21057002675E+03  0.21057002675E+03  0.00000000000E+00 0. -1.
         21   -1    0    0  501  502 -0.00000000000E+00 -0.00000000000E+00 -0.10582263274E+04  0.10582263274E+04  0.00000000000E+00 0. -1.
         25    1    1    2    0    0  0.21034449959E+03 -0.16811815949E+03 -0.33664842082E+03  0.44884928796E+03  0.12500000000E+03 0.  0.
         25    1    1    2    0    0  0.21064790988E+02 -0.15272729220E+03 -0.28560407749E+03  0.34779885031E+03  0.12500000000E+03 0.  0.
         25    1    1    2    0    0 -0.23140929058E+03  0.32084545170E+03 -0.22540380231E+03  0.47214821586E+03  0.12500000000E+03 0.  0.
</event>
<event>
 5    0  0.5648525E-005  0.4150641E+03  0.7546771E-02  0.1038685E+00
         21   -1    0    0  502  501  0.00000000000E+00  0.00000000000E+00  0.31367417042E+03  0.31367417042E+03  0.00000000000E+00 0.  1.
         21   -1    0    0  501  502 -0.00000000000E+00 -0.00000000000E+00 -0.54922659603E+03  0.54922659603E+03  0.00000000000E+00 0.  1.
         25    1    1    2    0    0 -0.91420740601E+02  0.97562787646E+02 -0.21627149019E+03  0.28332773746E+03  0.12500000000E+03 0.  0.
         25    1    1    2    0    0 -0.31826849226E+02  0.82026169363E+02  0.19616411567E+03  0.24868976873E+03  0.12500000000E+03 0.  0.
         25    1    1    2    0    0  0.12324758983E+03 -0.17958895701E+03 -0.21544505109E+03  0.33088326026E+03  0.12500000000E+03 0.  0.
</event>
<event>
 5    0  0.5648525E-005  0.2823564E+03  0.7546771E-02  0.1094409E+00
         21   -1    0    0  502  501  0.00000000000E+00  0.00000000000E+00  0.11677452852E+03  0.11677452852E+03  0.00000000000E+00 0.  1.
         21   -1    0    0  501  502 -0.00000000000E+00 -0.00000000000E+00 -0.68272698372E+03  0.68272698372E+03  0.00000000000E+00 0.  1.
         25    1    1    2    0    0 -0.64442439027E+01  0.37310760943E+02 -0.21063266778E+03  0.24784015393E+03  0.12500000000E+03 0.  0.
         25    1    1    2    0    0  0.13445798228E+03  0.34729964934E+02 -0.29568965360E+03  0.34977491435E+03  0.12500000000E+03 0.  0.
         25    1    1    2    0    0 -0.12801373838E+03 -0.72040725878E+02 -0.59630133823E+02  0.20188644397E+03  0.12500000000E+03 0.  0.
</event>
<event>
 5    0  0.5648525E-005  0.4848225E+03  0.7546771E-02  0.1017818E+00
         21   -1    0    0  502  501  0.00000000000E+00  0.00000000000E+00  0.65132105423E+03  0.65132105423E+03  0.00000000000E+00 0. -1.
         21   -1    0    0  501  502 -0.00000000000E+00 -0.00000000000E+00 -0.36088629392E+03  0.36088629392E+03  0.00000000000E+00 0. -1.
         25    1    1    2    0    0 -0.59909949172E+02  0.16365175287E+03  0.16906523844E+03  0.27309184000E+03  0.12500000000E+03 0.  0.
         25    1    1    2    0    0  0.35953217266E+03 -0.45329333540E+02  0.72679682674E+02  0.39016082317E+03  0.12500000000E+03 0.  0.
         25    1    1    2    0    0 -0.29962222349E+03 -0.11832241933E+03  0.48689839194E+02  0.34895468498E+03  0.12500000000E+03 0.  0.
</event>
<event>
 5    0  0.5648525E-005  0.2904878E+03  0.7546771E-02  0.1090095E+00
         21   -1    0    0  502  501  0.00000000000E+00  0.00000000000E+00  0.24001414445E+03  0.24001414445E+03  0.00000000000E+00 0. -1.
         21   -1    0    0  501  502 -0.00000000000E+00 -0.00000000000E+00 -0.35157585500E+03  0.35157585500E+03  0.00000000000E+00 0. -1.
         25    1    1    2    0    0 -0.16260719576E+03  0.37831013408E+02 -0.62876539199E+02  0.21783191885E+03  0.12500000000E+03 0.  0.
         25    1    1    2    0    0  0.27905001961E+02 -0.30746009318E+02 -0.11837728333E+03  0.17709372499E+03  0.12500000000E+03 0.  0.
         25    1    1    2    0    0  0.13470219380E+03 -0.70850040900E+01  0.69692111973E+02  0.19666435561E+03  0.12500000000E+03 0.  0.
</event>
<event>
 5    0  0.5648525E-005  0.2490594E+03  0.7546771E-02  0.1113901E+00
         21   -1    0    0  502  501  0.00000000000E+00  0.00000000000E+00  0.67662714799E+03  0.67662714799E+03  0.00000000000E+00 0.  1.
         21   -1    0    0  501  502 -0.00000000000E+00 -0.00000000000E+00 -0.91676137656E+02  0.91676137656E+02  0.00000000000E+00 0.  1.
         25    1    1    2    0    0 -0.67379845632E+01 -0.52644930705E+02  0.36146233319E+03  0.38613068705E+03  0.12500000000E+03 0.  0.
         25    1    1    2    0    0 -0.75828620735E+02  0.33510754569E+02  0.15708324428E+03  0.21719368322E+03  0.12500000000E+03 0.  0.
         25    1    1    2    0    0  0.82566605298E+02  0.19134176136E+02  0.66405432860E+02  0.16497891538E+03  0.12500000000E+03 0.  0.
</event>
<event>
 5    0  0.5648525E-005  0.3849672E+03  0.7546771E-02  0.1049113E+00
         21   -1    0    0  502  501  0.00000000000E+00  0.00000000000E+00  0.11370279544E+03  0.11370279544E+03  0.00000000000E+00 0.  1.
         21   -1    0    0  501  502 -0.00000000000E+00 -0.00000000000E+00 -0.13033958503E+04  0.13033958503E+04  0.00000000000E+00 0.  1.
         25    1    1    2    0    0 -0.11752641923E+03  0.22463841212E+02 -0.87329312961E+02  0.19382593294E+03  0.12500000000E+03 0.  0.
         25    1    1    2    0    0  0.16237265331E+03 -0.63362773190E+01 -0.10647513907E+04  0.10843087895E+04  0.12500000000E+03 0.  0.
         25    1    1    2    0    0 -0.44846234077E+02 -0.16127563893E+02 -0.37612351247E+02  0.13896392336E+03  0.12500000000E+03 0.  0.
</event>
<event>
 5    0  0.5648525E-005  0.2356153E+03  0.7546771E-02  0.1122749E+00
         21   -1    0    0  502  501  0.00000000000E+00  0.00000000000E+00  0.12081818671E+04  0.12081818671E+04  0.00000000000E+00 0. -1.
         21   -1    0    0  501  502 -0.00000000000E+00 -0.00000000000E+00 -0.45948857367E+02  0.45948857367E+02  0.00000000000E+00 0. -1.
         25    1    1    2    0    0 -0.46601602703E+01  0.17350172091E+02  0.36594990328E+03  0.38712669409E+03  0.12500000000E+03 0.  0.
         25    1    1    2    0    0  0.13534818104E+02 -0.12491068846E+03  0.43764547034E+03  0.47216991550E+03  0.12500000000E+03 0.  0.
         25    1    1    2    0    0 -0.88746578334E+01  0.10756051637E+03  0.35863763607E+03  0.39483411484E+03  0.12500000000E+03 0.  0.
</event>
<event>
 5    0  0.5648525E-005  0.2909962E+03  0.7546771E-02  0.1089830E+00
         21   -1    0    0  502  501  0.00000000000E+00  0.00000000000E+00  0.17604291410E+04  0.17604291410E+04  0.00000000000E+00 0.  1.
         21   -1    0    0  501  502 -0.00000000000E+00 -0.00000000000E+00 -0.48101223384E+02  0.48101223384E+02  0.00000000000E+00 0.  1.
         25    1    1    2    0    0  0.82553557531E+02 -0.86270579772E+02  0.55019573551E+03  0.57671314375E+03  0.12500000000E+03 0.  0.
         25    1    1    2    0    0 -0.18310968027E+03  0.78972684233E+02  0.83279143922E+03  0.86540881732E+03  0.12500000000E+03 0.  0.
         25    1    1    2    0    0  0.10055612274E+03  0.72978955389E+01  0.32934074293E+03  0.36640840336E+03  0.12500000000E+03 0.  0.
</event>
<event>
 5    0  0.5648525E-005  0.2094875E+03  0.7546771E-02  0.1141972E+00
         21   -1    0    0  502  501  0.00000000000E+00  0.00000000000E+00  0.35264844377E+03  0.35264844377E+03  0.00000000000E+00 0. -1.
         21   -1    0    0  501  502 -0.00000000000E+00 -0.00000000000E+00 -0.12444404974E+03  0.12444404974E+03  0.00000000000E+00 0. -1.
         25    1    1    2    0    0  0.46074789414E+02  0.42301568797E+00  0.42781465250E+02  0.13992254618E+03  0.12500000000E+03 0.  0.
         25    1    1    2    0    0 -0.82281041612E+02  0.15489503508E+02  0.10221880917E+03  0.18188947049E+03  0.12500000000E+03 0.  0.
         25    1    1    2    0    0  0.36206252198E+02 -0.15912519196E+02  0.83204119621E+02  0.15528047684E+03  0.12500000000E+03 0.  0.
</event>
<event>
 5    0  0.5648525E-005  0.4570545E+03  0.7546771E-02  0.1025639E+00
         21   -1    0    0  502  501  0.00000000000E+00  0.00000000000E+00  0.38833320797E+03  0.38833320797E+03  0.00000000000E+00 0. -1.
         21   -1    0    0  501  502 -0.00000000000E+00 -0.00000000000E+00 -0.53793706539E+03  0.53793706539E+03  0.00000000000E+00 0. -1.
         25    1    1    2    0    0 -0.95123367071E+02  0.18990117062E+03 -0.10367805284E+03  0.26736687941E+03  0.12500000000E+03 0.  0.
         25    1    1    2    0    0  0.98742346043E+02 -0.23001500592E+03  0.22420632979E+03  0.35853930352E+03  0.12500000000E+03 0.  0.
         25    1    1    2    0    0 -0.36189789726E+01  0.40113835301E+02 -0.27013213438E+03  0.30036409042E+03  0.12500000000E+03 0.  0.
</event>
<event>
 5    0  0.5648525E-005  0.2205943E+03  0.7546771E-02  0.1133441E+00
         21   -1    0    0  502  501  0.00000000000E+00  0.00000000000E+00  0.73320147888E+02  0.73320147888E+02  0.00000000000E+00 0. -1.
         21   -1    0    0  501  502 -0.00000000000E+00 -0.00000000000E+00 -0.66368993016E+03  0.66368993016E+03  0.00000000000E+00 0. -1.
         25    1    1    2    0    0 -0.51156868273E+01 -0.34856370818E+02 -0.18333651479E+03  0.22467401829E+03  0.12500000000E+03 0.  0.
         25    1    1    2    0    0 -0.75526799099E+02  0.44304914258E+02 -0.14304975041E+03  0.20917804355E+03  0.12500000000E+03 0.  0.
         25    1    1    2    0    0  0.80642485926E+02 -0.94485434395E+01 -0.26398351707E+03  0.30315801621E+03  0.12500000000E+03 0.  0.
</event>
<event>
 5    0  0.5648525E-005  0.4514326E+03  0.7546771E-02  0.1027296E+00
         21   -1    0    0  502  501  0.00000000000E+00  0.00000000000E+00  0.94964265676E+03  0.94964265676E+03  0.00000000000E+00 0. -1.
         21   -1    0    0  501  502 -0.00000000000E+00 -0.00000000000E+00 -0.21459801014E+03  0.21459801014E+03  0.00000000000E+00 0. -1.
         25    1    1    2    0    0 -0.47292648917E+02  0.35468978434E+02 -0.11618303473E+03  0.18060492970E+03  0.12500000000E+03 0.  0.
         25    1    1    2    0    0  0.90681928484E+01  0.14666375362E+03  0.14123896262E+03  0.23909398426E+03  0.12500000000E+03 0.  0.
         25    1    1    2    0    0  0.38224456068E+02 -0.18213273206E+03  0.70998871873E+03  0.74454175293E+03  0.12500000000E+03 0.  0.
</event>
<event>
 5    0  0.5648525E-005  0.2636230E+03  0.7546771E-02  0.1104986E+00
         21   -1    0    0  502  501  0.00000000000E+00  0.00000000000E+00  0.62417271885E+02  0.62417271885E+02  0.00000000000E+00 0.  1.
         21   -1    0    0  501  502 -0.00000000000E+00 -0.00000000000E+00 -0.11134275431E+04  0.11134275431E+04  0.00000000000E+00 0.  1.
         25    1    1    2    0    0  0.97378270527E+01  0.10572513856E+03 -0.25669324788E+03  0.30461295722E+03  0.12500000000E+03 0.  0.
         25    1    1    2    0    0 -0.72528251715E+02 -0.61578377038E+02 -0.63722654986E+03  0.65630398419E+03  0.12500000000E+03 0.  0.
         25    1    1    2    0    0  0.62790424663E+02 -0.44146761521E+02 -0.15709047346E+03  0.21492787356E+03  0.12500000000E+03 0.  0.
</event>
<event>
 5    0  0.5648525E-005  0.3076179E+03  0.7546771E-02  0.1081493E+00
         21   -1    0    0  502  501  0.00000000000E+00  0.00000000000E+00  0.18681007566E+03  0.18681007566E+03  0.00000000000E+00 0. -1.
         21   -1    0    0  501  502 -0.00000000000E+00 -0.00000000000E+00 -0.50655073885E+03  0.50655073885E+03  0.00000000000E+00 0. -1.
         25    1    1    2    0    0  0.14102981006E+02  0.49239986814E+02 -0.11541107858E+03  0.17767438598E+03  0.12500000000E+03 0.  0.
         25    1    1    2    0    0  0.15914948117E+03  0.40232507755E+02  0.74021040549E+00  0.20633167462E+03  0.12500000000E+03 0.  0.
         25    1    1    2    0    0 -0.17325246218E+03 -0.89472494569E+02 -0.20506979501E+03  0.30935475390E+03  0.12500000000E+03 0.  0.
</event>
<event>
 5    0  0.5648525E-005  0.4071659E+03  0.7546771E-02  0.1041326E+00
         21   -1    0    0  502  501  0.00000000000E+00  0.00000000000E+00  0.41301028074E+03  0.41301028074E+03  0.00000000000E+00 0.  1.
         21   -1    0    0  501  502 -0.00000000000E+00 -0.00000000000E+00 -0.40140430628E+03  0.40140430628E+03  0.00000000000E+00 0.  1.
         25    1    1    2    0    0  0.32220074621E+02  0.11463938005E+03 -0.21874094764E+03  0.27866274032E+03  0.12500000000E+03 0.  0.
         25    1    1    2    0    0 -0.15130168347E+03 -0.20918725723E+03  0.13371168660E+03  0.31647325818E+03  0.12500000000E+03 0.  0.
         25    1    1    2    0    0  0.11908160885E+03  0.94547877177E+02  0.96635235506E+02  0.21927858853E+03  0.12500000000E+03 0.  0.
</event>
<event>
 5    0  0.5648525E-005  0.2764528E+03  0.7546771E-02  0.1097642E+00
         21   -1    0    0  502  501  0.00000000000E+00  0.00000000000E+00  0.89330683457E+03  0.89330683457E+03  0.00000000000E+00 0. -1.
         21   -1    0    0  501  502 -0.00000000000E+00 -0.00000000000E+00 -0.85554196573E+02  0.85554196573E+02  0.00000000000E+00 0. -1.
         25    1    1    2    0    0  0.11045608015E+03  0.99699285200E+02  0.47809118122E+03  0.51607816333E+03  0.12500000000E+03 0.  0.
         25    1    1    2    0    0  0.22306567229E+01  0.71215784947E+01  0.11862806201E+03  0.17249147749E+03  0.12500000000E+03 0.  0.
         25    1    1    2    0    0 -0.11268673687E+03 -0.10682086369E+03  0.21103339476E+03  0.29029139032E+03  0.12500000000E+03 0.  0.
</event>
<event>
 5    0  0.5648525E-005  0.4247906E+03  0.7546771E-02  0.1035518E+00
         21   -1    0    0  502  501  0.00000000000E+00  0.00000000000E+00  0.54794405197E+03  0.54794405197E+03  0.00000000000E+00 0.  1.
         21   -1    0    0  501  502 -0.00000000000E+00 -0.00000000000E+00 -0.32931649247E+03  0.32931649247E+03  0.00000000000E+00 0.  1.
         25    1    1    2    0    0 -0.13705997923E+03  0.62973210080E+02  0.11804158379E+03  0.22871352955E+03  0.12500000000E+03 0.  0.
         25    1    1    2    0    0 -0.12624927572E+03  0.17480159561E+02 -0.16723747464E+03  0.24461767827E+03  0.12500000000E+03 0.  0.
         25    1    1    2    0    0  0.26330925495E+03 -0.80453369641E+02  0.26782345034E+03  0.40392933662E+03  0.12500000000E+03 0.  0.
</event>
<event>
 5    0  0.6553560E-005  0.4403857E+03  0.7546771E-02  0.1030629E+00
         21   -1    0    0  502  501  0.00000000000E+00  0.00000000000E+00  0.55126747465E+03  0.55126747465E+03  0.00000000000E+00 0.  1.
         21   -1    0    0  501  502 -0.00000000000E+00 -0.00000000000E+00 -0.35180668096E+03  0.35180668096E+03  0.00000000000E+00 0.  1.
         25    1    1    2    0    0 -0.42536734763E+02 -0.18631702259E+03 -0.36390730778E+02  0.23124163120E+03  0.12500000000E+03 0.  0.
         25    1    1    2    0    0  0.11475069676E+03 -0.10167269036E+03  0.28400740601E+03  0.34610730279E+03  0.12500000000E+03 0.  0.
         25    1    1    2    0    0 -0.72213961996E+02  0.28798971296E+03 -0.48155881550E+02  0.32572522163E+03  0.12500000000E+03 0.  0.
</event>
<event>
 5    0  0.5648525E-005  0.2735908E+03  0.7546771E-02  0.1099242E+00
         21   -1    0    0  502  501  0.00000000000E+00  0.00000000000E+00  0.83957672889E+03  0.83957672889E+03  0.00000000000E+00 0.  1.
         21   -1    0    0  501  502 -0.00000000000E+00 -0.00000000000E+00 -0.89154388264E+02  0.89154388264E+02  0.00000000000E+00 0.  1.
         25    1    1    2    0    0 -0.77657873383E+02 -0.87803953934E+02  0.34048031204E+03  0.38117203794E+03  0.12500000000E+03 0.  0.
         25    1    1    2    0    0  0.62954910395E+01  0.74418015963E+02  0.36994581004E+03  0.39757084484E+03  0.12500000000E+03 0.  0.
         25    1    1    2    0    0  0.71362382343E+02  0.13385937971E+02  0.39996218550E+02  0.14998823436E+03  0.12500000000E+03 0.  0.
</event>
<event>
 5    0  0.6277855E-005  0.2991669E+03  0.7546771E-02  0.1085658E+00
         21   -1    0    0  502  501  0.00000000000E+00  0.00000000000E+00  0.45152166889E+03  0.45152166889E+03  0.00000000000E+00 0. -1.
         21   -1    0    0  501  502 -0.00000000000E+00 -0.00000000000E+00 -0.19822045684E+03  0.19822045684E+03  0.00000000000E+00 0. -1.
         25    1    1    2    0    0  0.24764779008E+02 -0.78107851036E+02  0.30173890452E+03  0.33672763054E+03  0.12500000000E+03 0.  0.
         25    1    1    2    0    0 -0.12245902155E+02 -0.40471813748E+02 -0.47542691557E+02  0.14026131808E+03  0.12500000000E+03 0.  0.
         25    1    1    2    0    0 -0.12518876853E+02  0.11857966478E+03 -0.89500090968E+00  0.17275317712E+03  0.12500000000E+03 0.  0.
</event>
<event>
 5    0  0.5648525E-005  0.2702849E+03  0.7546771E-02  0.1101117E+00
         21   -1    0    0  502  501  0.00000000000E+00  0.00000000000E+00  0.24714940174E+03  0.24714940174E+03  0.00000000000E+00 0.  1.
         21   -1    0    0  501  502 -0.00000000000E+00 -0.00000000000E+00 -0.29558609765E+03  0.29558609765E+03  0.00000000000E+00 0.  1.
         25    1    1    2    0    0  0.94533647936E+02 -0.87284389380E+01 -0.81370523432E+02  0.17680203144E+03  0.12500000000E+03 0.  0.
         25    1    1    2    0    0  0.62106859859E+02 -0.60041451090E+02  0.24368419035E+02  0.15388650927E+03  0.12500000000E+03 0.  0.
         25    1    1    2    0    0 -0.15664050779E+03  0.68769890028E+02  0.85654084872E+01  0.21204695867E+03  0.12500000000E+03 0.  0.
</event>
<event>
 5    0  0.5648525E-005  0.2682220E+03  0.7546771E-02  0.1102302E+00
         21   -1    0    0  502  501  0.00000000000E+00  0.00000000000E+00  0.21221576289E+03  0.21221576289E+03  0.00000000000E+00 0. -1.
         21   -1    0    0  501  502 -0.00000000000E+00 -0.00000000000E+00 -0.33900897403E+03  0.33900897403E+03  0.00000000000E+00 0. -1.
         25    1    1    2    0    0 -0.17232237723E+02  0.87696656710E+02  0.62455395462E+02  0.16587142622E+03  0.12500000000E+03 0.  0.
         25    1    1    2    0    0  0.29454969705E+02 -0.14831818745E+03 -0.11314026822E+03  0.22647648942E+03  0.12500000000E+03 0.  0.
         25    1    1    2    0    0 -0.12222731982E+02  0.60621530738E+02 -0.76108338379E+02  0.15887682127E+03  0.12500000000E+03 0.  0.
</event>
<event>
 5    0  0.5648525E-005  0.2725385E+03  0.7546771E-02  0.1099835E+00
         21   -1    0    0  502  501  0.00000000000E+00  0.00000000000E+00  0.19977991252E+03  0.19977991252E+03  0.00000000000E+00 0. -1.
         21   -1    0    0  501  502 -0.00000000000E+00 -0.00000000000E+00 -0.37179543406E+03  0.37179543406E+03  0.00000000000E+00 0. -1.
         25    1    1    2    0    0 -0.13385220423E+03  0.27046359529E+02 -0.53328464950E+02  0.19265732095E+03  0.12500000000E+03 0.  0.
         25    1    1    2    0    0  0.72361700624E+02 -0.11850381146E+03 -0.98069844908E+02  0.21100252019E+03  0.12500000000E+03 0.  0.
         25    1    1    2    0    0  0.61490503610E+02  0.91457451933E+02 -0.20617211678E+02  0.16791550544E+03  0.12500000000E+03 0.  0.
</event>
<event>
 5    0  0.5648525E-005  0.3371675E+03  0.7546771E-02  0.1068009E+00
         21   -1    0    0  502  501  0.00000000000E+00  0.00000000000E+00  0.83641114193E+02  0.83641114193E+02  0.00000000000E+00 0. -1.
         21   -1    0    0  501  502 -0.00000000000E+00 -0.00000000000E+00 -0.13591627893E+04  0.13591627893E+04  0.00000000000E+00 0. -1.
         25    1    1    2    0    0 -0.17626021531E+03  0.34180581245E+02 -0.23825092624E+03  0.32345707518E+03  0.12500000000E+03 0.  0.
         25    1    1    2    0    0 -0.54083423301E+02 -0.13215040774E+02 -0.20448963565E+03  0.24605012714E+03  0.12500000000E+03 0.  0.
         25    1    1    2    0    0  0.23034363861E+03 -0.20965540470E+02 -0.83278111325E+03  0.87329670120E+03  0.12500000000E+03 0.  0.
</event>
<event>
 5    0  0.5648525E-005  0.7152130E+03  0.7546771E-02  0.9691564E-01
         21   -1    0    0  502  501  0.00000000000E+00  0.00000000000E+00  0.13989607207E+04  0.13989607207E+04  0.00000000000E+00 0. -1.
         21   -1    0    0  501  502 -0.00000000000E+00 -0.00000000000E+00 -0.36564979578E+03  0.36564979578E+03  0.00000000000E+00 0. -1.
         25    1    1    2    0    0 -0.18908807467E+03  0.45965156010E+03  0.84093314165E+03  0.98479815465E+03  0.12500000000E+03 0.  0.
         25    1    1    2    0    0  0.27833857208E+03 -0.24524750495E+03 -0.81210831223E+02  0.39979857241E+03  0.12500000000E+03 0.  0.
         25    1    1    2    0    0 -0.89250497409E+02 -0.21440405515E+03  0.27358861446E+03  0.38001378937E+03  0.12500000000E+03 0.  0.
</event>
<event>
 5    0  0.5648525E-005  0.4045650E+03  0.7546771E-02  0.1042210E+00
         21   -1    0    0  502  501  0.00000000000E+00  0.00000000000E+00  0.12990913208E+03  0.12990913208E+03  0.00000000000E+00 0. -1.
         21   -1    0    0  501  502 -0.00000000000E+00 -0.00000000000E+00 -0.12599023530E+04  0.12599023530E+04  0.00000000000E+00 0. -1.
         25    1    1    2    0    0 -0.15488121441E+03  0.87161176267E+02 -0.54251896485E+03  0.58441174564E+03  0.12500000000E+03 0.  0.
         25    1    1    2    0    0  0.46680148958E+02  0.18705140316E+03 -0.22185363968E+03  0.31939208063E+03  0.12500000000E+03 0.  0.
         25    1    1    2    0    0  0.10820106545E+03 -0.27421257942E+03 -0.36562061640E+03  0.48600765881E+03  0.12500000000E+03 0.  0.
</event>
<event>
 5    0  0.6062319E-005  0.2962983E+03  0.7546771E-02  0.1087106E+00
         21   -1    0    0  502  501  0.00000000000E+00  0.00000000000E+00  0.82833945391E+03  0.82833945391E+03  0.00000000000E+00 0.  1.
         21   -1    0    0  501  502 -0.00000000000E+00 -0.00000000000E+00 -0.10598639152E+03  0.10598639152E+03  0.00000000000E+00 0.  1.
         25    1    1    2    0    0  0.92583236136E+02 -0.34103744592E+02  0.13247995048E+03  0.20714887952E+03  0.12500000000E+03 0.  0.
         25    1    1    2    0    0 -0.10319704912E+03 -0.36623796916E+02  0.55452231081E+03  0.57888766322E+03  0.12500000000E+03 0.  0.
         25    1    1    2    0    0  0.10613812980E+02  0.70727541508E+02  0.35350801096E+02  0.14828930269E+03  0.12500000000E+03 0.  0.
</event>
<event>
 5    0  0.5648525E-005  0.2662233E+03  0.7546771E-02  0.1103461E+00
         21   -1    0    0  502  501  0.00000000000E+00  0.00000000000E+00  0.12048783578E+03  0.12048783578E+03  0.00000000000E+00 0.  1.
         21   -1    0    0  501  502 -0.00000000000E+00 -0.00000000000E+00 -0.58823254970E+03  0.58823254970E+03  0.00000000000E+00 0.  1.
         25    1    1    2    0    0 -0.22910526009E+02 -0.10490081483E+03 -0.30299743578E+03  0.34490798663E+03  0.12500000000E+03 0.  0.
         25    1    1    2    0    0 -0.60675848169E+02  0.89980090795E+02 -0.46528559085E+02  0.17195313926E+03  0.12500000000E+03 0.  0.
         25    1    1    2    0    0  0.83586374177E+02  0.14920724036E+02 -0.11821871906E+03  0.19185925959E+03  0.12500000000E+03 0.  0.
</event>
<event>
 5    0  0.5648525E-005  0.3160666E+03  0.7546771E-02  0.1077474E+00
         21   -1    0    0  502  501  0.00000000000E+00  0.00000000000E+00  0.66303063133E+03  0.66303063133E+03  0.00000000000E+00 0.  1.
         21   -1    0    0  501  502 -0.00000000000E+00 -0.00000000000E+00 -0.15066887893E+03  0.15066887893E+03  0.00000000000E+00 0.  1.
         25    1    1    2    0    0 -0.10168757949E+03 -0.46147679503E+02  0.27328643589E+03  0.32059389917E+03  0.12500000000E+03 0.  0.
         25    1    1    2    0    0  0.18677635527E+03 -0.31047430348E+02  0.38164793121E+02  0.23006716683E+03  0.12500000000E+03 0.  0.
         25    1    1    2    0    0 -0.85088775780E+02  0.77195109851E+02  0.20091052340E+03  0.26303844426E+03  0.12500000000E+03 0.  0.
</event>
<event>
 5    0  0.5648525E-005  0.3577268E+03  0.7546771E-02  0.1059488E+00
         21   -1    0    0  502  501  0.00000000000E+00  0.00000000000E+00  0.34338710175E+03  0.34338710175E+03  0.00000000000E+00 0.  1.
         21   -1    0    0  501  502 -0.00000000000E+00 -0.00000000000E+00 -0.37266539959E+03  0.37266539959E+03  0.00000000000E+00 0.  1.
         25    1    1    2    0    0 -0.10717547222E+03  0.13496851435E+02 -0.62004300513E+02  0.17646042085E+03  0.12500000000E+03 0.  0.
         25    1    1    2    0    0  0.15083832360E+03  0.20409225894E+03  0.86545529383E+00  0.28289856670E+03  0.12500000000E+03 0.  0.
         25    1    1    2    0    0 -0.43662851374E+02 -0.21758911038E+03  0.31860547377E+02  0.25669351380E+03  0.12500000000E+03 0.  0.
</event>
<event>
 5    0  0.5648525E-005  0.2397240E+03  0.7546771E-02  0.1119977E+00
         21   -1    0    0  502  501  0.00000000000E+00  0.00000000000E+00  0.65205644096E+02  0.65205644096E+02  0.00000000000E+00 0.  1.
         21   -1    0    0  501  502 -0.00000000000E+00 -0.00000000000E+00 -0.88132879086E+03  0.88132879086E+03  0.00000000000E+00 0.  1.
         25    1    1    2    0    0 -0.48767660497E+02  0.70932547279E+02 -0.17659351879E+03  0.23285184528E+03  0.12500000000E+03 0.  0.
         25    1    1    2    0    0  0.59258361329E+01 -0.11631468356E+03 -0.28060736617E+03  0.32852658202E+03  0.12500000000E+03 0.  0.
         25    1    1    2    0    0  0.42841824364E+02  0.45382136286E+02 -0.35892226181E+03  0.38515600765E+03  0.12500000000E+03 0.  0.
</event>
<event>
 5    0  0.6306098E-005  0.3542834E+03  0.7546771E-02  0.1060871E+00
         21   -1    0    0  502  501  0.00000000000E+00  0.00000000000E+00  0.16991201719E+03  0.16991201719E+03  0.00000000000E+00 0. -1.
         21   -1    0    0  501  502 -0.00000000000E+00 -0.00000000000E+00 -0.73871615039E+03  0.73871615039E+03  0.00000000000E+00 0. -1.
         25    1    1    2    0    0 -0.79464400558E+02 -0.17122198230E+02 -0.36642340571E+03  0.39559938433E+03  0.12500000000E+03 0.  0.
         25    1    1    2    0    0 -0.73960800881E+02 -0.14859240656E+03 -0.12942463942E+03  0.24479714182E+03  0.12500000000E+03 0.  0.
         25    1    1    2    0    0  0.15342520144E+03  0.16571460479E+03 -0.72956088073E+02  0.26823164143E+03  0.12500000000E+03 0.  0.
</event>
<event>
 5    0  0.5648525E-005  0.4348128E+03  0.7546771E-02  0.1032350E+00
         21   -1    0    0  502  501  0.00000000000E+00  0.00000000000E+00  0.39986201526E+03  0.39986201526E+03  0.00000000000E+00 0. -1.
         21   -1    0    0  501  502 -0.00000000000E+00 -0.00000000000E+00 -0.47281857157E+03  0.47281857157E+03  0.00000000000E+00 0. -1.
         25    1    1    2    0    0  0.22547378988E+03  0.18425658001E+03 -0.52013443892E+02  0.32112196366E+03  0.12500000000E+03 0.  0.
         25    1    1    2    0    0 -0.97089020379E+02 -0.15792745578E+03  0.17559439913E+03  0.28429870237E+03  0.12500000000E+03 0.  0.
         25    1    1    2    0    0 -0.12838476950E+03 -0.26329124238E+02 -0.19653751155E+03  0.26725992080E+03  0.12500000000E+03 0.  0.
</event>
<event>
 5    0  0.5648525E-005  0.4899098E+03  0.7546771E-02  0.1016447E+00
         21   -1    0    0  502  501  0.00000000000E+00  0.00000000000E+00  0.17239268243E+03  0.17239268243E+03  0.00000000000E+00 0. -1.
         21   -1    0    0  501  502 -0.00000000000E+00 -0.00000000000E+00 -0.13922377296E+04  0.13922377296E+04  0.00000000000E+00 0. -1.
         25    1    1    2    0    0 -0.83758818531E+02 -0.82011810507E+02 -0.14522335979E+03  0.22462480044E+03  0.12500000000E+03 0.  0.
         25    1    1    2    0    0  0.26258516395E+03  0.20135966289E+03 -0.15295973445E+03  0.38538080197E+03  0.12500000000E+03 0.  0.
         25    1    1    2    0    0 -0.17882634541E+03 -0.11934785238E+03 -0.92166195293E+03  0.95462480963E+03  0.12500000000E+03 0.  0.
</event>
<event>
 5    0  0.5648525E-005  0.3643011E+03  0.7546771E-02  0.1056894E+00
         21   -1    0    0  502  501  0.00000000000E+00  0.00000000000E+00  0.13535534156E+03  0.13535534156E+03  0.00000000000E+00 0. -1.
         21   -1    0    0  501  502 -0.00000000000E+00 -0.00000000000E+00 -0.98049562188E+03  0.98049562188E+03  0.00000000000E+00 0. -1.
         25    1    1    2    0    0 -0.97153338128E+02  0.86593072438E+02 -0.76841570989E+03  0.78931922218E+03  0.12500000000E+03 0.  0.
         25    1    1    2    0    0  0.10120499342E+03 -0.15851201240E+02 -0.85008537151E+02  0.18260657891E+03  0.12500000000E+03 0.  0.
         25    1    1    2    0    0 -0.40516552897E+01 -0.70741871198E+02  0.82839667122E+01  0.14392516234E+03  0.12500000000E+03 0.  0.
</event>
<event>
 5    0  0.5648525E-005  0.2794758E+03  0.7546771E-02  0.1095976E+00
         21   -1    0    0  502  501  0.00000000000E+00  0.00000000000E+00  0.63877617314E+02  0.63877617314E+02  0.00000000000E+00 0. -1.
         21   -1    0    0  501  502 -0.00000000000E+00 -0.00000000000E+00 -0.12227553562E+04  0.12227553562E+04  0.00000000000E+00 0. -1.
         25    1    1    2    0    0 -0.78122740156E+02  0.68505512350E+02 -0.32276711625E+03  0.36138591435E+03  0.12500000000E+03 0.  0.
         25    1    1    2    0    0  0.15735217031E+03  0.48694701441E+02 -0.46403079862E+03  0.50801620202E+03  0.12500000000E+03 0.  0.
         25    1    1    2    0    0 -0.79229430153E+02 -0.11720021379E+03 -0.37207982397E+03  0.41723085710E+03  0.12500000000E+03 0.  0.
</event>
<event>
 5    0  0.5648525E-005  0.3811707E+03  0.7546771E-02  0.1050502E+00
         21   -1    0    0  502  501  0.00000000000E+00  0.00000000000E+00  0.42907742337E+03  0.42907742337E+03  0.00000000000E+00 0. -1.
         21   -1    0    0  501  502 -0.00000000000E+00 -0.00000000000E+00 -0.33861278358E+03  0.33861278358E+03  0.00000000000E+00 0. -1.
         25    1    1    2    0    0 -0.11482897752E+03 -0.35651185203E+02 -0.13045442191E+03  0.21702547611E+03  0.12500000000E+03 0.  0.
         25    1    1    2    0    0  0.12912978176E+03  0.43004314345E+02 -0.96979228738E+02  0.20869557349E+03  0.12500000000E+03 0.  0.
         25    1    1    2    0    0 -0.14300804238E+02 -0.73531291425E+01  0.31789829044E+03  0.34196915735E+03  0.12500000000E+03 0.  0.
</event>
<event>
 5    0  0.5648525E-005  0.3331602E+03  0.7546771E-02  0.1069747E+00
         21   -1    0    0  502  501  0.00000000000E+00  0.00000000000E+00  0.13815122596E+03  0.13815122596E+03  0.00000000000E+00 0. -1.
         21   -1    0    0  501  502 -0.00000000000E+00 -0.00000000000E+00 -0.80343626526E+03  0.80343626526E+03  0.00000000000E+00 0. -1.
         25    1    1    2    0    0 -0.17814230869E+03  0.90436851471E+02 -0.11601628411E+03  0.26267524517E+03  0.12500000000E+03 0.  0.
         25    1    1    2    0    0  0.64472876371E+02  0.91287995416E+01 -0.42251975262E+03  0.44540770999E+03  0.12500000000E+03 0.  0.
         25    1    1    2    0    0  0.11366943232E+03 -0.99565651012E+02 -0.12674900257E+03  0.23350453605E+03  0.12500000000E+03 0.  0.
</event>
<event>
 5    0  0.5648525E-005  0.3080886E+03  0.7546771E-02  0.1081266E+00
         21   -1    0    0  502  501  0.00000000000E+00  0.00000000000E+00  0.41493305205E+03  0.41493305205E+03  0.00000000000E+00 0. -1.
         21   -1    0    0  501  502 -0.00000000000E+00 -0.00000000000E+00 -0.22875640593E+03  0.22875640593E+03  0.00000000000E+00 0. -1.
         25    1    1    2    0    0 -0.20873048101E+02  0.21026580435E+03  0.16087566181E+03  0.29351894518E+03  0.12500000000E+03 0.  0.
         25    1    1    2    0    0 -0.21456242873E+02 -0.15905618808E+03  0.41709018915E+02  0.20766290854E+03  0.12500000000E+03 0.  0.
         25    1    1    2    0    0  0.42329290974E+02 -0.51209616275E+02 -0.16408034608E+02  0.14250760426E+03  0.12500000000E+03 0.  0.
</event>
<event>
 5    0  0.5648525E-005  0.2400837E+03  0.7546771E-02  0.1119737E+00
         21   -1    0    0  502  501  0.00000000000E+00  0.00000000000E+00  0.12251589274E+03  0.12251589274E+03  0.00000000000E+00 0.  1.
         21   -1    0    0  501  502 -0.00000000000E+00 -0.00000000000E+00 -0.47047114945E+03  0.47047114945E+03  0.00000000000E+00 0.  1.
         25    1    1    2    0    0 -0.20161412298E+02 -0.84262444149E+02 -0.12854746233E+03  0.19913837428E+03  0.12500000000E+03 0.  0.
         25    1    1    2    0    0  0.95269760773E+02  0.60364942907E+01 -0.13882417560E+03  0.20978541015E+03  0.12500000000E+03 0.  0.
         25    1    1    2    0    0 -0.75108348475E+02  0.78225949858E+02 -0.80583618771E+02  0.18406325776E+03  0.12500000000E+03 0.  0.
</event>
<event>
 5    0  0.5648525E-005  0.3946165E+03  0.7546771E-02  0.1045660E+00
         21   -1    0    0  502  501  0.00000000000E+00  0.00000000000E+00  0.44023154810E+03  0.44023154810E+03  0.00000000000E+00 0. -1.
         21   -1    0    0  501  502 -0.00000000000E+00 -0.00000000000E+00 -0.35372782831E+03  0.35372782831E+03  0.00000000000E+00 0. -1.
         25    1    1    2    0    0  0.53392749255E+02 -0.13603981008E+03  0.10589084664E+03  0.21953470569E+03  0.12500000000E+03 0.  0.
         25    1    1    2    0    0  0.14955703510E+03  0.16044797977E+03 -0.15779726379E+03  0.29771771432E+03  0.12500000000E+03 0.  0.
         25    1    1    2    0    0 -0.20294978435E+03 -0.24408169693E+02  0.13841013694E+03  0.27670695641E+03  0.12500000000E+03 0.  0.
</event>
<event>
 5    0  0.5648525E-005  0.3544949E+03  0.7546771E-02  0.1060785E+00
         21   -1    0    0  502  501  0.00000000000E+00  0.00000000000E+00  0.99905584182E+03  0.99905584182E+03  0.00000000000E+00 0. -1.
         21   -1    0    0  501  502 -0.00000000000E+00 -0.00000000000E+00 -0.12578536349E+03  0.12578536349E+03  0.00000000000E+00 0. -1.
         25    1    1    2    0    0 -0.64235571003E+02 -0.96026163298E+02  0.31340565024E+03  0.35664454885E+03  0.12500000000E+03 0.  0.
         25    1    1    2    0    0  0.44353822683E+02  0.88325654869E+02 -0.32310667513E+02  0.16259662398E+03  0.12500000000E+03 0.  0.
         25    1    1    2    0    0  0.19881748320E+02  0.77005084287E+01  0.59217549561E+03  0.60560003248E+03  0.12500000000E+03 0.  0.
</event>
<event>
 5    0  0.5648525E-005  0.4229367E+03  0.7546771E-02  0.1036115E+00
         21   -1    0    0  502  501  0.00000000000E+00  0.00000000000E+00  0.74568253441E+03  0.74568253441E+03  0.00000000000E+00 0. -1.
         21   -1    0    0  501  502 -0.00000000000E+00 -0.00000000000E+00 -0.23988154112E+03  0.23988154112E+03  0.00000000000E+00 0. -1.
         25    1    1    2    0    0 -0.29432550297E+03  0.12960609321E+03  0.27537137522E+03  0.44145173619E+03  0.12500000000E+03 0.  0.
         25    1    1    2    0    0  0.28097032291E+02 -0.14949927817E+03  0.11127472581E+03  0.22615601253E+03  0.12500000000E+03 0.  0.
         25    1    1    2    0    0  0.26622847068E+03  0.19893184968E+02  0.11915489227E+03  0.31795632681E+03  0.12500000000E+03 0.  0.
</event>
<event>
 5    0  0.5648525E-005  0.3252490E+03  0.7546771E-02  0.1073259E+00
         21   -1    0    0  502  501  0.00000000000E+00  0.00000000000E+00  0.40451718040E+03  0.40451718040E+03  0.00000000000E+00 0.  1.
         21   -1    0    0  501  502 -0.00000000000E+00 -0.00000000000E+00 -0.26151406193E+03  0.26151406193E+03  0.00000000000E+00 0.  1.
         25    1    1    2    0    0  0.14690824318E+03 -0.67836234390E+01  0.21359626116E+03  0.28788263623E+03  0.12500000000E+03 0.  0.
         25    1    1    2    0    0 -0.77803077532E+02  0.95968535095E+02  0.35260702833E+02  0.17925288217E+03  0.12500000000E+03 0.  0.
         25    1    1    2    0    0 -0.69105165650E+02 -0.89184911656E+02 -0.10585384552E+03  0.19889572393E+03  0.12500000000E+03 0.  0.
</event>
<event>
 5    0  0.5648525E-005  0.3795037E+03  0.7546771E-02  0.1051117E+00
         21   -1    0    0  502  501  0.00000000000E+00  0.00000000000E+00  0.13129429715E+04  0.13129429715E+04  0.00000000000E+00 0.  1.
         21   -1    0    0  501  502 -0.00000000000E+00 -0.00000000000E+00 -0.10969482061E+03  0.10969482061E+03  0.00000000000E+00 0.  1.
         25    1    1    2    0    0 -0.10277996625E+03  0.10501415391E+03  0.73329060492E+03  0.75824257678E+03  0.12500000000E+03 0.  0.
         25    1    1    2    0    0  0.49050516211E+02 -0.14896892787E+03  0.31250674224E+02  0.20297610512E+03  0.12500000000E+03 0.  0.
         25    1    1    2    0    0  0.53729450036E+02  0.43954773961E+02  0.43870687179E+03  0.46141911026E+03  0.12500000000E+03 0.  0.
</event>
<event>
 5    0  0.5648525E-005  0.3570826E+03  0.7546771E-02  0.1059745E+00
         21   -1    0    0  502  501  0.00000000000E+00  0.00000000000E+00  0.48504748167E+03  0.48504748167E+03  0.00000000000E+00 0.  1.
         21   -1    0    0  501  502 -0.00000000000E+00 -0.00000000000E+00 -0.26287728029E+03  0.26287728029E+03  0.00000000000E+00 0.  1.
         25    1    1    2    0    0 -0.14855303108E+03  0.11044877704E+03  0.64576498978E+02  0.23251249345E+03  0.12500000000E+03 0.  0.
         25    1    1    2    0    0  0.38487759412E+02  0.73033408664E+00  0.25959330916E+03  0.29068114348E+03  0.12500000000E+03 0.  0.
         25    1    1    2    0    0  0.11006527167E+03 -0.11117911112E+03 -0.10199960675E+03  0.22473112503E+03  0.12500000000E+03 0.  0.
</event>
<event>
 5    0  0.5648525E-005  0.2013428E+03  0.7546771E-02  0.1148611E+00
         21   -1    0    0  502  501  0.00000000000E+00  0.00000000000E+00  0.10889094727E+04  0.10889094727E+04  0.00000000000E+00 0.  1.
         21   -1    0    0  501  502 -0.00000000000E+00 -0.00000000000E+00 -0.37228905603E+02  0.37228905603E+02  0.00000000000E+00 0.  1.
         25    1    1    2    0    0 -0.22351348252E+01 -0.15019640370E+02  0.47338923017E+03  0.48984992464E+03  0.12500000000E+03 0.  0.
         25    1    1    2    0    0  0.43604388693E+02  0.51265591702E+01  0.31557692916E+03  0.34225929139E+03  0.12500000000E+03 0.  0.
         25    1    1    2    0    0 -0.41369253868E+02  0.98930811998E+01  0.26271440774E+03  0.29402916226E+03  0.12500000000E+03 0.  0.
</event>
<event>
 5    0  0.5648525E-005  0.2898852E+03  0.7546771E-02  0.1090409E+00
         21   -1    0    0  502  501  0.00000000000E+00  0.00000000000E+00  0.47341752477E+03  0.47341752477E+03  0.00000000000E+00 0. -1.
         21   -1    0    0  501  502 -0.00000000000E+00 -0.00000000000E+00 -0.17750388323E+03  0.17750388323E+03  0.00000000000E+00 0. -1.
         25    1    1    2    0    0  0.17622562093E+03  0.25534003003E+02  0.93538996620E+02  0.23681638176E+03  0.12500000000E+03 0.  0.
         25    1    1    2    0    0 -0.61956444275E+02 -0.31991648726E+01 -0.11917720564E+02  0.14005665892E+03  0.12500000000E+03 0.  0.
         25    1    1    2    0    0 -0.11426917665E+03 -0.22334838130E+02  0.21429236549E+03  0.27404836733E+03  0.12500000000E+03 0.  0.
</event>
<event>
 5    0  0.5648525E-005  0.2212152E+03  0.7546771E-02  0.1132980E+00
         21   -1    0    0  502  501  0.00000000000E+00  0.00000000000E+00  0.24894377585E+03  0.24894377585E+03  0.00000000000E+00 0. -1.
         21   -1    0    0  501  502 -0.00000000000E+00 -0.00000000000E+00 -0.19657510958E+03  0.19657510958E+03  0.00000000000E+00 0. -1.
         25    1    1    2    0    0 -0.71991530816E+02 -0.25478309778E+02  0.40918458772E+02  0.15208959546E+03  0.12500000000E+03 0.  0.
         25    1    1    2    0    0  0.55044952209E+02 -0.49910526749E+02  0.16756316055E+02  0.14637889729E+03  0.12500000000E+03 0.  0.
         25    1    1    2    0    0  0.16946578607E+02  0.75388836526E+02 -0.53061085496E+01  0.14705039268E+03  0.12500000000E+03 0.  0.
</event>
<event>
 5    0  0.5648525E-005  0.3131552E+03  0.7546771E-02  0.1078843E+00
         21   -1    0    0  502  501  0.00000000000E+00  0.00000000000E+00  0.83460124663E+03  0.83460124663E+03  0.00000000000E+00 0. -1.
         21   -1    0    0  501  502 -0.00000000000E+00 -0.00000000000E+00 -0.11750066195E+03  0.11750066195E+03  0.00000000000E+00 0. -1.
         25    1    1    2    0    0 -0.50924666327E+02 -0.38805435926E+01  0.13554477891E+03  0.19132633731E+03  0.12500000000E+03 0.  0.
         25    1    1    2    0    0  0.37419098445E+02 -0.18103152432E+03  0.44752510491E+03  0.50007631542E+03  0.12500000000E+03 0.  0.
         25    1    1    2    0    0  0.13505567882E+02  0.18491206792E+03  0.13403070087E+03  0.26069925585E+03  0.12500000000E+03 0.  0.
</event>
<event>
 5    0  0.5648525E-005  0.3149077E+03  0.7546771E-02  0.1078017E+00
         21   -1    0    0  502  501  0.00000000000E+00  0.00000000000E+00  0.47174613168E+03  0.47174613168E+03  0.00000000000E+00 0.  1.
         21   -1    0    0  501  502 -0.00000000000E+00 -0.00000000000E+00 -0.21021228503E+03  0.21021228503E+03  0.00000000000E+00 0.  1.
         25    1    1    2    0    0  0.34694985527E+02  0.77945438012E+02 -0.57900898370E+02  0.16203933893E+03  0.12500000000E+03 0.  0.
         25    1    1    2    0    0 -0.36203290972E+01 -0.37811547182E+02 -0.39485546405E+02  0.13648050505E+03  0.12500000000E+03 0.  0.
         25    1    1    2    0    0 -0.31074656430E+02 -0.40133890830E+02  0.35892029143E+03  0.38343857274E+03  0.12500000000E+03 0.  0.
</event>
<event>
 5    0  0.5648525E-005  0.2821580E+03  0.7546771E-02  0.1094516E+00
         21   -1    0    0  502  501  0.00000000000E+00  0.00000000000E+00  0.37320855637E+03  0.37320855637E+03  0.00000000000E+00 0.  1.
         21   -1    0    0  501  502 -0.00000000000E+00 -0.00000000000E+00 -0.21332072721E+03  0.21332072721E+03  0.00000000000E+00 0.  1.
         25    1    1    2    0    0 -0.10844632226E+03 -0.36764207964E+02  0.53814009591E+02  0.17785713207E+03  0.12500000000E+03 0.  0.
         25    1    1    2    0    0  0.44138783386E+02  0.46196554079E+02  0.19632782572E+03  0.24135444673E+03  0.12500000000E+03 0.  0.
         25    1    1    2    0    0  0.64307538876E+02 -0.94323461148E+01 -0.90254006146E+02  0.16731770479E+03  0.12500000000E+03 0.  0.
</event>
<event>
 5    0  0.5648525E-005  0.3933960E+03  0.7546771E-02  0.1046091E+00
         21   -1    0    0  502  501  0.00000000000E+00  0.00000000000E+00  0.87678361580E+03  0.87678361580E+03  0.00000000000E+00 0. -1.
         21   -1    0    0  501  502 -0.00000000000E+00 -0.00000000000E+00 -0.17650923402E+03  0.17650923402E+03  0.00000000000E+00 0. -1.
         25    1    1    2    0    0  0.99477880151E+02  0.20270497762E+03  0.60674602398E+03  0.65935642425E+03  0.12500000000E+03 0.  0.
         25    1    1    2    0    0 -0.46499731349E+01 -0.14022363325E+03  0.12005220405E+03  0.22298390361E+03  0.12500000000E+03 0.  0.
         25    1    1    2    0    0 -0.94827907016E+02 -0.62481344372E+02 -0.26523846248E+02  0.17095252196E+03  0.12500000000E+03 0.  0.
</event>
<event>
 5    0  0.5648525E-005  0.2109277E+03  0.7546771E-02  0.1140833E+00
         21   -1    0    0  502  501  0.00000000000E+00  0.00000000000E+00  0.38246693933E+02  0.38246693933E+02  0.00000000000E+00 0. -1.
         21   -1    0    0  501  502 -0.00000000000E+00 -0.00000000000E+00 -0.11632506075E+04  0.11632506075E+04  0.00000000000E+00 0. -1.
         25    1    1    2    0    0  0.43988112680E+02  0.61454850786E+02 -0.39843174503E+03  0.42436365088E+03  0.12500000000E+03 0.  0.
         25    1    1    2    0    0  0.15671664508E+02 -0.15798166874E+02 -0.39505729882E+03  0.41495837441E+03  0.12500000000E+03 0.  0.
         25    1    1    2    0    0 -0.59659777188E+02 -0.45656683911E+02 -0.33151486968E+03  0.36217527610E+03  0.12500000000E+03 0.  0.
</event>
<event>
 5    0  0.5648525E-005  0.3772934E+03  0.7546771E-02  0.1051939E+00
         21   -1    0    0  502  501  0.00000000000E+00  0.00000000000E+00  0.56290519976E+03  0.56290519976E+03  0.00000000000E+00 0.  1.
         21   -1    0    0  501  502 -0.00000000000E+00 -0.00000000000E+00 -0.25288508082E+03  0.25288508082E+03  0.00000000000E+00 0.  1.
         25    1    1    2    0    0 -0.43941502206E+02 -0.18463297518E+02  0.10410754728E+03  0.16951439577E+03  0.12500000000E+03 0.  0.
         25    1    1    2    0    0 -0.21214110799E+03  0.14948410072E+03  0.38091970472E+02  0.29056039696E+03  0.12500000000E+03 0.  0.
         25    1    1    2    0    0  0.25608261020E+03 -0.13102080320E+03  0.16782060118E+03  0.35571548785E+03  0.12500000000E+03 0.  0.
</event>
<event>
 5    0  0.5648525E-005  0.2655726E+03  0.7546771E-02  0.1103841E+00
         21   -1    0    0  502  501  0.00000000000E+00  0.00000000000E+00  0.50177393281E+03  0.50177393281E+03  0.00000000000E+00 0.  1.
         21   -1    0    0  501  502 -0.00000000000E+00 -0.00000000000E+00 -0.14055888489E+03  0.14055888489E+03  0.00000000000E+00 0.  1.
         25    1    1    2    0    0  0.47555493399E+02  0.16094492992E+02  0.11771476752E+03  0.17889193428E+03  0.12500000000E+03 0.  0.
         25    1    1    2    0    0 -0.57497317639E+02  0.10582617775E+03  0.22982720698E+03  0.28801157355E+03  0.12500000000E+03 0.  0.
         25    1    1    2    0    0  0.99418242402E+01 -0.12192067075E+03  0.13673073414E+02  0.17542930987E+03  0.12500000000E+03 0.  0.
</event>
<event>
 5    0  0.5648525E-005  0.2331495E+03  0.7546771E-02  0.1124442E+00
         21   -1    0    0  502  501  0.00000000000E+00  0.00000000000E+00  0.73617074946E+02  0.73617074946E+02  0.00000000000E+00 0.  1.
         21   -1    0    0  501  502 -0.00000000000E+00 -0.00000000000E+00 -0.73839801086E+03  0.73839801086E+03  0.00000000000E+00 0.  1.
         25    1    1    2    0    0  0.51239484005E+02  0.49726069226E+02 -0.14438209540E+03  0.20388564480E+03  0.12500000000E+03 0.  0.
         25    1    1    2    0    0 -0.19981279455E+02  0.64241516163E+02 -0.21552556688E+03  0.25807458981E+03  0.12500000000E+03 0.  0.
         25    1    1    2    0    0 -0.31258204550E+02 -0.11396758539E+03 -0.30487327363E+03  0.35005485119E+03  0.12500000000E+03 0.  0.
</event>
<event>
 5    0  0.5648525E-005  0.2391874E+03  0.7546771E-02  0.1120335E+00
         21   -1    0    0  502  501  0.00000000000E+00  0.00000000000E+00  0.42065151322E+03  0.42065151322E+03  0.00000000000E+00 0. -1.
         21   -1    0    0  501  502 -0.00000000000E+00 -0.00000000000E+00 -0.13600474492E+03  0.13600474492E+03  0.00000000000E+00 0. -1.
         25    1    1    2    0    0  0.41545467978E+01  0.64825664849E+02  0.66859335870E+02  0.15593202966E+03  0.12500000000E+03 0.  0.
         25    1    1    2    0    0  0.91587353314E+02 -0.86310667622E+02  0.11035122760E+03  0.20890229311E+03  0.12500000000E+03 0.  0.
         25    1    1    2    0    0 -0.95741900112E+02  0.21485002773E+02  0.10743620483E+03  0.19182193537E+03  0.12500000000E+03 0.  0.
</event>
<event>
 5    0  0.5648525E-005  0.2296174E+03  0.7546771E-02  0.1126909E+00
         21   -1    0    0  502  501  0.00000000000E+00  0.00000000000E+00  0.63071563791E+02  0.63071563791E+02  0.00000000000E+00 0.  1.
         21   -1    0    0  501  502 -0.00000000000E+00 -0.00000000000E+00 -0.83594155222E+03  0.83594155222E+03  0.00000000000E+00 0.  1.
         25    1    1    2    0    0  0.24434275423E+02 -0.16276928045E+02 -0.10087920934E+03  0.16328988664E+03  0.12500000000E+03 0.  0.
         25    1    1    2    0    0 -0.62325656258E+02  0.24672954673E+01 -0.50098445137E+03  0.52009710198E+03  0.12500000000E+03 0.  0.
         25    1    1    2    0    0  0.37891380834E+02  0.13809632578E+02 -0.17100632772E+03  0.21562612739E+03  0.12500000000E+03 0.  0.
</event>
<event>
 5    0  0.5648525E-005  0.3228816E+03  0.7546771E-02  0.1074331E+00
         21   -1    0    0  502  501  0.00000000000E+00  0.00000000000E+00  0.11509724148E+04  0.11509724148E+04  0.00000000000E+00 0.  1.
         21   -1    0    0  501  502 -0.00000000000E+00 -0.00000000000E+00 -0.90577761924E+02  0.90577761924E+02  0.00000000000E+00 0.  1.
         25    1    1    2    0    0 -0.12987921310E+03 -0.21433839016E+02  0.37704167688E+03  0.41846558467E+03  0.12500000000E+03 0.  0.
         25    1    1    2    0    0 -0.39580101413E+02 -0.13724373935E+03  0.22561335192E+03  0.29483692609E+03  0.12500000000E+03 0.  0.
         25    1    1    2    0    0  0.16945931451E+03  0.15867757837E+03  0.45773962406E+03  0.52824766596E+03  0.12500000000E+03 0.  0.
</event>
<event>
 5    0  0.5648525E-005  0.3574022E+03  0.7546771E-02  0.1059617E+00
         21   -1    0    0  502  501  0.00000000000E+00  0.00000000000E+00  0.15758672474E+03  0.15758672474E+03  0.00000000000E+00 0.  1.
         21   -1    0    0  501  502 -0.00000000000E+00 -0.00000000000E+00 -0.81057786140E+03  0.81057786140E+03  0.00000000000E+00 0.  1.
         25    1    1    2    0    0  0.25656687954E+03  0.97351840059E+02 -0.35957751056E+03  0.46928129149E+03  0.12500000000E+03 0.  0.
         25    1    1    2    0    0 -0.19985916942E+03 -0.11285969923E+01 -0.17729981154E+03  0.29496641250E+03  0.12500000000E+03 0.  0.
         25    1    1    2    0    0 -0.56707710126E+02 -0.96223243067E+02 -0.11611381457E+03  0.20391688215E+03  0.12500000000E+03 0.  0.
</event>
<event>
 5    0  0.5648525E-005  0.3803358E+03  0.7546771E-02  0.1050810E+00
         21   -1    0    0  502  501  0.00000000000E+00  0.00000000000E+00  0.14735945817E+03  0.14735945817E+03  0.00000000000E+00 0. -1.
         21   -1    0    0  501  502 -0.00000000000E+00 -0.00000000000E+00 -0.98164933336E+03  0.98164933336E+03  0.00000000000E+00 0. -1.
         25    1    1    2    0    0  0.87711280083E+02 -0.11447289436E+02 -0.34660318524E+03  0.37892357687E+03  0.12500000000E+03 0.  0.
         25    1    1    2    0    0  0.15835548617E+03  0.82306867740E+02 -0.39381563825E+03  0.45007403547E+03  0.12500000000E+03 0.  0.
         25    1    1    2    0    0 -0.24606676625E+03 -0.70859578304E+02 -0.93871051697E+02  0.30001117919E+03  0.12500000000E+03 0.  0.
</event>
<event>
 5    0  0.5648525E-005  0.3177844E+03  0.7546771E-02  0.1076674E+00
         21   -1    0    0  502  501  0.00000000000E+00  0.00000000000E+00  0.27233713450E+03  0.27233713450E+03  0.00000000000E+00 0. -1.
         21   -1    0    0  501  502 -0.00000000000E+00 -0.00000000000E+00 -0.37081575592E+03  0.37081575592E+03  0.00000000000E+00 0. -1.
         25    1    1    2    0    0 -0.68848542040E+02  0.27690057440E+02 -0.20704833466E+03  0.25298394002E+03  0.12500000000E+03 0.  0.
         25    1    1    2    0    0 -0.36514780283E+02 -0.96718861271E+02  0.13463508662E+03  0.21080672155E+03  0.12500000000E+03 0.  0.
         25    1    1    2    0    0  0.10536332232E+03  0.69028803831E+02 -0.26065373373E+02  0.17936222885E+03  0.12500000000E+03 0.  0.
</event>
<event>
 5    0  0.5648525E-005  0.8184959E+03  0.7546771E-02  0.9533624E-01
         21   -1    0    0  502  501  0.00000000000E+00  0.00000000000E+00  0.34479092577E+03  0.34479092577E+03  0.00000000000E+00 0.  1.
         21   -1    0    0  501  502 -0.00000000000E+00 -0.00000000000E+00 -0.19430197739E+04  0.19430197739E+04  0.00000000000E+00 0.  1.
         25    1    1    2    0    0 -0.49604615294E+03 -0.52380597931E+02 -0.52104088154E+01  0.51425447130E+03  0.12500000000E+03 0.  0.
         25    1    1    2    0    0  0.37793800178E+03 -0.19540300823E+03 -0.67828129764E+03  0.81037644805E+03  0.12500000000E+03 0.  0.
         25    1    1    2    0    0  0.11810815117E+03  0.24778360616E+03 -0.91473714165E+03  0.96317978030E+03  0.12500000000E+03 0.  0.
</event>
<event>
 5    0  0.5648525E-005  0.2332585E+03  0.7546771E-02  0.1124367E+00
         21   -1    0    0  502  501  0.00000000000E+00  0.00000000000E+00  0.47044866486E+02  0.47044866486E+02  0.00000000000E+00 0. -1.
         21   -1    0    0  501  502 -0.00000000000E+00 -0.00000000000E+00 -0.11565452547E+04  0.11565452547E+04  0.00000000000E+00 0. -1.
         25    1    1    2    0    0 -0.85527384526E+02  0.78644504371E+01 -0.53695809037E+03  0.55796574617E+03  0.12500000000E+03 0.  0.
         25    1    1    2    0    0  0.62447802310E+02  0.59995685154E+01 -0.43898425626E+03  0.46072540638E+03  0.12500000000E+03 0.  0.
         25    1    1    2    0    0  0.23079582216E+02 -0.13864018952E+02 -0.13355804162E+03  0.18489896868E+03  0.12500000000E+03 0.  0.
</event>
<event>
 5    0  0.5648525E-005  0.3646036E+03  0.7546771E-02  0.1056776E+00
         21   -1    0    0  502  501  0.00000000000E+00  0.00000000000E+00  0.11451066160E+04  0.11451066160E+04  0.00000000000E+00 0.  1.
         21   -1    0    0  501  502 -0.00000000000E+00 -0.00000000000E+00 -0.11609032858E+03  0.11609032858E+03  0.00000000000E+00 0.  1.
         25    1    1    2    0    0 -0.14527151679E+03 -0.14395256011E+03  0.84908237626E+03  0.88226528597E+03  0.12500000000E+03 0.  0.
         25    1    1    2    0    0  0.36961738372E+02  0.88624561096E+02  0.10312472368E+03  0.18836186335E+03  0.12500000000E+03 0.  0.
         25    1    1    2    0    0  0.10830977842E+03  0.55327999013E+02  0.76809187445E+02  0.19056979522E+03  0.12500000000E+03 0.  0.
</event>
<event>
 5    0  0.5648525E-005  0.7445345E+03  0.7546771E-02  0.9643964E-01
         21   -1    0    0  502  501  0.00000000000E+00  0.00000000000E+00  0.43893869582E+03  0.43893869582E+03  0.00000000000E+00 0.  1.
         21   -1    0    0  501  502 -0.00000000000E+00 -0.00000000000E+00 -0.12628908802E+04  0.12628908802E+04  0.00000000000E+00 0.  1.
         25    1    1    2    0    0  0.72829786775E+02  0.32288010557E+03 -0.10812832948E+04  0.11376969297E+04  0.12500000000E+03 0.  0.
         25    1    1    2    0    0 -0.79262281185E+02 -0.31285090244E+03  0.26854907469E+03  0.43806597893E+03  0.12500000000E+03 0.  0.
         25    1    1    2    0    0  0.64324944102E+01 -0.10029203126E+02 -0.11217964340E+02  0.12606666738E+03  0.12500000000E+03 0.  0.
</event>
<event>
 5    0  0.5648525E-005  0.2276050E+03  0.7546771E-02  0.1128337E+00
         21   -1    0    0  502  501  0.00000000000E+00  0.00000000000E+00  0.15697947584E+03  0.15697947584E+03  0.00000000000E+00 0. -1.
         21   -1    0    0  501  502 -0.00000000000E+00 -0.00000000000E+00 -0.33000525386E+03  0.33000525386E+03  0.00000000000E+00 0. -1.
         25    1    1    2    0    0 -0.29721348342E+02  0.11648213281E+02 -0.29793653404E+01  0.12904617793E+03  0.12500000000E+03 0.  0.
         25    1    1    2    0    0 -0.35652297528E+01 -0.74103692296E+02 -0.15660237774E+03  0.21366649898E+03  0.12500000000E+03 0.  0.
         25    1    1    2    0    0  0.33286578095E+02  0.62455479014E+02 -0.13444034944E+02  0.14427205279E+03  0.12500000000E+03 0.  0.
</event>
<event>
 5    0  0.5648525E-005  0.4850730E+03  0.7546771E-02  0.1017750E+00
         21   -1    0    0  502  501  0.00000000000E+00  0.00000000000E+00  0.55064494257E+03  0.55064494257E+03  0.00000000000E+00 0.  1.
         21   -1    0    0  501  502 -0.00000000000E+00 -0.00000000000E+00 -0.42730948653E+03  0.42730948653E+03  0.00000000000E+00 0.  1.
         25    1    1    2    0    0  0.90981584461E+02 -0.24490000992E+03  0.80197274760E+02  0.30051666584E+03  0.12500000000E+03 0.  0.
         25    1    1    2    0    0 -0.28294607863E+03  0.24772309297E+03 -0.98164796266E+02  0.40827263125E+03  0.12500000000E+03 0.  0.
         25    1    1    2    0    0  0.19196449417E+03 -0.28230830548E+01  0.14130297755E+03  0.26916513200E+03  0.12500000000E+03 0.  0.
</event>
<event>
 5    0  0.5648525E-005  0.3076453E+03  0.7546771E-02  0.1081480E+00
         21   -1    0    0  502  501  0.00000000000E+00  0.00000000000E+00  0.98709219904E+03  0.98709219904E+03  0.00000000000E+00 0. -1.
         21   -1    0    0  501  502 -0.00000000000E+00 -0.00000000000E+00 -0.95883256340E+02  0.95883256340E+02  0.00000000000E+00 0. -1.
         25    1    1    2    0    0 -0.80947806279E+02  0.67442506438E+02  0.91313499126E+02  0.18725435679E+03  0.12500000000E+03 0.  0.
         25    1    1    2    0    0 -0.50442907981E+02 -0.94380747705E+02  0.60982576888E+03  0.63163651011E+03  0.12500000000E+03 0.  0.
         25    1    1    2    0    0  0.13139071426E+03  0.26938241268E+02  0.19006967469E+03  0.26408458848E+03  0.12500000000E+03 0.  0.
</event>
<event>
 5    0  0.5648525E-005  0.4328217E+03  0.7546771E-02  0.1032972E+00
         21   -1    0    0  502  501  0.00000000000E+00  0.00000000000E+00  0.37863829035E+03  0.37863829035E+03  0.00000000000E+00 0.  1.
         21   -1    0    0  501  502 -0.00000000000E+00 -0.00000000000E+00 -0.49475885066E+03  0.49475885066E+03  0.00000000000E+00 0.  1.
         25    1    1    2    0    0 -0.42113682842E+02 -0.26396372644E+02  0.89649725257E+02  0.16165520100E+03  0.12500000000E+03 0.  0.
         25    1    1    2    0    0 -0.13974672808E+02 -0.20249584485E+03 -0.33831726519E+03  0.41386402428E+03  0.12500000000E+03 0.  0.
         25    1    1    2    0    0  0.56088355651E+02  0.22889221750E+03  0.13254697963E+03  0.29787791573E+03  0.12500000000E+03 0.  0.
</event>
<event>
 5    0  0.5648525E-005  0.5148126E+03  0.7546771E-02  0.1009983E+00
         21   -1    0    0  502  501  0.00000000000E+00  0.00000000000E+00  0.66828751505E+03  0.66828751505E+03  0.00000000000E+00 0. -1.
         21   -1    0    0  501  502 -0.00000000000E+00 -0.00000000000E+00 -0.39658374638E+03  0.39658374638E+03  0.00000000000E+00 0. -1.
         25    1    1    2    0    0 -0.32178099138E+03  0.32000970746E+03 -0.87046550127E+01  0.47079718595E+03  0.12500000000E+03 0.  0.
         25    1    1    2    0    0  0.21957625941E+03 -0.20723125885E+03  0.17596501287E+03  0.37114311808E+03  0.12500000000E+03 0.  0.
         25    1    1    2    0    0  0.10220473196E+03 -0.11277844861E+03  0.10444341081E+03  0.22293095740E+03  0.12500000000E+03 0.  0.
</event>
<event>
 5    0  0.5648525E-005  0.2275600E+03  0.7546771E-02  0.1128369E+00
         21   -1    0    0  502  501  0.00000000000E+00  0.00000000000E+00  0.44086720005E+02  0.44086720005E+02  0.00000000000E+00 0.  1.
         21   -1    0    0  501  502 -0.00000000000E+00 -0.00000000000E+00 -0.11745840363E+04  0.11745840363E+04  0.00000000000E+00 0.  1.
         25    1    1    2    0    0  0.34796314362E+02  0.56664549146E+02 -0.23347795459E+03  0.27305422521E+03  0.12500000000E+03 0.  0.
         25    1    1    2    0    0 -0.23061819776E+02  0.35205204345E+01 -0.21718533674E+03  0.25167183412E+03  0.12500000000E+03 0.  0.
         25    1    1    2    0    0 -0.11734494586E+02 -0.60185069581E+02 -0.67983402498E+03  0.69394469699E+03  0.12500000000E+03 0.  0.
</event>
<event>
 5    0  0.5648525E-005  0.4035260E+03  0.7546771E-02  0.1042566E+00
         21   -1    0    0  502  501  0.00000000000E+00  0.00000000000E+00  0.90023539427E+03  0.90023539427E+03  0.00000000000E+00 0. -1.
         21   -1    0    0  501  502 -0.00000000000E+00 -0.00000000000E+00 -0.18087846340E+03  0.18087846340E+03  0.00000000000E+00 0. -1.
         25    1    1    2    0    0 -0.52858508322E+02 -0.62950987044E+02  0.32150022079E+03  0.35460434380E+03  0.12500000000E+03 0.  0.
         25    1    1    2    0    0 -0.11542117131E+03  0.94313756831E+02 -0.74868310497E+02  0.20844038819E+03  0.12500000000E+03 0.  0.
         25    1    1    2    0    0  0.16827967963E+03 -0.31362769786E+02  0.47272502057E+03  0.51806912568E+03  0.12500000000E+03 0.  0.
</event>
<event>
 5    0  0.5870851E-005  0.2779427E+03  0.7546771E-02  0.1096818E+00
         21   -1    0    0  502  501  0.00000000000E+00  0.00000000000E+00  0.29481462338E+03  0.29481462338E+03  0.00000000000E+00 0. -1.
         21   -1    0    0  501  502 -0.00000000000E+00 -0.00000000000E+00 -0.26203635467E+03  0.26203635467E+03  0.00000000000E+00 0. -1.
         25    1    1    2    0    0  0.99614691004E+02 -0.15287123527E+03  0.73461294916E+02  0.23305420633E+03  0.12500000000E+03 0.  0.
         25    1    1    2    0    0 -0.50972388649E+02  0.11435610794E+03  0.49071720938E+01  0.17698752545E+03  0.12500000000E+03 0.  0.
         25    1    1    2    0    0 -0.48642302355E+02  0.38515127334E+02 -0.45590198296E+02  0.14680924628E+03  0.12500000000E+03 0.  0.
</event>
<event>
 5    0  0.5648525E-005  0.3803186E+03  0.7546771E-02  0.1050816E+00
         21   -1    0    0  502  501  0.00000000000E+00  0.00000000000E+00  0.78629712293E+03  0.78629712293E+03  0.00000000000E+00 0.  1.
         21   -1    0    0  501  502 -0.00000000000E+00 -0.00000000000E+00 -0.18395370733E+03  0.18395370733E+03  0.00000000000E+00 0.  1.
         25    1    1    2    0    0 -0.14923038645E+03  0.10973682639E+03  0.18336895966E+03  0.28906929044E+03  0.12500000000E+03 0.  0.
         25    1    1    2    0    0  0.84350398188E+02  0.15868034193E+03  0.98445464346E+02  0.24002281150E+03  0.12500000000E+03 0.  0.
         25    1    1    2    0    0  0.64879988259E+02 -0.26841716833E+03  0.32052899159E+03  0.44115872833E+03  0.12500000000E+03 0.  0.
</event>
<event>
 5    0  0.5648525E-005  0.3651765E+03  0.7546771E-02  0.1056553E+00
         21   -1    0    0  502  501  0.00000000000E+00  0.00000000000E+00  0.13892152986E+04  0.13892152986E+04  0.00000000000E+00 0. -1.
         21   -1    0    0  501  502 -0.00000000000E+00 -0.00000000000E+00 -0.95992208056E+02  0.95992208056E+02  0.00000000000E+00 0. -1.
         25    1    1    2    0    0 -0.13715263222E+03  0.15048298686E+03  0.53807081990E+03  0.58872844426E+03  0.12500000000E+03 0.  0.
         25    1    1    2    0    0  0.25585179956E+03 -0.81032280690E+02  0.49463673182E+03  0.57646931429E+03  0.12500000000E+03 0.  0.
         25    1    1    2    0    0 -0.11869916734E+03 -0.69450706171E+02  0.26051553885E+03  0.32000974813E+03  0.12500000000E+03 0.  0.
</event>
<event>
 5    0  0.5648525E-005  0.2994581E+03  0.7546771E-02  0.1085512E+00
         21   -1    0    0  502  501  0.00000000000E+00  0.00000000000E+00  0.10095164034E+03  0.10095164034E+03  0.00000000000E+00 0.  1.
         21   -1    0    0  501  502 -0.00000000000E+00 -0.00000000000E+00 -0.88829809026E+03  0.88829809026E+03  0.00000000000E+00 0.  1.
         25    1    1    2    0    0 -0.11614724607E+03  0.16582326443E+02 -0.83658876817E+02  0.19075891589E+03  0.12500000000E+03 0.  0.
         25    1    1    2    0    0  0.14365357589E+03 -0.42840596076E+02 -0.20535597423E+03  0.28331562380E+03  0.12500000000E+03 0.  0.
         25    1    1    2    0    0 -0.27506329819E+02  0.26258269634E+02 -0.49833159887E+03  0.51517519092E+03  0.12500000000E+03 0.  0.
</event>
<event>
 5    0  0.5648525E-005  0.2342763E+03  0.7546771E-02  0.1123666E+00
         21   -1    0    0  502  501  0.00000000000E+00  0.00000000000E+00  0.63317284943E+02  0.63317284943E+02  0.00000000000E+00 0.  1.
         21   -1    0    0  501  502 -0.00000000000E+00 -0.00000000000E+00 -0.86683124429E+03  0.86683124429E+03  0.00000000000E+00 0.  1.
         25    1    1    2    0    0  0.49870170547E+01  0.89792103412E+02 -0.15889873977E+03  0.22127200834E+03  0.12500000000E+03 0.  0.
         25    1    1    2    0    0 -0.67838410120E+01 -0.78898908638E+02 -0.21275269741E+03  0.25915201821E+03  0.12500000000E+03 0.  0.
         25    1    1    2    0    0  0.17968239573E+01 -0.10893194774E+02 -0.43186252217E+03  0.44972450269E+03  0.12500000000E+03 0.  0.
</event>
<event>
 5    0  0.5648525E-005  0.2205505E+03  0.7546771E-02  0.1133473E+00
         21   -1    0    0  502  501  0.00000000000E+00  0.00000000000E+00  0.37255568805E+02  0.37255568805E+02  0.00000000000E+00 0. -1.
         21   -1    0    0  501  502 -0.00000000000E+00 -0.00000000000E+00 -0.13056443685E+04  0.13056443685E+04  0.00000000000E+00 0. -1.
         25    1    1    2    0    0  0.50001857993E+02  0.37418726482E+02 -0.31091361705E+03  0.34087039203E+03  0.12500000000E+03 0.  0.
         25    1    1    2    0    0 -0.76974687317E+02 -0.69557029578E+02 -0.57250015332E+03  0.59510058679E+03  0.12500000000E+03 0.  0.
         25    1    1    2    0    0  0.26972829324E+02  0.32138303095E+02 -0.38497502930E+03  0.40692895846E+03  0.12500000000E+03 0.  0.
</event>
<event>
 5    0  0.5648525E-005  0.2805096E+03  0.7546771E-02  0.1095411E+00
         21   -1    0    0  502  501  0.00000000000E+00  0.00000000000E+00  0.65059412172E+03  0.65059412172E+03  0.00000000000E+00 0.  1.
         21   -1    0    0  501  502 -0.00000000000E+00 -0.00000000000E+00 -0.12094425080E+03  0.12094425080E+03  0.00000000000E+00 0.  1.
         25    1    1    2    0    0 -0.10339993451E+03 -0.12729465499E+02  0.43698724763E+03  0.46630080456E+03  0.12500000000E+03 0.  0.
         25    1    1    2    0    0  0.99432237801E+01  0.47783444066E+01  0.39739030180E+01  0.12554876415E+03  0.12500000000E+03 0.  0.
         25    1    1    2    0    0  0.93456710735E+02  0.79511210925E+01  0.88688720271E+02  0.17968880380E+03  0.12500000000E+03 0.  0.
</event>
<event>
 5    0  0.5648525E-005  0.3212001E+03  0.7546771E-02  0.1075098E+00
         21   -1    0    0  502  501  0.00000000000E+00  0.00000000000E+00  0.46141973408E+03  0.46141973408E+03  0.00000000000E+00 0. -1.
         21   -1    0    0  501  502 -0.00000000000E+00 -0.00000000000E+00 -0.22359151032E+03  0.22359151032E+03  0.00000000000E+00 0. -1.
         25    1    1    2    0    0  0.23217125095E+02  0.50831398094E+02  0.14958410674E+03  0.20278873469E+03  0.12500000000E+03 0.  0.
         25    1    1    2    0    0 -0.17046611698E+03  0.57370106604E+02  0.13314088888E+03  0.25632308219E+03  0.12500000000E+03 0.  0.
         25    1    1    2    0    0  0.14724899189E+03 -0.10820150470E+03 -0.44896771858E+02  0.22589942752E+03  0.12500000000E+03 0.  0.
</event>
<event>
 5    0  0.5648525E-005  0.3121828E+03  0.7546771E-02  0.1079304E+00
         21   -1    0    0  502  501  0.00000000000E+00  0.00000000000E+00  0.22462919478E+03  0.22462919478E+03  0.00000000000E+00 0.  1.
         21   -1    0    0  501  502 -0.00000000000E+00 -0.00000000000E+00 -0.43386211429E+03  0.43386211429E+03  0.00000000000E+00 0.  1.
         25    1    1    2    0    0  0.47580073238E+02 -0.10390502579E+03 -0.20848319222E+03  0.26860818899E+03  0.12500000000E+03 0.  0.
         25    1    1    2    0    0  0.10488891845E+03  0.99955620390E+02 -0.16429857718E+02  0.19206184287E+03  0.12500000000E+03 0.  0.
         25    1    1    2    0    0 -0.15246899169E+03  0.39494054025E+01  0.15680130423E+02  0.19782127722E+03  0.12500000000E+03 0.  0.
</event>
<event>
 5    0  0.5648525E-005  0.2461004E+03  0.7546771E-02  0.1115794E+00
         21   -1    0    0  502  501  0.00000000000E+00  0.00000000000E+00  0.20499170779E+03  0.20499170779E+03  0.00000000000E+00 0.  1.
         21   -1    0    0  501  502 -0.00000000000E+00 -0.00000000000E+00 -0.29545292127E+03  0.29545292127E+03  0.00000000000E+00 0.  1.
         25    1    1    2    0    0  0.12340511069E+03  0.12745182604E+02 -0.84573189476E+02  0.19536858857E+03  0.12500000000E+03 0.  0.
         25    1    1    2    0    0 -0.11047876449E+03  0.34497482331E+02  0.45725252576E+01  0.17041579057E+03  0.12500000000E+03 0.  0.
         25    1    1    2    0    0 -0.12926346200E+02 -0.47242664935E+02 -0.10460549258E+02  0.13466024991E+03  0.12500000000E+03 0.  0.
</event>
<event>
 5    0  0.5648525E-005  0.3600904E+03  0.7546771E-02  0.1058548E+00
         21   -1    0    0  502  501  0.00000000000E+00  0.00000000000E+00  0.54898220033E+03  0.54898220033E+03  0.00000000000E+00 0. -1.
         21   -1    0    0  501  502 -0.00000000000E+00 -0.00000000000E+00 -0.23619180549E+03  0.23619180549E+03  0.00000000000E+00 0. -1.
         25    1    1    2    0    0  0.62462686954E+02 -0.49384343611E+02  0.20964365166E+03  0.25674084470E+03  0.12500000000E+03 0.  0.
         25    1    1    2    0    0  0.28249145394E+02  0.20338904204E+03 -0.69526226250E+02  0.25024790264E+03  0.12500000000E+03 0.  0.
         25    1    1    2    0    0 -0.90711832347E+02 -0.15400469843E+03  0.17267296943E+03  0.27818525848E+03  0.12500000000E+03 0.  0.
</event>
<event>
 5    0  0.5648525E-005  0.3022728E+03  0.7546771E-02  0.1084110E+00
         21   -1    0    0  502  501  0.00000000000E+00  0.00000000000E+00  0.11146467250E+04  0.11146467250E+04  0.00000000000E+00 0.  1.
         21   -1    0    0  501  502 -0.00000000000E+00 -0.00000000000E+00 -0.81971100029E+02  0.81971100029E+02  0.00000000000E+00 0.  1.
         25    1    1    2    0    0 -0.95174186949E+02  0.79461494148E+02  0.21255521234E+03  0.27600176305E+03  0.12500000000E+03 0.  0.
         25    1    1    2    0    0  0.11638134853E+03 -0.14315284066E+03  0.25825556465E+03  0.34111331072E+03  0.12500000000E+03 0.  0.
         25    1    1    2    0    0 -0.21207161580E+02  0.63691346515E+02  0.56186484798E+03  0.57950275126E+03  0.12500000000E+03 0.  0.
</event>
<event>
 5    0  0.5648525E-005  0.2436691E+03  0.7546771E-02  0.1117372E+00
         21   -1    0    0  502  501  0.00000000000E+00  0.00000000000E+00  0.10869598262E+04  0.10869598262E+04  0.00000000000E+00 0.  1.
         21   -1    0    0  501  502 -0.00000000000E+00 -0.00000000000E+00 -0.54624511261E+02  0.54624511261E+02  0.00000000000E+00 0.  1.
         25    1    1    2    0    0  0.59726610854E+02 -0.63129098338E+01  0.31500790111E+03  0.34418323410E+03  0.12500000000E+03 0.  0.
         25    1    1    2    0    0 -0.33820921875E+02  0.65615119075E+01  0.62885651722E+03  0.64208443950E+03  0.12500000000E+03 0.  0.
         25    1    1    2    0    0 -0.25905688979E+02 -0.24860207362E+00  0.88470896595E+02  0.15531666385E+03  0.12500000000E+03 0.  0.
</event>
<event>
 5    0  0.5648525E-005  0.3170674E+03  0.7546771E-02  0.1077007E+00
         21   -1    0    0  502  501  0.00000000000E+00  0.00000000000E+00  0.12832343880E+04  0.12832343880E+04  0.00000000000E+00 0. -1.
         21   -1    0    0  501  502 -0.00000000000E+00 -0.00000000000E+00 -0.78342439849E+02  0.78342439849E+02  0.00000000000E+00 0. -1.
         25    1    1    2    0    0 -0.17015618740E+02  0.15975828573E+03  0.75985283761E+03  0.78664704663E+03  0.12500000000E+03 0.  0.
         25    1    1    2    0    0 -0.67594627494E+02 -0.62414590017E+02  0.96300460604E+02  0.18265649024E+03  0.12500000000E+03 0.  0.
         25    1    1    2    0    0  0.84610246234E+02 -0.97343695718E+02  0.34873864996E+03  0.39227329101E+03  0.12500000000E+03 0.  0.
</event>
<event>
 5    0  0.5648525E-005  0.2511891E+03  0.7546771E-02  0.1112556E+00
         21   -1    0    0  502  501  0.00000000000E+00  0.00000000000E+00  0.12077582912E+03  0.12077582912E+03  0.00000000000E+00 0. -1.
         21   -1    0    0  501  502 -0.00000000000E+00 -0.00000000000E+00 -0.52242194961E+03  0.52242194961E+03  0.00000000000E+00 0. -1.
         25    1    1    2    0    0 -0.70119288429E+02 -0.71191502627E+02 -0.26175116689E+03  0.30679572687E+03  0.12500000000E+03 0.  0.
         25    1    1    2    0    0 -0.26338847698E+02 -0.95029061966E+01 -0.68398176348E+02  0.14521484308E+03  0.12500000000E+03 0.  0.
         25    1    1    2    0    0  0.96458136127E+02  0.80694408824E+02 -0.71496777256E+02  0.19118720877E+03  0.12500000000E+03 0.  0.
</event>
<event>
 5    0  0.5648525E-005  0.3672371E+03  0.7546771E-02  0.1055754E+00
         21   -1    0    0  502  501  0.00000000000E+00  0.00000000000E+00  0.71545256453E+03  0.71545256453E+03  0.00000000000E+00 0. -1.
         21   -1    0    0  501  502 -0.00000000000E+00 -0.00000000000E+00 -0.18850043430E+03  0.18850043430E+03  0.00000000000E+00 0. -1.
         25    1    1    2    0    0  0.13606606655E+03  0.76528348496E+02  0.35071516631E+03  0.40372848608E+03  0.12500000000E+03 0.  0.
         25    1    1    2    0    0 -0.21713873713E+03 -0.15889425582E+03  0.94442401917E+02  0.31135346951E+03  0.12500000000E+03 0.  0.
         25    1    1    2    0    0  0.81072670577E+02  0.82365907329E+02  0.81794561995E+02  0.18887104325E+03  0.12500000000E+03 0.  0.
</event>
<event>
 5    0  0.5648525E-005  0.3413892E+03  0.7546771E-02  0.1066206E+00
         21   -1    0    0  502  501  0.00000000000E+00  0.00000000000E+00  0.25417175749E+03  0.25417175749E+03  0.00000000000E+00 0.  1.
         21   -1    0    0  501  502 -0.00000000000E+00 -0.00000000000E+00 -0.45853474995E+03  0.45853474995E+03  0.00000000000E+00 0.  1.
         25    1    1    2    0    0  0.26403771051E+02  0.36169666169E+02  0.76461922621E+02  0.15322150465E+03  0.12500000000E+03 0.  0.
         25    1    1    2    0    0 -0.10005228508E+03 -0.18572590372E+03 -0.24762077124E+03  0.34849048396E+03  0.12500000000E+03 0.  0.
         25    1    1    2    0    0  0.73648514029E+02  0.14955623755E+03 -0.33204143847E+02  0.21099451883E+03  0.12500000000E+03 0.  0.
</event>
<event>
 5    0  0.5648525E-005  0.4468781E+03  0.7546771E-02  0.1028657E+00
         21   -1    0    0  502  501  0.00000000000E+00  0.00000000000E+00  0.44826454442E+03  0.44826454442E+03  0.00000000000E+00 0.  1.
         21   -1    0    0  501  502 -0.00000000000E+00 -0.00000000000E+00 -0.44549590634E+03  0.44549590634E+03  0.00000000000E+00 0.  1.
         25    1    1    2    0    0 -0.86619320914E+02 -0.27842675038E+03 -0.16830083626E+03  0.35913024597E+03  0.12500000000E+03 0.  0.
         25    1    1    2    0    0 -0.10915343693E+03  0.14592613213E+03  0.14855148443E+03  0.26627326632E+03  0.12500000000E+03 0.  0.
         25    1    1    2    0    0  0.19577275785E+03  0.13250061826E+03  0.22517989912E+02  0.26835693847E+03  0.12500000000E+03 0.  0.
</event>
<event>
 5    0  0.5648525E-005  0.2626270E+03  0.7546771E-02  0.1105575E+00
         21   -1    0    0  502  501  0.00000000000E+00  0.00000000000E+00  0.24899326890E+03  0.24899326890E+03  0.00000000000E+00 0. -1.
         21   -1    0    0  501  502 -0.00000000000E+00 -0.00000000000E+00 -0.27700727170E+03  0.27700727170E+03  0.00000000000E+00 0. -1.
         25    1    1    2    0    0  0.17488113673E+02  0.20920698198E+01 -0.64312974490E+02  0.14167346104E+03  0.12500000000E+03 0.  0.
         25    1    1    2    0    0  0.42917271662E+02 -0.94773816864E+02 -0.79645099477E+02  0.18108647227E+03  0.12500000000E+03 0.  0.
         25    1    1    2    0    0 -0.60405385334E+02  0.92681747044E+02  0.11594407116E+03  0.20324060729E+03  0.12500000000E+03 0.  0.
</event>
<event>
 5    0  0.5648525E-005  0.3093771E+03  0.7546771E-02  0.1080645E+00
         21   -1    0    0  502  501  0.00000000000E+00  0.00000000000E+00  0.56206460461E+03  0.56206460461E+03  0.00000000000E+00 0.  1.
         21   -1    0    0  501  502 -0.00000000000E+00 -0.00000000000E+00 -0.17029039291E+03  0.17029039291E+03  0.00000000000E+00 0.  1.
         25    1    1    2    0    0 -0.19409014683E+03 -0.36132001100E+02  0.24982621823E+03  0.34207403572E+03  0.12500000000E+03 0.  0.
         25    1    1    2    0    0  0.92785660927E+02  0.10353329696E+03  0.52222372950E+02  0.19411465347E+03  0.12500000000E+03 0.  0.
         25    1    1    2    0    0  0.10130448590E+03 -0.67401295864E+02  0.89725620521E+02  0.19616630834E+03  0.12500000000E+03 0.  0.
</event>
<event>
 5    0  0.5648525E-005  0.3672257E+03  0.7546771E-02  0.1055759E+00
         21   -1    0    0  502  501  0.00000000000E+00  0.00000000000E+00  0.26110519550E+04  0.26110519550E+04  0.00000000000E+00 0. -1.
         21   -1    0    0  501  502 -0.00000000000E+00 -0.00000000000E+00 -0.51647653480E+02  0.51647653480E+02  0.00000000000E+00 0. -1.
         25    1    1    2    0    0  0.59559030903E+02 -0.16413925112E+03  0.41878174397E+03  0.47062949441E+03  0.12500000000E+03 0.  0.
         25    1    1    2    0    0 -0.12796931437E+03 -0.74496203927E+02  0.92446275279E+03  0.94455397469E+03  0.12500000000E+03 0.  0.
         25    1    1    2    0    0  0.68410283472E+02  0.23863545505E+03  0.12161598048E+04  0.12475161394E+04  0.12500000000E+03 0.  0.
</event>
<event>
 5    0  0.5648525E-005  0.2774780E+03  0.7546771E-02  0.1097074E+00
         21   -1    0    0  502  501  0.00000000000E+00  0.00000000000E+00  0.22659642661E+03  0.22659642661E+03  0.00000000000E+00 0. -1.
         21   -1    0    0  501  502 -0.00000000000E+00 -0.00000000000E+00 -0.33978481480E+03  0.33978481480E+03  0.00000000000E+00 0. -1.
         25    1    1    2    0    0 -0.11340681499E+03  0.67097233284E+02 -0.89144140748E+02  0.20232355827E+03  0.12500000000E+03 0.  0.
         25    1    1    2    0    0  0.16102106684E+03 -0.31175716290E+02 -0.70562395054E+02  0.21795357498E+03  0.12500000000E+03 0.  0.
         25    1    1    2    0    0 -0.47614251846E+02 -0.35921516993E+02  0.46518147612E+02  0.14610410815E+03  0.12500000000E+03 0.  0.
</event>
<event>
 5    0  0.5648525E-005  0.4417455E+03  0.7546771E-02  0.1030213E+00
         21   -1    0    0  502  501  0.00000000000E+00  0.00000000000E+00  0.78271503780E+03  0.78271503780E+03  0.00000000000E+00 0. -1.
         21   -1    0    0  501  502 -0.00000000000E+00 -0.00000000000E+00 -0.24931051692E+03  0.24931051692E+03  0.00000000000E+00 0. -1.
         25    1    1    2    0    0 -0.52890572052E+02  0.14031422380E+03  0.88017836088E+02  0.21414395504E+03  0.12500000000E+03 0.  0.
         25    1    1    2    0    0  0.15941558002E+03 -0.92512606520E+02  0.56623040434E+03  0.60845195400E+03  0.12500000000E+03 0.  0.
         25    1    1    2    0    0 -0.10652500797E+03 -0.47801617276E+02 -0.12084371955E+03  0.20942964568E+03  0.12500000000E+03 0.  0.
</event>
<event>
 5    0  0.5648525E-005  0.2500012E+03  0.7546771E-02  0.1113304E+00
         21   -1    0    0  502  501  0.00000000000E+00  0.00000000000E+00  0.37634294688E+03  0.37634294688E+03  0.00000000000E+00 0.  1.
         21   -1    0    0  501  502 -0.00000000000E+00 -0.00000000000E+00 -0.16607352271E+03  0.16607352271E+03  0.00000000000E+00 0.  1.
         25    1    1    2    0    0 -0.29743464841E+02 -0.66886696853E+01  0.66673555340E+02  0.14491299108E+03  0.12500000000E+03 0.  0.
         25    1    1    2    0    0 -0.43084124247E+02 -0.14433384122E+02 -0.60768511016E+02  0.14622713931E+03  0.12500000000E+03 0.  0.
         25    1    1    2    0    0  0.72827589088E+02  0.21122053807E+02  0.20436437985E+03  0.25127633920E+03  0.12500000000E+03 0.  0.
</event>
<event>
 5    0  0.5648525E-005  0.3204434E+03  0.7546771E-02  0.1075445E+00
         21   -1    0    0  502  501  0.00000000000E+00  0.00000000000E+00  0.13697817302E+04  0.13697817302E+04  0.00000000000E+00 0. -1.
         21   -1    0    0  501  502 -0.00000000000E+00 -0.00000000000E+00 -0.74963729551E+02  0.74963729551E+02  0.00000000000E+00 0. -1.
         25    1    1    2    0    0 -0.71917970457E+02 -0.40538548399E+02  0.27921887460E+03  0.31686550509E+03  0.12500000000E+03 0.  0.
         25    1    1    2    0    0  0.23798024343E+03  0.24857338976E+02  0.44597833078E+03  0.52131962853E+03  0.12500000000E+03 0.  0.
         25    1    1    2    0    0 -0.16606227298E+03  0.15681209423E+02  0.56962079523E+03  0.60656032610E+03  0.12500000000E+03 0.  0.
</event>
<event>
 5    0  0.5648525E-005  0.2314409E+03  0.7546771E-02  0.1125630E+00
         21   -1    0    0  502  501  0.00000000000E+00  0.00000000000E+00  0.94512418973E+02  0.94512418973E+02  0.00000000000E+00 0.  1.
         21   -1    0    0  501  502 -0.00000000000E+00 -0.00000000000E+00 -0.56674964786E+03  0.56674964786E+03  0.00000000000E+00 0.  1.
         25    1    1    2    0    0  0.36724936739E+02 -0.57517283128E+01 -0.24635860373E+03  0.27874605825E+03  0.12500000000E+03 0.  0.
         25    1    1    2    0    0  0.67334462893E+02  0.82720556204E+00 -0.13606647373E+03  0.19665629773E+03  0.12500000000E+03 0.  0.
         25    1    1    2    0    0 -0.10405939963E+03  0.49245227507E+01 -0.89812151423E+02  0.18585971086E+03  0.12500000000E+03 0.  0.
</event>
<event>
 5    0  0.5648525E-005  0.4029650E+03  0.7546771E-02  0.1042758E+00
         21   -1    0    0  502  501  0.00000000000E+00  0.00000000000E+00  0.19279362218E+03  0.19279362218E+03  0.00000000000E+00 0.  1.
         21   -1    0    0  501  502 -0.00000000000E+00 -0.00000000000E+00 -0.84225172557E+03  0.84225172557E+03  0.00000000000E+00 0.  1.
         25    1    1    2    0    0  0.37694993395E+02  0.30727640769E+03 -0.42818072536E+03  0.54295804333E+03  0.12500000000E+03 0.  0.
         25    1    1    2    0    0  0.56888658000E+02 -0.18946343985E+03 -0.69455897574E+02  0.24409390848E+03  0.12500000000E+03 0.  0.
         25    1    1    2    0    0 -0.94583651394E+02 -0.11781296784E+03 -0.15182148046E+03  0.24799339594E+03  0.12500000000E+03 0.  0.
</event>
<event>
 5    0  0.7311326E-005  0.2876727E+03  0.7546771E-02  0.1091571E+00
         21   -1    0    0  502  501  0.00000000000E+00  0.00000000000E+00  0.43242752086E+03  0.43242752086E+03  0.00000000000E+00 0.  1.
         21   -1    0    0  501  502 -0.00000000000E+00 -0.00000000000E+00 -0.19137450072E+03  0.19137450072E+03  0.00000000000E+00 0.  1.
         25    1    1    2    0    0 -0.42476663149E+02 -0.19854998910E+02  0.17866144630E+03  0.22303228531E+03  0.12500000000E+03 0.  0.
         25    1    1    2    0    0  0.16255121316E+03  0.29543213112E+02 -0.20896889890E+02  0.20822434619E+03  0.12500000000E+03 0.  0.
         25    1    1    2    0    0 -0.12007455001E+03 -0.96882142023E+01  0.83288463723E+02  0.19254539009E+03  0.12500000000E+03 0.  0.
</event>
<event>
 5    0  0.5677722E-005  0.4084154E+03  0.7546771E-02  0.1040904E+00
         21   -1    0    0  502  501  0.00000000000E+00  0.00000000000E+00  0.24618264082E+03  0.24618264082E+03  0.00000000000E+00 0. -1.
         21   -1    0    0  501  502 -0.00000000000E+00 -0.00000000000E+00 -0.67755860541E+03  0.67755860541E+03  0.00000000000E+00 0.  1.
         25    1    1    2    0    0  0.11825097745E+03  0.11751662523E+01  0.39560389399E+02  0.17656358371E+03  0.12500000000E+03 0.  0.
         25    1    1    2    0    0 -0.22493371008E+03 -0.13839036161E+03 -0.82432269907E+02  0.30359042350E+03  0.12500000000E+03 0.  0.
         25    1    1    2    0    0  0.10668273263E+03  0.13721519536E+03 -0.38850408408E+03  0.44358723902E+03  0.12500000000E+03 0.  0.
</event>
<event>
 5    0  0.6669761E-005  0.4551481E+03  0.7546771E-02  0.1026198E+00
         21   -1    0    0  502  501  0.00000000000E+00  0.00000000000E+00  0.27130253737E+03  0.27130253737E+03  0.00000000000E+00 0.  1.
         21   -1    0    0  501  502 -0.00000000000E+00 -0.00000000000E+00 -0.76357494669E+03  0.76357494669E+03  0.00000000000E+00 0.  1.
         25    1    1    2    0    0 -0.42519796026E+02  0.13327359154E+03  0.10822597939E+03  0.21658173023E+03  0.12500000000E+03 0.  0.
         25    1    1    2    0    0  0.24974599823E+03 -0.13461079083E+03 -0.28905009605E+03  0.42387272460E+03  0.12500000000E+03 0.  0.
         25    1    1    2    0    0 -0.20722620220E+03  0.13371992823E+01 -0.31144829266E+03  0.39442302922E+03  0.12500000000E+03 0.  0.
</event>
<event>
 5    0  0.5648525E-005  0.3309235E+03  0.7546771E-02  0.1070729E+00
         21   -1    0    0  502  501  0.00000000000E+00  0.00000000000E+00  0.11849070310E+03  0.11849070310E+03  0.00000000000E+00 0.  1.
         21   -1    0    0  501  502 -0.00000000000E+00 -0.00000000000E+00 -0.92421066148E+03  0.92421066148E+03  0.00000000000E+00 0.  1.
         25    1    1    2    0    0 -0.54265486698E+02  0.43510948169E+02 -0.30047927047E+03  0.33279233410E+03  0.12500000000E+03 0.  0.
         25    1    1    2    0    0  0.16907633532E+03 -0.37560071824E+02 -0.49576018516E+03  0.53981545675E+03  0.12500000000E+03 0.  0.
         25    1    1    2    0    0 -0.11481084862E+03 -0.59508763450E+01 -0.94805027610E+01  0.17009357373E+03  0.12500000000E+03 0.  0.
</event>
<event>
 5    0  0.5648525E-005  0.2471528E+03  0.7546771E-02  0.1115118E+00
         21   -1    0    0  502  501  0.00000000000E+00  0.00000000000E+00  0.38053479283E+03  0.38053479283E+03  0.00000000000E+00 0.  1.
         21   -1    0    0  501  502 -0.00000000000E+00 -0.00000000000E+00 -0.16052278264E+03  0.16052278264E+03  0.00000000000E+00 0.  1.
         25    1    1    2    0    0  0.75881927561E+02  0.17647389363E+02  0.33215103925E+02  0.15098920627E+03  0.12500000000E+03 0.  0.
         25    1    1    2    0    0 -0.86213217159E+02 -0.76351037943E+02  0.18548395802E+03  0.25157801671E+03  0.12500000000E+03 0.  0.
         25    1    1    2    0    0  0.10331289598E+02  0.58703648580E+02  0.13129482416E+01  0.13849035250E+03  0.12500000000E+03 0.  0.
</event>
<event>
 5    0  0.5648525E-005  0.3982789E+03  0.7546771E-02  0.1044377E+00
         21   -1    0    0  502  501  0.00000000000E+00  0.00000000000E+00  0.12621787686E+04  0.12621787686E+04  0.00000000000E+00 0.  1.
         21   -1    0    0  501  502 -0.00000000000E+00 -0.00000000000E+00 -0.12567640078E+03  0.12567640078E+03  0.00000000000E+00 0.  1.
         25    1    1    2    0    0 -0.12895247672E+03  0.25018239037E+03  0.59780742230E+03  0.67247206920E+03  0.12500000000E+03 0.  0.
         25    1    1    2    0    0  0.67564464323E+02 -0.19765158991E+03  0.12075458365E+03  0.27173107534E+03  0.12500000000E+03 0.  0.
         25    1    1    2    0    0  0.61388012394E+02 -0.52530800465E+02  0.41794036191E+03  0.44365202488E+03  0.12500000000E+03 0.  0.
</event>
<event>
 5    0  0.5648525E-005  0.2197733E+03  0.7546771E-02  0.1134052E+00
         21   -1    0    0  502  501  0.00000000000E+00  0.00000000000E+00  0.74316029472E+03  0.74316029472E+03  0.00000000000E+00 0. -1.
         21   -1    0    0  501  502 -0.00000000000E+00 -0.00000000000E+00 -0.64993109686E+02  0.64993109686E+02  0.00000000000E+00 0. -1.
         25    1    1    2    0    0  0.43949369634E+01 -0.25609042946E+02  0.20685128561E+03  0.24307939631E+03  0.12500000000E+03 0.  0.
         25    1    1    2    0    0  0.85700758801E+02 -0.12066358631E+02  0.25396746996E+03  0.29599779200E+03  0.12500000000E+03 0.  0.
         25    1    1    2    0    0 -0.90095695764E+02  0.37675401577E+02  0.21734842946E+03  0.26907621610E+03  0.12500000000E+03 0.  0.
</event>
<event>
 5    0  0.5648525E-005  0.3724018E+03  0.7546771E-02  0.1053778E+00
         21   -1    0    0  502  501  0.00000000000E+00  0.00000000000E+00  0.33582361986E+03  0.33582361986E+03  0.00000000000E+00 0. -1.
         21   -1    0    0  501  502 -0.00000000000E+00 -0.00000000000E+00 -0.41296413683E+03  0.41296413683E+03  0.00000000000E+00 0. -1.
         25    1    1    2    0    0  0.11059341486E+03 -0.10444131860E+03  0.45993084388E+01  0.19693919387E+03  0.12500000000E+03 0.  0.
         25    1    1    2    0    0 -0.13302795040E+03 -0.26842637149E+02  0.16318334575E+03  0.24631436639E+03  0.12500000000E+03 0.  0.
         25    1    1    2    0    0  0.22434535542E+02  0.13128395575E+03 -0.24492317116E+03  0.30553419644E+03  0.12500000000E+03 0.  0.
</event>
<event>
 5    0  0.5648525E-005  0.3106940E+03  0.7546771E-02  0.1080014E+00
         21   -1    0    0  502  501  0.00000000000E+00  0.00000000000E+00  0.16481554509E+03  0.16481554509E+03  0.00000000000E+00 0. -1.
         21   -1    0    0  501  502 -0.00000000000E+00 -0.00000000000E+00 -0.58568979261E+03  0.58568979261E+03  0.00000000000E+00 0. -1.
         25    1    1    2    0    0 -0.36641960789E+02  0.99755850680E+02 -0.38255562481E+02  0.16847062384E+03  0.12500000000E+03 0.  0.
         25    1    1    2    0    0 -0.10007284990E+03 -0.11093224854E+03 -0.49943243036E+02  0.20109665979E+03  0.12500000000E+03 0.  0.
         25    1    1    2    0    0  0.13671481069E+03  0.11176397860E+02 -0.33267544200E+03  0.38093805407E+03  0.12500000000E+03 0.  0.
</event>
<event>
 5    0  0.5648525E-005  0.2355506E+03  0.7546771E-02  0.1122793E+00
         21   -1    0    0  502  501  0.00000000000E+00  0.00000000000E+00  0.21084648263E+02  0.21084648263E+02  0.00000000000E+00 0. -1.
         21   -1    0    0  501  502 -0.00000000000E+00 -0.00000000000E+00 -0.26314914422E+04  0.26314914422E+04  0.00000000000E+00 0. -1.
         25    1    1    2    0    0  0.26694028158E+02 -0.25839084906E+02 -0.68409947018E+03  0.69641748582E+03  0.12500000000E+03 0.  0.
         25    1    1    2    0    0 -0.21625833806E+02  0.12492848423E+03 -0.88992606196E+03  0.90756167758E+03  0.12500000000E+03 0.  0.
         25    1    1    2    0    0 -0.50681943518E+01 -0.99089399321E+02 -0.10363812618E+04  0.10485969271E+04  0.12500000000E+03 0.  0.
</event>
<event>
 5    0  0.5648525E-005  0.3438586E+03  0.7546771E-02  0.1065164E+00
         21   -1    0    0  502  501  0.00000000000E+00  0.00000000000E+00  0.28542327511E+04  0.28542327511E+04  0.00000000000E+00 0.  1.
         21   -1    0    0  501  502 -0.00000000000E+00 -0.00000000000E+00 -0.41425742253E+02  0.41425742253E+02  0.00000000000E+00 0.  1.
         25    1    1    2    0    0  0.57857370309E+02  0.14081541046E+03  0.54078164936E+03  0.57553996161E+03  0.12500000000E+03 0.  0.
         25    1    1    2    0    0  0.12409629794E+02  0.49456267010E+01  0.18160558302E+04  0.18204016690E+04  0.12500000000E+03 0.  0.
         25    1    1    2    0    0 -0.70267000103E+02 -0.14576103716E+03  0.45596952922E+03  0.49971686267E+03  0.12500000000E+03 0.  0.
</event>
<event>
 5    0  0.5648525E-005  0.2682018E+03  0.7546771E-02  0.1102313E+00
         21   -1    0    0  502  501  0.00000000000E+00  0.00000000000E+00  0.14244320218E+03  0.14244320218E+03  0.00000000000E+00 0.  1.
         21   -1    0    0  501  502 -0.00000000000E+00 -0.00000000000E+00 -0.50498851550E+03  0.50498851550E+03  0.00000000000E+00 0.  1.
         25    1    1    2    0    0 -0.23232431028E+01 -0.11767142531E+03  0.65300295521E+01  0.17181269767E+03  0.12500000000E+03 0.  0.
         25    1    1    2    0    0 -0.54266327190E+02  0.45406319816E+02 -0.15561404348E+03  0.21177180803E+03  0.12500000000E+03 0.  0.
         25    1    1    2    0    0  0.56589570293E+02  0.72265105495E+02 -0.21346129939E+03  0.26384721199E+03  0.12500000000E+03 0.  0.
</event>
<event>
 5    0  0.5648525E-005  0.2987907E+03  0.7546771E-02  0.1085847E+00
         21   -1    0    0  502  501  0.00000000000E+00  0.00000000000E+00  0.23611909573E+03  0.23611909573E+03  0.00000000000E+00 0.  1.
         21   -1    0    0  501  502 -0.00000000000E+00 -0.00000000000E+00 -0.37809676621E+03  0.37809676621E+03  0.00000000000E+00 0.  1.
         25    1    1    2    0    0  0.59668251257E+02  0.82349338188E+02 -0.23797238095E+02  0.16288960141E+03  0.12500000000E+03 0.  0.
         25    1    1    2    0    0 -0.11246629985E+03  0.10217091233E+03 -0.73851083840E+01  0.19689363564E+03  0.12500000000E+03 0.  0.
         25    1    1    2    0    0  0.52798048593E+02 -0.18452025052E+03 -0.11079532401E+03  0.25443262489E+03  0.12500000000E+03 0.  0.
</event>
<event>
 5    0  0.5648525E-005  0.3510641E+03  0.7546771E-02  0.1062179E+00
         21   -1    0    0  502  501  0.00000000000E+00  0.00000000000E+00  0.75491584918E+03  0.75491584918E+03  0.00000000000E+00 0. -1.
         21   -1    0    0  501  502 -0.00000000000E+00 -0.00000000000E+00 -0.16325789452E+03  0.16325789452E+03  0.00000000000E+00 0. -1.
         25    1    1    2    0    0 -0.43981153630E+02 -0.13184908152E+02  0.60764181511E+03  0.62206250421E+03  0.12500000000E+03 0.  0.
         25    1    1    2    0    0  0.94310158386E+02  0.26170204431E+02 -0.23689282916E+02  0.16051625369E+03  0.12500000000E+03 0.  0.
         25    1    1    2    0    0 -0.50329004756E+02 -0.12985296279E+02  0.77054224686E+01  0.13559498580E+03  0.12500000000E+03 0.  0.
</event>
<event>
 5    0  0.5648525E-005  0.2635963E+03  0.7546771E-02  0.1105002E+00
         21   -1    0    0  502  501  0.00000000000E+00  0.00000000000E+00  0.88097897252E+03  0.88097897252E+03  0.00000000000E+00 0. -1.
         21   -1    0    0  501  502 -0.00000000000E+00 -0.00000000000E+00 -0.78870223582E+02  0.78870223582E+02  0.00000000000E+00 0. -1.
         25    1    1    2    0    0 -0.85626862102E+02  0.12559852750E+03  0.18790463963E+03  0.27210311137E+03  0.12500000000E+03 0.  0.
         25    1    1    2    0    0  0.29672877836E+02 -0.14440935193E+02  0.20807679596E+03  0.24496933135E+03  0.12500000000E+03 0.  0.
         25    1    1    2    0    0  0.55953984266E+02 -0.11115759230E+03  0.40612731335E+03  0.44277675338E+03  0.12500000000E+03 0.  0.
</event>
<event>
 5    0  0.5648525E-005  0.4763216E+03  0.7546771E-02  0.1020151E+00
         21   -1    0    0  502  501  0.00000000000E+00  0.00000000000E+00  0.86992819360E+03  0.86992819360E+03  0.00000000000E+00 0. -1.
         21   -1    0    0  501  502 -0.00000000000E+00 -0.00000000000E+00 -0.26080569719E+03  0.26080569719E+03  0.00000000000E+00 0. -1.
         25    1    1    2    0    0  0.12339839831E+02 -0.19797356739E+03 -0.27593300074E+02  0.23607667238E+03  0.12500000000E+03 0.  0.
         25    1    1    2    0    0 -0.11175995145E+03  0.35993918624E+03  0.45192370697E+03  0.60158668658E+03  0.12500000000E+03 0.  0.
         25    1    1    2    0    0  0.99420111624E+02 -0.16196561885E+03  0.18479208951E+03  0.29307053184E+03  0.12500000000E+03 0.  0.
</event>
<event>
 5    0  0.5648525E-005  0.3940466E+03  0.7546771E-02  0.1045861E+00
         21   -1    0    0  502  501  0.00000000000E+00  0.00000000000E+00  0.84679863819E+03  0.84679863819E+03  0.00000000000E+00 0.  1.
         21   -1    0    0  501  502 -0.00000000000E+00 -0.00000000000E+00 -0.18336444409E+03  0.18336444409E+03  0.00000000000E+00 0.  1.
         25    1    1    2    0    0 -0.89453907211E+02 -0.51797748675E+02 -0.46556262046E+02  0.16875275944E+03  0.12500000000E+03 0.  0.
         25    1    1    2    0    0  0.18403904488E+03 -0.85803254641E+02  0.54695810846E+03  0.59667473631E+03  0.12500000000E+03 0.  0.
         25    1    1    2    0    0 -0.94585137669E+02  0.13760100332E+03  0.16303234769E+03  0.26473558653E+03  0.12500000000E+03 0.  0.
</event>
<event>
 5    0  0.5648525E-005  0.2390775E+03  0.7546771E-02  0.1120409E+00
         21   -1    0    0  502  501  0.00000000000E+00  0.00000000000E+00  0.68633407272E+03  0.68633407272E+03  0.00000000000E+00 0.  1.
         21   -1    0    0  501  502 -0.00000000000E+00 -0.00000000000E+00 -0.83280241308E+02  0.83280241308E+02  0.00000000000E+00 0.  1.
         25    1    1    2    0    0 -0.32832131509E+02 -0.12517302809E+03  0.23076101669E+03  0.29261217104E+03  0.12500000000E+03 0.  0.
         25    1    1    2    0    0 -0.16006094650E+02  0.27300640707E+02  0.19759088728E+03  0.23594210897E+03  0.12500000000E+03 0.  0.
         25    1    1    2    0    0  0.48838226159E+02  0.97872387380E+02  0.17470192744E+03  0.24106003401E+03  0.12500000000E+03 0.  0.
</event>
<event>
 5    0  0.5648525E-005  0.3981134E+03  0.7546771E-02  0.1044435E+00
         21   -1    0    0  502  501  0.00000000000E+00  0.00000000000E+00  0.18087614444E+04  0.18087614444E+04  0.00000000000E+00 0.  1.
         21   -1    0    0  501  502 -0.00000000000E+00 -0.00000000000E+00 -0.87625859918E+02  0.87625859918E+02  0.00000000000E+00 0.  1.
         25    1    1    2    0    0 -0.15235856467E+03  0.11631261872E+03  0.14590664732E+03  0.27139548123E+03  0.12500000000E+03 0.  0.
         25    1    1    2    0    0  0.74160925800E+02 -0.26937437772E+02  0.12325451842E+04  0.12413775009E+04  0.12500000000E+03 0.  0.
         25    1    1    2    0    0  0.78197638866E+02 -0.89375180947E+02  0.34268375290E+03  0.38361432219E+03  0.12500000000E+03 0.  0.
</event>
<event>
 5    0  0.5648525E-005  0.2575945E+03  0.7546771E-02  0.1108597E+00
         21   -1    0    0  502  501  0.00000000000E+00  0.00000000000E+00  0.12237097342E+03  0.12237097342E+03  0.00000000000E+00 0.  1.
         21   -1    0    0  501  502 -0.00000000000E+00 -0.00000000000E+00 -0.54224400418E+03  0.54224400418E+03  0.00000000000E+00 0.  1.
         25    1    1    2    0    0  0.74868182422E+02  0.34140478005E+02 -0.20833127770E+03  0.25651069811E+03  0.12500000000E+03 0.  0.
         25    1    1    2    0    0 -0.27480964361E+02 -0.25341114236E+02 -0.23812233672E+03  0.27152278489E+03  0.12500000000E+03 0.  0.
         25    1    1    2    0    0 -0.47387218061E+02 -0.87993637690E+01  0.26580583656E+02  0.13658149460E+03  0.12500000000E+03 0.  0.
</event>
<event>
 5    0  0.5648525E-005  0.2803635E+03  0.7546771E-02  0.1095491E+00
         21   -1    0    0  502  501  0.00000000000E+00  0.00000000000E+00  0.14548294165E+04  0.14548294165E+04  0.00000000000E+00 0.  1.
         21   -1    0    0  501  502 -0.00000000000E+00 -0.00000000000E+00 -0.54029485214E+02  0.54029485214E+02  0.00000000000E+00 0.  1.
         25    1    1    2    0    0  0.68733974813E+02 -0.12566255870E+03  0.59055155006E+03  0.62039630175E+03  0.12500000000E+03 0.  0.
         25    1    1    2    0    0 -0.11341269300E+03 -0.15866389613E+02  0.40971907703E+03  0.44340602537E+03  0.12500000000E+03 0.  0.
         25    1    1    2    0    0  0.44678718187E+02  0.14152894831E+03  0.40052930425E+03  0.44505657464E+03  0.12500000000E+03 0.  0.
</event>
<event>
 5    0  0.5648525E-005  0.3947182E+03  0.7546771E-02  0.1045624E+00
         21   -1    0    0  502  501  0.00000000000E+00  0.00000000000E+00  0.23150424092E+03  0.23150424092E+03  0.00000000000E+00 0.  1.
         21   -1    0    0  501  502 -0.00000000000E+00 -0.00000000000E+00 -0.67300027987E+03  0.67300027987E+03  0.00000000000E+00 0.  1.
         25    1    1    2    0    0  0.14767592645E+03 -0.12737498732E+03 -0.18228105446E+03  0.29476083434E+03  0.12500000000E+03 0.  0.
         25    1    1    2    0    0 -0.24894214529E+03 -0.72506361811E+02 -0.18678927835E+03  0.34313932842E+03  0.12500000000E+03 0.  0.
         25    1    1    2    0    0  0.10126621884E+03  0.19988134913E+03 -0.72425706146E+02  0.26660435803E+03  0.12500000000E+03 0.  0.
</event>
<event>
 5    0  0.5648525E-005  0.2758521E+03  0.7546771E-02  0.1097976E+00
         21   -1    0    0  502  501  0.00000000000E+00  0.00000000000E+00  0.24573426299E+03  0.24573426299E+03  0.00000000000E+00 0.  1.
         21   -1    0    0  501  502 -0.00000000000E+00 -0.00000000000E+00 -0.30966114621E+03  0.30966114621E+03  0.00000000000E+00 0.  1.
         25    1    1    2    0    0 -0.12212892824E+03  0.10968443207E+03  0.11356933340E+02  0.20664009699E+03  0.12500000000E+03 0.  0.
         25    1    1    2    0    0  0.12093156124E+03 -0.69053102092E+02 -0.10417647243E+03  0.21417401995E+03  0.12500000000E+03 0.  0.
         25    1    1    2    0    0  0.11973669935E+01 -0.40631329975E+02  0.28892655877E+02  0.13458129226E+03  0.12500000000E+03 0.  0.
</event>
<event>
 5    0  0.5648525E-005  0.3259614E+03  0.7546771E-02  0.1072938E+00
         21   -1    0    0  502  501  0.00000000000E+00  0.00000000000E+00  0.49167860348E+03  0.49167860348E+03  0.00000000000E+00 0.  1.
         21   -1    0    0  501  502 -0.00000000000E+00 -0.00000000000E+00 -0.21609815969E+03  0.21609815969E+03  0.00000000000E+00 0.  1.
         25    1    1    2    0    0  0.62837196569E+02 -0.74750782395E+02  0.50525715315E+02  0.16647534547E+03  0.12500000000E+03 0.  0.
         25    1    1    2    0    0  0.12176145397E+03 -0.39245510482E+02 -0.32837842129E+02  0.18184989865E+03  0.12500000000E+03 0.  0.
         25    1    1    2    0    0 -0.18459865054E+03  0.11399629288E+03  0.25789257061E+03  0.35945151905E+03  0.12500000000E+03 0.  0.
</event>
<event>
 5    0  0.5648525E-005  0.4687824E+03  0.7546771E-02  0.1022264E+00
         21   -1    0    0  502  501  0.00000000000E+00  0.00000000000E+00  0.30013744592E+03  0.30013744592E+03  0.00000000000E+00 0.  1.
         21   -1    0    0  501  502 -0.00000000000E+00 -0.00000000000E+00 -0.73218782670E+03  0.73218782670E+03  0.00000000000E+00 0.  1.
         25    1    1    2    0    0 -0.15174653393E+03 -0.36645760623E+02  0.70759525920E-02  0.19998730555E+03  0.12500000000E+03 0.  0.
         25    1    1    2    0    0 -0.15310300856E+03  0.47384091827E+02  0.84040936202E+02  0.21994013355E+03  0.12500000000E+03 0.  0.
         25    1    1    2    0    0  0.30484954249E+03 -0.10738331203E+02 -0.51609839293E+03  0.61239783352E+03  0.12500000000E+03 0.  0.
</event>
<event>
 5    0  0.5648525E-005  0.3026321E+03  0.7546771E-02  0.1083932E+00
         21   -1    0    0  502  501  0.00000000000E+00  0.00000000000E+00  0.16442370198E+04  0.16442370198E+04  0.00000000000E+00 0.  1.
         21   -1    0    0  501  502 -0.00000000000E+00 -0.00000000000E+00 -0.55701320361E+02  0.55701320361E+02  0.00000000000E+00 0.  1.
         25    1    1    2    0    0  0.26313844360E+02  0.13849064706E+03  0.19753722415E+03  0.27297991254E+03  0.12500000000E+03 0.  0.
         25    1    1    2    0    0  0.33255216417E+02 -0.28032278644E+02  0.76579316630E+03  0.77714599119E+03  0.12500000000E+03 0.  0.
         25    1    1    2    0    0 -0.59569060777E+02 -0.11045836841E+03  0.62520530895E+03  0.64981243639E+03  0.12500000000E+03 0.  0.
</event>
<event>
 5    0  0.6409562E-005  0.3330259E+03  0.7546771E-02  0.1069806E+00
         21   -1    0    0  502  501  0.00000000000E+00  0.00000000000E+00  0.36509081309E+03  0.36509081309E+03  0.00000000000E+00 0. -1.
         21   -1    0    0  501  502 -0.00000000000E+00 -0.00000000000E+00 -0.30377721180E+03  0.30377721180E+03  0.00000000000E+00 0. -1.
         25    1    1    2    0    0 -0.11272510799E+03 -0.10499881744E+03  0.72838320137E+02  0.21133414895E+03  0.12500000000E+03 0.  0.
         25    1    1    2    0    0  0.13934226210E+03  0.18901155009E+03  0.81865630322E+02  0.27833184062E+03  0.12500000000E+03 0.  0.
         25    1    1    2    0    0 -0.26617154119E+02 -0.84012732654E+02 -0.93390349172E+02  0.17920203531E+03  0.12500000000E+03 0.  0.
</event>
<event>
 5    0  0.5648525E-005  0.3067039E+03  0.7546771E-02  0.1081937E+00
         21   -1    0    0  502  501  0.00000000000E+00  0.00000000000E+00  0.51092762882E+02  0.51092762882E+02  0.00000000000E+00 0. -1.
         21   -1    0    0  501  502 -0.00000000000E+00 -0.00000000000E+00 -0.18411071940E+04  0.18411071940E+04  0.00000000000E+00 0. -1.
         25    1    1    2    0    0  0.36935339070E+02  0.16062083352E+02 -0.11000110228E+03  0.17131098125E+03  0.12500000000E+03 0.  0.
         25    1    1    2    0    0  0.46140329774E+02  0.11312750525E+03 -0.79733007426E+03  0.81626405642E+03  0.12500000000E+03 0.  0.
         25    1    1    2    0    0 -0.83075668844E+02 -0.12918958860E+03 -0.88268325456E+03  0.90462491920E+03  0.12500000000E+03 0.  0.
</event>
<event>
 5    0  0.5648525E-005  0.3747794E+03  0.7546771E-02  0.1052880E+00
         21   -1    0    0  502  501  0.00000000000E+00  0.00000000000E+00  0.68222857825E+03  0.68222857825E+03  0.00000000000E+00 0. -1.
         21   -1    0    0  501  502 -0.00000000000E+00 -0.00000000000E+00 -0.20588347996E+03  0.20588347996E+03  0.00000000000E+00 0. -1.
         25    1    1    2    0    0  0.27536201282E+03  0.82461910661E+02  0.15128243617E+03  0.34804537105E+03  0.12500000000E+03 0.  0.
         25    1    1    2    0    0 -0.98996951781E+02 -0.33180731605E+02  0.26382540280E+03  0.31004870678E+03  0.12500000000E+03 0.  0.
         25    1    1    2    0    0 -0.17636506104E+03 -0.49281179056E+02  0.61237259309E+02  0.23001798037E+03  0.12500000000E+03 0.  0.
</event>
<event>
 5    0  0.5648525E-005  0.3696184E+03  0.7546771E-02  0.1054839E+00
         21   -1    0    0  502  501  0.00000000000E+00  0.00000000000E+00  0.11056961329E+03  0.11056961329E+03  0.00000000000E+00 0. -1.
         21   -1    0    0  501  502 -0.00000000000E+00 -0.00000000000E+00 -0.12355811943E+04  0.12355811943E+04  0.00000000000E+00 0. -1.
         25    1    1    2    0    0  0.12904589657E+02  0.32419951671E+02 -0.11012297670E+03  0.17020473465E+03  0.12500000000E+03 0.  0.
         25    1    1    2    0    0  0.84414916764E+02  0.18697645349E+03 -0.18546667094E+03  0.30349457716E+03  0.12500000000E+03 0.  0.
         25    1    1    2    0    0 -0.97319506421E+02 -0.21939640516E+03 -0.82942193335E+03  0.87245149575E+03  0.12500000000E+03 0.  0.
</event>
<event>
 5    0  0.5648525E-005  0.2622438E+03  0.7546771E-02  0.1105803E+00
         21   -1    0    0  502  501  0.00000000000E+00  0.00000000000E+00  0.55951880303E+03  0.55951880303E+03  0.00000000000E+00 0.  1.
         21   -1    0    0  501  502 -0.00000000000E+00 -0.00000000000E+00 -0.12291245152E+03  0.12291245152E+03  0.00000000000E+00 0.  1.
         25    1    1    2    0    0 -0.49919798920E+02 -0.52785627498E+02  0.11535182913E+03  0.18495770673E+03  0.12500000000E+03 0.  0.
         25    1    1    2    0    0  0.50555286281E+02 -0.77667441260E+02  0.35840248117E+02  0.15967965364E+03  0.12500000000E+03 0.  0.
         25    1    1    2    0    0 -0.63548736095E+00  0.13045306876E+03  0.28541427427E+03  0.33779389418E+03  0.12500000000E+03 0.  0.
</event>
<event>
 5    0  0.5648525E-005  0.2587543E+03  0.7546771E-02  0.1107894E+00
         21   -1    0    0  502  501  0.00000000000E+00  0.00000000000E+00  0.27131970266E+03  0.27131970266E+03  0.00000000000E+00 0.  1.
         21   -1    0    0  501  502 -0.00000000000E+00 -0.00000000000E+00 -0.24677079668E+03  0.24677079668E+03  0.00000000000E+00 0.  1.
         25    1    1    2    0    0 -0.56016508855E+02  0.78707109531E+02 -0.11432030145E+02  0.15839302279E+03  0.12500000000E+03 0.  0.
         25    1    1    2    0    0  0.81821198814E+02 -0.14088000749E+03 -0.21627734098E+02  0.20648158264E+03  0.12500000000E+03 0.  0.
         25    1    1    2    0    0 -0.25804689958E+02  0.62172897961E+02  0.57608670217E+02  0.15321589392E+03  0.12500000000E+03 0.  0.
</event>
<event>
 5    0  0.5648525E-005  0.2703764E+03  0.7546771E-02  0.1101064E+00
         21   -1    0    0  502  501  0.00000000000E+00  0.00000000000E+00  0.10761292170E+03  0.10761292170E+03  0.00000000000E+00 0.  1.
         21   -1    0    0  501  502 -0.00000000000E+00 -0.00000000000E+00 -0.67931795680E+03  0.67931795680E+03  0.00000000000E+00 0.  1.
         25    1    1    2    0    0  0.10767507625E+03  0.13741224138E+03 -0.19653468810E+03  0.29107890641E+03  0.12500000000E+03 0.  0.
         25    1    1    2    0    0 -0.27812193318E+02 -0.11604320518E+03 -0.17674506953E+03  0.24719094476E+03  0.12500000000E+03 0.  0.
         25    1    1    2    0    0 -0.79862882928E+02 -0.21369036200E+02 -0.19842527747E+03  0.24866102734E+03  0.12500000000E+03 0.  0.
</event>
<event>
 5    0  0.5730575E-005  0.2560157E+03  0.7546771E-02  0.1109561E+00
         21   -1    0    0  502  501  0.00000000000E+00  0.00000000000E+00  0.46766951216E+03  0.46766951216E+03  0.00000000000E+00 0. -1.
         21   -1    0    0  501  502 -0.00000000000E+00 -0.00000000000E+00 -0.14015037213E+03  0.14015037213E+03  0.00000000000E+00 0. -1.
         25    1    1    2    0    0 -0.19419697334E+01  0.29364514978E+02  0.94079179332E+02  0.15919151350E+03  0.12500000000E+03 0.  0.
         25    1    1    2    0    0 -0.27252829731E+01  0.10796497182E+03  0.20080986900E+03  0.26002589447E+03  0.12500000000E+03 0.  0.
         25    1    1    2    0    0  0.46672527065E+01 -0.13732948679E+03  0.32630091691E+02  0.18860247632E+03  0.12500000000E+03 0.  0.
</event>
<event>
 5    0  0.5648525E-005  0.2386629E+03  0.7546771E-02  0.1120687E+00
         21   -1    0    0  502  501  0.00000000000E+00  0.00000000000E+00  0.14482600048E+03  0.14482600048E+03  0.00000000000E+00 0. -1.
         21   -1    0    0  501  502 -0.00000000000E+00 -0.00000000000E+00 -0.39329942437E+03  0.39329942437E+03  0.00000000000E+00 0. -1.
         25    1    1    2    0    0 -0.83902101167E+01  0.21332201608E+02 -0.74379603314E+02  0.14725075158E+03  0.12500000000E+03 0.  0.
         25    1    1    2    0    0  0.74196911408E+02  0.63431044278E+02 -0.10880569808E+02  0.15897190268E+03  0.12500000000E+03 0.  0.
         25    1    1    2    0    0 -0.65806701292E+02 -0.84763245886E+02 -0.16321325077E+03  0.23190277060E+03  0.12500000000E+03 0.  0.
</event>
<event>
 5    0  0.5648525E-005  0.2841519E+03  0.7546771E-02  0.1093443E+00
         21   -1    0    0  502  501  0.00000000000E+00  0.00000000000E+00  0.82448457923E+02  0.82448457923E+02  0.00000000000E+00 0.  1.
         21   -1    0    0  501  502 -0.00000000000E+00 -0.00000000000E+00 -0.97930641913E+03  0.97930641913E+03  0.00000000000E+00 0.  1.
         25    1    1    2    0    0  0.11451164227E+03  0.58747948729E+01 -0.23654261529E+03  0.29107531376E+03  0.12500000000E+03 0.  0.
         25    1    1    2    0    0  0.77320382259E+02  0.16558601590E+02 -0.14879096405E+03  0.20980080978E+03  0.12500000000E+03 0.  0.
         25    1    1    2    0    0 -0.19183202452E+03 -0.22433396463E+02 -0.51152438187E+03  0.56087875352E+03  0.12500000000E+03 0.  0.
</event>
<event>
 5    0  0.5648525E-005  0.2411256E+03  0.7546771E-02  0.1119045E+00
         21   -1    0    0  502  501  0.00000000000E+00  0.00000000000E+00  0.29991769479E+02  0.29991769479E+02  0.00000000000E+00 0.  1.
         21   -1    0    0  501  502 -0.00000000000E+00 -0.00000000000E+00 -0.19385838869E+04  0.19385838869E+04  0.00000000000E+00 0.  1.
         25    1    1    2    0    0  0.10058089235E+03  0.47803663613E+02 -0.49107863791E+03  0.51883035259E+03  0.12500000000E+03 0.  0.
         25    1    1    2    0    0 -0.49088155448E+02  0.26707753323E+02 -0.46269795983E+03  0.48253223014E+03  0.12500000000E+03 0.  0.
         25    1    1    2    0    0 -0.51492736904E+02 -0.74511416936E+02 -0.95481551965E+03  0.96721307362E+03  0.12500000000E+03 0.  0.
</event>
<event>
 5    0  0.5648525E-005  0.2638801E+03  0.7546771E-02  0.1104834E+00
         21   -1    0    0  502  501  0.00000000000E+00  0.00000000000E+00  0.32389290569E+03  0.32389290569E+03  0.00000000000E+00 0.  1.
         21   -1    0    0  501  502 -0.00000000000E+00 -0.00000000000E+00 -0.21498689431E+03  0.21498689431E+03  0.00000000000E+00 0.  1.
         25    1    1    2    0    0  0.73933866335E+02 -0.91549807331E+02  0.94609474204E+02  0.19601922463E+03  0.12500000000E+03 0.  0.
         25    1    1    2    0    0 -0.58866385740E+02 -0.52779387436E+02 -0.16684363293E+02  0.14884314928E+03  0.12500000000E+03 0.  0.
         25    1    1    2    0    0 -0.15067480595E+02  0.14432919477E+03  0.30980900470E+02  0.19401742609E+03  0.12500000000E+03 0.  0.
</event>
<event>
 5    0  0.5648525E-005  0.3528506E+03  0.7546771E-02  0.1061451E+00
         21   -1    0    0  502  501  0.00000000000E+00  0.00000000000E+00  0.12957516872E+04  0.12957516872E+04  0.00000000000E+00 0.  1.
         21   -1    0    0  501  502 -0.00000000000E+00 -0.00000000000E+00 -0.96085954829E+02  0.96085954829E+02  0.00000000000E+00 0.  1.
         25    1    1    2    0    0  0.10908239003E+03 -0.18632939645E+02  0.10005027278E+03  0.19463096192E+03  0.12500000000E+03 0.  0.
         25    1    1    2    0    0  0.13713259322E+03 -0.33179063960E+02  0.36719899871E+03  0.41275453124E+03  0.12500000000E+03 0.  0.
         25    1    1    2    0    0 -0.24621498324E+03  0.51812003605E+02  0.73241646083E+03  0.78445214882E+03  0.12500000000E+03 0.  0.
</event>
<event>
 5    0  0.5648525E-005  0.2157587E+03  0.7546771E-02  0.1137085E+00
         21   -1    0    0  502  501  0.00000000000E+00  0.00000000000E+00  0.11765103796E+04  0.11765103796E+04  0.00000000000E+00 0.  1.
         21   -1    0    0  501  502 -0.00000000000E+00 -0.00000000000E+00 -0.39567723341E+02  0.39567723341E+02  0.00000000000E+00 0.  1.
         25    1    1    2    0    0 -0.24884094144E+02  0.77185720051E+01  0.52227128234E+03  0.53765331474E+03  0.12500000000E+03 0.  0.
         25    1    1    2    0    0 -0.85229597656E+01 -0.41978250536E+02  0.43338976658E+03  0.45308553733E+03  0.12500000000E+03 0.  0.
         25    1    1    2    0    0  0.33407053909E+02  0.34259678531E+02  0.18128160734E+03  0.22533925087E+03  0.12500000000E+03 0.  0.
</event>
<event>
 5    0  0.5648525E-005  0.3804758E+03  0.7546771E-02  0.1050758E+00
         21   -1    0    0  502  501  0.00000000000E+00  0.00000000000E+00  0.18555069312E+03  0.18555069312E+03  0.00000000000E+00 0. -1.
         21   -1    0    0  501  502 -0.00000000000E+00 -0.00000000000E+00 -0.78017410324E+03  0.78017410324E+03  0.00000000000E+00 0. -1.
         25    1    1    2    0    0  0.69439543593E+02 -0.83465685116E+02 -0.33154826544E+03  0.37059091074E+03  0.12500000000E+03 0.  0.
         25    1    1    2    0    0  0.16525241952E+03 -0.52985673670E+02 -0.19317508356E+03  0.28819690609E+03  0.12500000000E+03 0.  0.
         25    1    1    2    0    0 -0.23469196311E+03  0.13645135879E+03 -0.69900061123E+02  0.30693697954E+03  0.12500000000E+03 0.  0.
</event>
<event>
 5    0  0.5648525E-005  0.2060535E+03  0.7546771E-02  0.1144730E+00
         21   -1    0    0  502  501  0.00000000000E+00  0.00000000000E+00  0.29470890257E+03  0.29470890257E+03  0.00000000000E+00 0. -1.
         21   -1    0    0  501  502 -0.00000000000E+00 -0.00000000000E+00 -0.14406769872E+03  0.14406769872E+03  0.00000000000E+00 0. -1.
         25    1    1    2    0    0 -0.15843308434E+00 -0.90927929368E+01  0.77254652777E+02  0.14722766506E+03  0.12500000000E+03 0.  0.
         25    1    1    2    0    0 -0.58088016196E+02  0.15522615501E+02  0.83981221697E+01  0.13896293633E+03  0.12500000000E+03 0.  0.
         25    1    1    2    0    0  0.58246449280E+02 -0.64298225645E+01  0.64988428900E+02  0.15258599989E+03  0.12500000000E+03 0.  0.
</event>
<event>
 5    0  0.5648525E-005  0.2299404E+03  0.7546771E-02  0.1126682E+00
         21   -1    0    0  502  501  0.00000000000E+00  0.00000000000E+00  0.64274596851E+02  0.64274596851E+02  0.00000000000E+00 0. -1.
         21   -1    0    0  501  502 -0.00000000000E+00 -0.00000000000E+00 -0.82260447518E+03  0.82260447518E+03  0.00000000000E+00 0. -1.
         25    1    1    2    0    0 -0.75721920573E+02 -0.41800138055E+02 -0.18586101016E+03  0.24010492684E+03  0.12500000000E+03 0.  0.
         25    1    1    2    0    0 -0.92482648212E+01 -0.32553824759E+02 -0.20405731503E+03  0.24168092545E+03  0.12500000000E+03 0.  0.
         25    1    1    2    0    0  0.84970185394E+02  0.74353962814E+02 -0.36841155314E+03  0.40509321974E+03  0.12500000000E+03 0.  0.
</event>
<event>
 5    0  0.5648525E-005  0.2952154E+03  0.7546771E-02  0.1087657E+00
         21   -1    0    0  502  501  0.00000000000E+00  0.00000000000E+00  0.41450938802E+03  0.41450938802E+03  0.00000000000E+00 0.  1.
         21   -1    0    0  501  502 -0.00000000000E+00 -0.00000000000E+00 -0.21025363295E+03  0.21025363295E+03  0.00000000000E+00 0.  1.
         25    1    1    2    0    0  0.13819821286E+03  0.91773827129E+02  0.95020194964E+02  0.22841851684E+03  0.12500000000E+03 0.  0.
         25    1    1    2    0    0 -0.80985530917E+01  0.31170919289E+02 -0.36140357187E+02  0.13404603011E+03  0.12500000000E+03 0.  0.
         25    1    1    2    0    0 -0.13009965977E+03 -0.12294474642E+03  0.14537591730E+03  0.26229847402E+03  0.12500000000E+03 0.  0.
</event>
<event>
 5    0  0.5648525E-005  0.2211968E+03  0.7546771E-02  0.1132994E+00
         21   -1    0    0  502  501  0.00000000000E+00  0.00000000000E+00  0.21234429542E+03  0.21234429542E+03  0.00000000000E+00 0. -1.
         21   -1    0    0  501  502 -0.00000000000E+00 -0.00000000000E+00 -0.23041826720E+03  0.23041826720E+03  0.00000000000E+00 0. -1.
         25    1    1    2    0    0  0.12220760128E+01  0.87585249754E+01  0.14298449682E+02  0.12612553624E+03  0.12500000000E+03 0.  0.
         25    1    1    2    0    0  0.73067823487E+02 -0.13297332484E+02 -0.76916640626E+02  0.16448980359E+03  0.12500000000E+03 0.  0.
         25    1    1    2    0    0 -0.74289899500E+02  0.45388075088E+01  0.44544219162E+02  0.15214722279E+03  0.12500000000E+03 0.  0.
</event>
<event>
 5    0  0.5648525E-005  0.6235699E+03  0.7546771E-02  0.9857678E-01
         21   -1    0    0  502  501  0.00000000000E+00  0.00000000000E+00  0.52636624572E+03  0.52636624572E+03  0.00000000000E+00 0.  1.
         21   -1    0    0  501  502 -0.00000000000E+00 -0.00000000000E+00 -0.73872415248E+03  0.73872415248E+03  0.00000000000E+00 0.  1.
         25    1    1    2    0    0 -0.19752165196E+03  0.14475470564E+03 -0.39905341620E+03  0.48460020304E+03  0.12500000000E+03 0.  0.
         25    1    1    2    0    0 -0.16516452224E+03 -0.19651198627E+03 -0.95921968649E+02  0.30120143463E+03  0.12500000000E+03 0.  0.
         25    1    1    2    0    0  0.36268617420E+03  0.51757280625E+02  0.28261747809E+03  0.47928876054E+03  0.12500000000E+03 0.  0.
</event>
<event>
 5    0  0.5648525E-005  0.3162955E+03  0.7546771E-02  0.1077367E+00
         21   -1    0    0  502  501  0.00000000000E+00  0.00000000000E+00  0.38300353452E+02  0.38300353452E+02  0.00000000000E+00 0.  1.
         21   -1    0    0  501  502 -0.00000000000E+00 -0.00000000000E+00 -0.26120608525E+04  0.26120608525E+04  0.00000000000E+00 0.  1.
         25    1    1    2    0    0  0.48227107197E+02 -0.51546195353E+02 -0.67609597856E+03  0.69116831261E+03  0.12500000000E+03 0.  0.
         25    1    1    2    0    0 -0.21647716165E+03  0.63219653297E+02 -0.76630085222E+03  0.80851783047E+03  0.12500000000E+03 0.  0.
         25    1    1    2    0    0  0.16825005445E+03 -0.11673457944E+02 -0.11313636683E+04  0.11506750629E+04  0.12500000000E+03 0.  0.
</event>
<event>
 5    0  0.5648525E-005  0.3316965E+03  0.7546771E-02  0.1070389E+00
         21   -1    0    0  502  501  0.00000000000E+00  0.00000000000E+00  0.88506554470E+03  0.88506554470E+03  0.00000000000E+00 0. -1.
         21   -1    0    0  501  502 -0.00000000000E+00 -0.00000000000E+00 -0.12431004410E+03  0.12431004410E+03  0.00000000000E+00 0. -1.
         25    1    1    2    0    0  0.50520402511E+02 -0.13086699821E+01 -0.88974429919E+01  0.13512286327E+03  0.12500000000E+03 0.  0.
         25    1    1    2    0    0 -0.57649744615E+02 -0.10592455672E+03  0.64390206136E+03  0.66691706335E+03  0.12500000000E+03 0.  0.
         25    1    1    2    0    0  0.71293421031E+01  0.10723322671E+03  0.12575088223E+03  0.20733566218E+03  0.12500000000E+03 0.  0.
</event>
<event>
 5    0  0.5648525E-005  0.3411827E+03  0.7546771E-02  0.1066293E+00
         21   -1    0    0  502  501  0.00000000000E+00  0.00000000000E+00  0.95515421444E+02  0.95515421444E+02  0.00000000000E+00 0.  1.
         21   -1    0    0  501  502 -0.00000000000E+00 -0.00000000000E+00 -0.12187102650E+04  0.12187102650E+04  0.00000000000E+00 0.  1.
         25    1    1    2    0    0 -0.13449464980E+03  0.66951067099E+02 -0.31347090283E+03  0.36940528304E+03  0.12500000000E+03 0.  0.
         25    1    1    2    0    0  0.19537999307E+03 -0.80485227078E+02 -0.75647688782E+03  0.79531974405E+03  0.12500000000E+03 0.  0.
         25    1    1    2    0    0 -0.60885343266E+02  0.13534159978E+02 -0.53247052930E+02  0.14950065939E+03  0.12500000000E+03 0.  0.
</event>
<event>
 5    0  0.5648525E-005  0.2826487E+03  0.7546771E-02  0.1094251E+00
         21   -1    0    0  502  501  0.00000000000E+00  0.00000000000E+00  0.18271694440E+03  0.18271694440E+03  0.00000000000E+00 0.  1.
         21   -1    0    0  501  502 -0.00000000000E+00 -0.00000000000E+00 -0.43723524138E+03  0.43723524138E+03  0.00000000000E+00 0.  1.
         25    1    1    2    0    0 -0.45533075303E+02  0.25183460120E+02 -0.94435787455E+02  0.16507751380E+03  0.12500000000E+03 0.  0.
         25    1    1    2    0    0 -0.52096564327E+02  0.20196563334E+02  0.83730948688E+02  0.16049244516E+03  0.12500000000E+03 0.  0.
         25    1    1    2    0    0  0.97629639630E+02 -0.45380023454E+02 -0.24381345821E+03  0.29438222682E+03  0.12500000000E+03 0.  0.
</event>
<event>
 5    0  0.6036675E-005  0.2621426E+03  0.7546771E-02  0.1105863E+00
         21   -1    0    0  502  501  0.00000000000E+00  0.00000000000E+00  0.25415573949E+03  0.25415573949E+03  0.00000000000E+00 0.  1.
         21   -1    0    0  501  502 -0.00000000000E+00 -0.00000000000E+00 -0.27038050335E+03  0.27038050335E+03  0.00000000000E+00 0.  1.
         25    1    1    2    0    0  0.77943479701E+02 -0.56650362746E+02  0.10163174221E+02  0.15815416446E+03  0.12500000000E+03 0.  0.
         25    1    1    2    0    0 -0.95075146898E+02  0.14215573116E+03 -0.29885545883E+02  0.21392915021E+03  0.12500000000E+03 0.  0.
         25    1    1    2    0    0  0.17131667197E+02 -0.85505368409E+02  0.34976078001E+01  0.15245292817E+03  0.12500000000E+03 0.  0.
</event>
<event>
 5    0  0.5648525E-005  0.2493387E+03  0.7546771E-02  0.1113723E+00
         21   -1    0    0  502  501  0.00000000000E+00  0.00000000000E+00  0.12975870354E+03  0.12975870354E+03  0.00000000000E+00 0.  1.
         21   -1    0    0  501  502 -0.00000000000E+00 -0.00000000000E+00 -0.47911840306E+03  0.47911840306E+03  0.00000000000E+00 0.  1.
         25    1    1    2    0    0 -0.84240708958E+01  0.99217822515E+02 -0.47145090286E+02  0.16662172971E+03  0.12500000000E+03 0.  0.
         25    1    1    2    0    0  0.62897128825E+02  0.60405610696E+00 -0.74027897986E+02  0.15830838063E+03  0.12500000000E+03 0.  0.
         25    1    1    2    0    0 -0.54473057929E+02 -0.99821878621E+02 -0.22818671125E+03  0.28394699626E+03  0.12500000000E+03 0.  0.
</event>
<event>
 5    0  0.5648525E-005  0.2226999E+03  0.7546771E-02  0.1131886E+00
         21   -1    0    0  502  501  0.00000000000E+00  0.00000000000E+00  0.63256783320E+03  0.63256783320E+03  0.00000000000E+00 0. -1.
         21   -1    0    0  501  502 -0.00000000000E+00 -0.00000000000E+00 -0.78403013584E+02  0.78403013584E+02  0.00000000000E+00 0. -1.
         25    1    1    2    0    0  0.38755259976E+02  0.49258971026E+02  0.27077745480E+03  0.30475210652E+03  0.12500000000E+03 0.  0.
         25    1    1    2    0    0 -0.30576284288E+02 -0.40693802915E+01  0.51207137954E+02  0.13855915702E+03  0.12500000000E+03 0.  0.
         25    1    1    2    0    0 -0.81789756881E+01 -0.45189590735E+02  0.23218022686E+03  0.26765958324E+03  0.12500000000E+03 0.  0.
</event>
<event>
 5    0  0.5648525E-005  0.3427502E+03  0.7546771E-02  0.1065631E+00
         21   -1    0    0  502  501  0.00000000000E+00  0.00000000000E+00  0.12497537465E+04  0.12497537465E+04  0.00000000000E+00 0.  1.
         21   -1    0    0  501  502 -0.00000000000E+00 -0.00000000000E+00 -0.94000681812E+02  0.94000681812E+02  0.00000000000E+00 0.  1.
         25    1    1    2    0    0 -0.57835010713E+02  0.16388634356E+03  0.72121125925E+03  0.75231263617E+03  0.12500000000E+03 0.  0.
         25    1    1    2    0    0 -0.44310200500E+01 -0.19349230377E+03  0.36744837795E+03  0.43370752358E+03  0.12500000000E+03 0.  0.
         25    1    1    2    0    0  0.62266030763E+02  0.29605960203E+02  0.67093427490E+02  0.15773426856E+03  0.12500000000E+03 0.  0.
</event>
<event>
 5    0  0.5648525E-005  0.3565441E+03  0.7546771E-02  0.1059961E+00
         21   -1    0    0  502  501  0.00000000000E+00  0.00000000000E+00  0.48136143110E+03  0.48136143110E+03  0.00000000000E+00 0.  1.
         21   -1    0    0  501  502 -0.00000000000E+00 -0.00000000000E+00 -0.26409202995E+03  0.26409202995E+03  0.00000000000E+00 0.  1.
         25    1    1    2    0    0  0.48799850743E+02 -0.60245767772E+02  0.13513823225E+03  0.19974563771E+03  0.12500000000E+03 0.  0.
         25    1    1    2    0    0  0.12592491654E+03  0.16001934957E+02  0.22269794655E+03  0.28518857257E+03  0.12500000000E+03 0.  0.
         25    1    1    2    0    0 -0.17472476728E+03  0.44243832815E+02 -0.14056677765E+03  0.26051925077E+03  0.12500000000E+03 0.  0.
</event>
<event>
 5    0  0.5648525E-005  0.2823522E+03  0.7546771E-02  0.1094411E+00
         21   -1    0    0  502  501  0.00000000000E+00  0.00000000000E+00  0.12163069441E+03  0.12163069441E+03  0.00000000000E+00 0. -1.
         21   -1    0    0  501  502 -0.00000000000E+00 -0.00000000000E+00 -0.65544917403E+03  0.65544917403E+03  0.00000000000E+00 0. -1.
         25    1    1    2    0    0  0.99633321955E+02  0.79951698716E+02 -0.11442207332E+03  0.21221801016E+03  0.12500000000E+03 0.  0.
         25    1    1    2    0    0 -0.16192108544E+03 -0.97557880503E+02 -0.19008694438E+03  0.29579388834E+03  0.12500000000E+03 0.  0.
         25    1    1    2    0    0  0.62287763484E+02  0.17606181787E+02 -0.22930946192E+03  0.26906796993E+03  0.12500000000E+03 0.  0.
</event>
<event>
 5    0  0.5648525E-005  0.3064503E+03  0.7546771E-02  0.1082060E+00
         21   -1    0    0  502  501  0.00000000000E+00  0.00000000000E+00  0.59585476228E+03  0.59585476228E+03  0.00000000000E+00 0. -1.
         21   -1    0    0  501  502 -0.00000000000E+00 -0.00000000000E+00 -0.15760851764E+03  0.15760851764E+03  0.00000000000E+00 0. -1.
         25    1    1    2    0    0 -0.12787512955E+03  0.37599118112E+02  0.11583175350E+03  0.21635095923E+03  0.12500000000E+03 0.  0.
         25    1    1    2    0    0  0.12534179100E+03 -0.29464829287E+01 -0.12960938990E+02  0.17751685067E+03  0.12500000000E+03 0.  0.
         25    1    1    2    0    0  0.25333385440E+01 -0.34652635183E+02  0.33537543013E+03  0.35959547002E+03  0.12500000000E+03 0.  0.
</event>
<event>
 5    0  0.5648525E-005  0.3745068E+03  0.7546771E-02  0.1052983E+00
         21   -1    0    0  502  501  0.00000000000E+00  0.00000000000E+00  0.23644144885E+03  0.23644144885E+03  0.00000000000E+00 0.  1.
         21   -1    0    0  501  502 -0.00000000000E+00 -0.00000000000E+00 -0.59319266630E+03  0.59319266630E+03  0.00000000000E+00 0.  1.
         25    1    1    2    0    0  0.13237725775E+03  0.17866701456E+03 -0.35577291062E+03  0.43777277713E+03  0.12500000000E+03 0.  0.
         25    1    1    2    0    0 -0.11671164173E+03 -0.22468384555E+01  0.27461008403E+02  0.17322171509E+03  0.12500000000E+03 0.  0.
         25    1    1    2    0    0 -0.15665616022E+02 -0.17642017611E+03 -0.28439315228E+02  0.21863962293E+03  0.12500000000E+03 0.  0.
</event>
<event>
 5    0  0.6940913E-005  0.3022705E+03  0.7546771E-02  0.1084111E+00
         21   -1    0    0  502  501  0.00000000000E+00  0.00000000000E+00  0.23912856798E+03  0.23912856798E+03  0.00000000000E+00 0. -1.
         21   -1    0    0  501  502 -0.00000000000E+00 -0.00000000000E+00 -0.38208518180E+03  0.38208518180E+03  0.00000000000E+00 0. -1.
         25    1    1    2    0    0 -0.48708003248E+02  0.10526672430E+03 -0.33082266349E+02  0.17370373966E+03  0.12500000000E+03 0.  0.
         25    1    1    2    0    0 -0.66267593365E+02  0.18819935674E+02  0.80457197382E+02  0.16384121740E+03  0.12500000000E+03 0.  0.
         25    1    1    2    0    0  0.11497559661E+03 -0.12408665997E+03 -0.19033154485E+03  0.28366879272E+03  0.12500000000E+03 0.  0.
</event>
<event>
 5    0  0.6979035E-005  0.3507312E+03  0.7546771E-02  0.1062315E+00
         21   -1    0    0  502  501  0.00000000000E+00  0.00000000000E+00  0.51972140101E+03  0.51972140101E+03  0.00000000000E+00 0.  1.
         21   -1    0    0  501  502 -0.00000000000E+00 -0.00000000000E+00 -0.23668905530E+03  0.23668905530E+03  0.00000000000E+00 0.  1.
         25    1    1    2    0    0 -0.29275077999E+01  0.86237458920E+02 -0.81440490885E+02  0.17234565030E+03  0.12500000000E+03 0.  0.
         25    1    1    2    0    0 -0.47101337774E+02  0.13935330098E+03  0.16971471443E+03  0.25703299946E+03  0.12500000000E+03 0.  0.
         25    1    1    2    0    0  0.50028845574E+02 -0.22559075990E+03  0.19475812217E+03  0.32703180655E+03  0.12500000000E+03 0.  0.
</event>
<event>
 5    0  0.5648525E-005  0.2698668E+03  0.7546771E-02  0.1101356E+00
         21   -1    0    0  502  501  0.00000000000E+00  0.00000000000E+00  0.30252894649E+02  0.30252894649E+02  0.00000000000E+00 0.  1.
         21   -1    0    0  501  502 -0.00000000000E+00 -0.00000000000E+00 -0.24073092852E+04  0.24073092852E+04  0.00000000000E+00 0.  1.
         25    1    1    2    0    0 -0.21846401633E+02 -0.11266920694E+03 -0.52195165329E+03  0.54884437122E+03  0.12500000000E+03 0.  0.
         25    1    1    2    0    0 -0.94873168107E+02  0.87808150187E+02 -0.84319025104E+03  0.86215195221E+03  0.12500000000E+03 0.  0.
         25    1    1    2    0    0  0.11671956974E+03  0.24861056752E+02 -0.10119144862E+04  0.10265658564E+04  0.12500000000E+03 0.  0.
</event>
<event>
 5    0  0.5648525E-005  0.2193009E+03  0.7546771E-02  0.1134405E+00
         21   -1    0    0  502  501  0.00000000000E+00  0.00000000000E+00  0.30907266814E+03  0.30907266814E+03  0.00000000000E+00 0. -1.
         21   -1    0    0  501  502 -0.00000000000E+00 -0.00000000000E+00 -0.15560383272E+03  0.15560383272E+03  0.00000000000E+00 0. -1.
         25    1    1    2    0    0 -0.20979071459E+02  0.51142736666E+02 -0.30023756949E+02  0.13993615306E+03  0.12500000000E+03 0.  0.
         25    1    1    2    0    0  0.32819903601E+02 -0.28797000330E+02  0.13272016042E+03  0.18747280945E+03  0.12500000000E+03 0.  0.
         25    1    1    2    0    0 -0.11840832142E+02 -0.22345736336E+02  0.50772431949E+02  0.13726753835E+03  0.12500000000E+03 0.  0.
</event>
<event>
 5    0  0.5648525E-005  0.3368524E+03  0.7546771E-02  0.1068145E+00
         21   -1    0    0  502  501  0.00000000000E+00  0.00000000000E+00  0.14925876366E+03  0.14925876366E+03  0.00000000000E+00 0. -1.
         21   -1    0    0  501  502 -0.00000000000E+00 -0.00000000000E+00 -0.76022027756E+03  0.76022027756E+03  0.00000000000E+00 0. -1.
         25    1    1    2    0    0 -0.23181504685E+02  0.75397422813E+02 -0.19823139149E+02  0.14913118511E+03  0.12500000000E+03 0.  0.
         25    1    1    2    0    0  0.14375540122E+02  0.15582593361E+03 -0.35146003762E+03  0.40452136629E+03  0.12500000000E+03 0.  0.
         25    1    1    2    0    0  0.88059645631E+01 -0.23122335642E+03 -0.23967833713E+03  0.35582648982E+03  0.12500000000E+03 0.  0.
</event>
<event>
 5    0  0.5648525E-005  0.2515176E+03  0.7546771E-02  0.1112350E+00
         21   -1    0    0  502  501  0.00000000000E+00  0.00000000000E+00  0.46776573819E+03  0.46776573819E+03  0.00000000000E+00 0. -1.
         21   -1    0    0  501  502 -0.00000000000E+00 -0.00000000000E+00 -0.13524094646E+03  0.13524094646E+03  0.00000000000E+00 0. -1.
         25    1    1    2    0    0  0.29952554774E+02  0.87810506495E+02  0.18408024594E+03  0.24107753428E+03  0.12500000000E+03 0.  0.
         25    1    1    2    0    0  0.19701181737E+02 -0.12465482768E+02  0.16339172493E+03  0.20703956288E+03  0.12500000000E+03 0.  0.
         25    1    1    2    0    0 -0.49653736511E+02 -0.75345023727E+02 -0.14947179145E+02  0.15488958749E+03  0.12500000000E+03 0.  0.
</event>
<event>
 5    0  0.5648525E-005  0.2794554E+03  0.7546771E-02  0.1095987E+00
         21   -1    0    0  502  501  0.00000000000E+00  0.00000000000E+00  0.53950874450E+02  0.53950874450E+02  0.00000000000E+00 0.  1.
         21   -1    0    0  501  502 -0.00000000000E+00 -0.00000000000E+00 -0.14475270036E+04  0.14475270036E+04  0.00000000000E+00 0.  1.
         25    1    1    2    0    0 -0.20979820213E+02 -0.16579133409E+03 -0.64834419118E+03  0.68110359679E+03  0.12500000000E+03 0.  0.
         25    1    1    2    0    0  0.23366889751E+02  0.11467032496E+02 -0.17561548492E+03  0.21712508587E+03  0.12500000000E+03 0.  0.
         25    1    1    2    0    0 -0.23870695385E+01  0.15432430159E+03 -0.56961645307E+03  0.60324919542E+03  0.12500000000E+03 0.  0.
</event>
<event>
 5    0  0.5648525E-005  0.2826578E+03  0.7546771E-02  0.1094246E+00
         21   -1    0    0  502  501  0.00000000000E+00  0.00000000000E+00  0.30236060113E+02  0.30236060113E+02  0.00000000000E+00 0. -1.
         21   -1    0    0  501  502 -0.00000000000E+00 -0.00000000000E+00 -0.26423880999E+04  0.26423880999E+04  0.00000000000E+00 0. -1.
         25    1    1    2    0    0  0.39004127688E+01  0.11581040868E+03 -0.73956843904E+03  0.75895569040E+03  0.12500000000E+03 0.  0.
         25    1    1    2    0    0 -0.41616230664E+01 -0.17874960159E+03 -0.14978479303E+04  0.15136519288E+04  0.12500000000E+03 0.  0.
         25    1    1    2    0    0  0.26121029762E+00  0.62939192911E+02 -0.37473567046E+03  0.40001654084E+03  0.12500000000E+03 0.  0.
</event>
<event>
 5    0  0.5648525E-005  0.3806270E+03  0.7546771E-02  0.1050702E+00
         21   -1    0    0  502  501  0.00000000000E+00  0.00000000000E+00  0.20456311395E+04  0.20456311395E+04  0.00000000000E+00 0. -1.
         21   -1    0    0  501  502 -0.00000000000E+00 -0.00000000000E+00 -0.70822601353E+02  0.70822601353E+02  0.00000000000E+00 0. -1.
         25    1    1    2    0    0  0.12032544879E+03 -0.37131291451E+02  0.19242959782E+03  0.26174624458E+03  0.12500000000E+03 0.  0.
         25    1    1    2    0    0  0.13077308613E+03 -0.93306013034E+02  0.70121998947E+03  0.73016579334E+03  0.12500000000E+03 0.  0.
         25    1    1    2    0    0 -0.25109853492E+03  0.13043730449E+03  0.10811589508E+04  0.11245417029E+04  0.12500000000E+03 0.  0.
</event>
<event>
 5    0  0.5946778E-005  0.3011240E+03  0.7546771E-02  0.1084680E+00
         21   -1    0    0  502  501  0.00000000000E+00  0.00000000000E+00  0.29575319226E+03  0.29575319226E+03  0.00000000000E+00 0.  1.
         21   -1    0    0  501  502 -0.00000000000E+00 -0.00000000000E+00 -0.30659236157E+03  0.30659236157E+03  0.00000000000E+00 0.  1.
         25    1    1    2    0    0  0.25496618760E+02 -0.19328736932E+02  0.13365367900E+03  0.18577401204E+03  0.12500000000E+03 0.  0.
         25    1    1    2    0    0  0.69973038768E+01 -0.10297239920E+03  0.32848655861E+02  0.16539743484E+03  0.12500000000E+03 0.  0.
         25    1    1    2    0    0 -0.32493922636E+02  0.12230113613E+03 -0.17734150416E+03  0.25117410696E+03  0.12500000000E+03 0.  0.
</event>
<event>
 5    0  0.5648525E-005  0.2554325E+03  0.7546771E-02  0.1109919E+00
         21   -1    0    0  502  501  0.00000000000E+00  0.00000000000E+00  0.27258402485E+03  0.27258402485E+03  0.00000000000E+00 0. -1.
         21   -1    0    0  501  502 -0.00000000000E+00 -0.00000000000E+00 -0.23936026936E+03  0.23936026936E+03  0.00000000000E+00 0. -1.
         25    1    1    2    0    0  0.12994385986E+03 -0.47649388528E+02  0.73900725018E+02  0.20060455653E+03  0.12500000000E+03 0.  0.
         25    1    1    2    0    0 -0.12351939121E+03  0.40534201630E+01 -0.30536216927E+02  0.17841224948E+03  0.12500000000E+03 0.  0.
         25    1    1    2    0    0 -0.64244686510E+01  0.43595968365E+02 -0.10140752600E+02  0.13292748820E+03  0.12500000000E+03 0.  0.
</event>
<event>
 5    0  0.5648525E-005  0.2837878E+03  0.7546771E-02  0.1093638E+00
         21   -1    0    0  502  501  0.00000000000E+00  0.00000000000E+00  0.25179831189E+03  0.25179831189E+03  0.00000000000E+00 0.  1.
         21   -1    0    0  501  502 -0.00000000000E+00 -0.00000000000E+00 -0.31984128148E+03  0.31984128148E+03  0.00000000000E+00 0.  1.
         25    1    1    2    0    0 -0.18847971973E+02 -0.59009881754E+01  0.10542683505E+03  0.16471152132E+03  0.12500000000E+03 0.  0.
         25    1    1    2    0    0 -0.12313468080E+03 -0.22003953820E+02 -0.86717002542E+02  0.19695472101E+03  0.12500000000E+03 0.  0.
         25    1    1    2    0    0  0.14198265277E+03  0.27904941995E+02 -0.86752802094E+02  0.20997335104E+03  0.12500000000E+03 0.  0.
</event>
<event>
 5    0  0.5648525E-005  0.3262866E+03  0.7546771E-02  0.1072792E+00
         21   -1    0    0  502  501  0.00000000000E+00  0.00000000000E+00  0.16772073197E+03  0.16772073197E+03  0.00000000000E+00 0. -1.
         21   -1    0    0  501  502 -0.00000000000E+00 -0.00000000000E+00 -0.63476316937E+03  0.63476316937E+03  0.00000000000E+00 0. -1.
         25    1    1    2    0    0  0.20372246950E+03  0.25277862351E+02 -0.26186367608E+03  0.35544254072E+03  0.12500000000E+03 0.  0.
         25    1    1    2    0    0 -0.17919294218E+02  0.79304550513E+02 -0.62709125626E+02  0.16176448088E+03  0.12500000000E+03 0.  0.
         25    1    1    2    0    0 -0.18580317528E+03 -0.10458241286E+03 -0.14246963570E+03  0.28527687975E+03  0.12500000000E+03 0.  0.
</event>
<event>
 5    0  0.5648525E-005  0.3621777E+03  0.7546771E-02  0.1057725E+00
         21   -1    0    0  502  501  0.00000000000E+00  0.00000000000E+00  0.28989252689E+03  0.28989252689E+03  0.00000000000E+00 0. -1.
         21   -1    0    0  501  502 -0.00000000000E+00 -0.00000000000E+00 -0.45248727386E+03  0.45248727386E+03  0.00000000000E+00 0. -1.
         25    1    1    2    0    0  0.16049399597E+02  0.20245735317E+03 -0.49204834267E+02  0.24350088049E+03  0.12500000000E+03 0.  0.
         25    1    1    2    0    0 -0.90296368396E+02 -0.67878288832E+02 -0.21746278635E+03  0.27509263837E+03  0.12500000000E+03 0.  0.
         25    1    1    2    0    0  0.74246968799E+02 -0.13457906434E+03  0.10407287364E+03  0.22378628189E+03  0.12500000000E+03 0.  0.
</event>
<event>
 5    0  0.5648525E-005  0.2534311E+03  0.7546771E-02  0.1111155E+00
         21   -1    0    0  502  501  0.00000000000E+00  0.00000000000E+00  0.38037532197E+03  0.38037532197E+03  0.00000000000E+00 0.  1.
         21   -1    0    0  501  502 -0.00000000000E+00 -0.00000000000E+00 -0.16885249803E+03  0.16885249803E+03  0.00000000000E+00 0.  1.
         25    1    1    2    0    0 -0.37927742694E+02  0.15592453777E+03  0.77713977628E+02  0.21775086099E+03  0.12500000000E+03 0.  0.
         25    1    1    2    0    0  0.21495760478E+02 -0.60297793334E+02  0.91720675342E+02  0.16773662058E+03  0.12500000000E+03 0.  0.
         25    1    1    2    0    0  0.16431982216E+02 -0.95626744437E+02  0.42088170964E+02  0.16374033842E+03  0.12500000000E+03 0.  0.
</event>
<event>
 5    0  0.5648525E-005  0.3365193E+03  0.7546771E-02  0.1068288E+00
         21   -1    0    0  502  501  0.00000000000E+00  0.00000000000E+00  0.14351844004E+03  0.14351844004E+03  0.00000000000E+00 0.  1.
         21   -1    0    0  501  502 -0.00000000000E+00 -0.00000000000E+00 -0.78906386300E+03  0.78906386300E+03  0.00000000000E+00 0.  1.
         25    1    1    2    0    0  0.94430855843E+01 -0.11168470642E+03 -0.28446093859E+03  0.33031147588E+03  0.12500000000E+03 0.  0.
         25    1    1    2    0    0  0.40831135593E+02 -0.11803870413E+03 -0.26628630125E+03  0.31958365343E+03  0.12500000000E+03 0.  0.
         25    1    1    2    0    0 -0.50274221177E+02  0.22972341055E+03 -0.94798183126E+02  0.28268717373E+03  0.12500000000E+03 0.  0.
</event>
<event>
 5    0  0.5648525E-005  0.4144221E+03  0.7546771E-02  0.1038897E+00
         21   -1    0    0  502  501  0.00000000000E+00  0.00000000000E+00  0.67683507737E+03  0.67683507737E+03  0.00000000000E+00 0. -1.
         21   -1    0    0  501  502 -0.00000000000E+00 -0.00000000000E+00 -0.25374821975E+03  0.25374821975E+03  0.00000000000E+00 0. -1.
         25    1    1    2    0    0 -0.91422909725E+02  0.25883995849E+03  0.46435776207E+03  0.55372321942E+03  0.12500000000E+03 0.  0.
         25    1    1    2    0    0  0.53530271919E+02 -0.16449443361E+03 -0.26390398919E+02  0.21504734794E+03  0.12500000000E+03 0.  0.
         25    1    1    2    0    0  0.37892637806E+02 -0.94345524888E+02 -0.14880505531E+02  0.16181272976E+03  0.12500000000E+03 0.  0.
</event>
<event>
 5    0  0.5648525E-005  0.2657238E+03  0.7546771E-02  0.1103752E+00
         21   -1    0    0  502  501  0.00000000000E+00  0.00000000000E+00  0.22249472842E+03  0.22249472842E+03  0.00000000000E+00 0. -1.
         21   -1    0    0  501  502 -0.00000000000E+00 -0.00000000000E+00 -0.31735205293E+03  0.31735205293E+03  0.00000000000E+00 0. -1.
         25    1    1    2    0    0  0.35878111090E+02  0.88852751131E+02  0.98359272126E+02  0.18569220945E+03  0.12500000000E+03 0.  0.
         25    1    1    2    0    0 -0.37558763342E+02  0.17646656853E+02 -0.99527882055E+02  0.16508441631E+03  0.12500000000E+03 0.  0.
         25    1    1    2    0    0  0.16806522519E+01 -0.10649940798E+03 -0.93688714587E+02  0.18907015559E+03  0.12500000000E+03 0.  0.
</event>
<event>
 5    0  0.5648525E-005  0.2400990E+03  0.7546771E-02  0.1119727E+00
         21   -1    0    0  502  501  0.00000000000E+00  0.00000000000E+00  0.13744176085E+03  0.13744176085E+03  0.00000000000E+00 0. -1.
         21   -1    0    0  501  502 -0.00000000000E+00 -0.00000000000E+00 -0.41943250733E+03  0.41943250733E+03  0.00000000000E+00 0. -1.
         25    1    1    2    0    0  0.65692717289E+02  0.40801366365E+01  0.30603737803E+02  0.14454677232E+03  0.12500000000E+03 0.  0.
         25    1    1    2    0    0 -0.20437821962E+02 -0.34754349344E+02 -0.17205891758E+03  0.21645978953E+03  0.12500000000E+03 0.  0.
         25    1    1    2    0    0 -0.45254895326E+02  0.30674212708E+02 -0.14053556670E+03  0.19586770633E+03  0.12500000000E+03 0.  0.
</event>
<event>
 5    0  0.5648525E-005  0.3336350E+03  0.7546771E-02  0.1069540E+00
         21   -1    0    0  502  501  0.00000000000E+00  0.00000000000E+00  0.57322335998E+03  0.57322335998E+03  0.00000000000E+00 0.  1.
         21   -1    0    0  501  502 -0.00000000000E+00 -0.00000000000E+00 -0.19418657653E+03  0.19418657653E+03  0.00000000000E+00 0.  1.
         25    1    1    2    0    0  0.10885806145E+03 -0.54064389707E+02  0.25214717365E+02  0.17616417839E+03  0.12500000000E+03 0.  0.
         25    1    1    2    0    0 -0.41347098950E+02  0.85348470352E+02 -0.47854116538E+02  0.16403950882E+03  0.12500000000E+03 0.  0.
         25    1    1    2    0    0 -0.67510962496E+02 -0.31284080646E+02  0.40167618262E+03  0.42720624930E+03  0.12500000000E+03 0.  0.
</event>
<event>
 5    0  0.5648525E-005  0.5110396E+03  0.7546771E-02  0.1010937E+00
         21   -1    0    0  502  501  0.00000000000E+00  0.00000000000E+00  0.16142806403E+03  0.16142806403E+03  0.00000000000E+00 0.  1.
         21   -1    0    0  501  502 -0.00000000000E+00 -0.00000000000E+00 -0.16178197032E+04  0.16178197032E+04  0.00000000000E+00 0.  1.
         25    1    1    2    0    0 -0.15439908076E+03  0.23211491884E+03 -0.53535576187E+03  0.61639857515E+03  0.12500000000E+03 0.  0.
         25    1    1    2    0    0 -0.12309382246E+03  0.59988717308E+02 -0.61323078469E+03  0.64064633818E+03  0.12500000000E+03 0.  0.
         25    1    1    2    0    0  0.27749290321E+03 -0.29210363614E+03 -0.30780509261E+03  0.52220285390E+03  0.12500000000E+03 0.  0.
</event>
<event>
 5    0  0.5648525E-005  0.3901984E+03  0.7546771E-02  0.1047227E+00
         21   -1    0    0  502  501  0.00000000000E+00  0.00000000000E+00  0.14066892831E+04  0.14066892831E+04  0.00000000000E+00 0.  1.
         21   -1    0    0  501  502 -0.00000000000E+00 -0.00000000000E+00 -0.10823624632E+03  0.10823624632E+03  0.00000000000E+00 0.  1.
         25    1    1    2    0    0  0.11675803475E+03  0.64967804693E+02  0.55992204395E+03  0.58905937700E+03  0.12500000000E+03 0.  0.
         25    1    1    2    0    0 -0.72162007582E+02 -0.17428508041E+03  0.71931585094E+02  0.23744851553E+03  0.12500000000E+03 0.  0.
         25    1    1    2    0    0 -0.44596027172E+02  0.10931727572E+03  0.66659940775E+03  0.68841763692E+03  0.12500000000E+03 0.  0.
</event>
<event>
 5    0  0.5648525E-005  0.4582828E+03  0.7546771E-02  0.1025280E+00
         21   -1    0    0  502  501  0.00000000000E+00  0.00000000000E+00  0.48968895113E+03  0.48968895113E+03  0.00000000000E+00 0. -1.
         21   -1    0    0  501  502 -0.00000000000E+00 -0.00000000000E+00 -0.42889091460E+03  0.42889091460E+03  0.00000000000E+00 0. -1.
         25    1    1    2    0    0  0.14431053605E+03 -0.10701036774E+02 -0.43001693514E+02  0.19599537915E+03  0.12500000000E+03 0.  0.
         25    1    1    2    0    0  0.13225943767E+03 -0.10983937613E+03  0.27997832892E+03  0.35152540743E+03  0.12500000000E+03 0.  0.
         25    1    1    2    0    0 -0.27656997373E+03  0.12054041291E+03 -0.17617859888E+03  0.37105907914E+03  0.12500000000E+03 0.  0.
</event>
<event>
 5    0  0.5648525E-005  0.9000836E+03  0.7546771E-02  0.9425477E-01
         21   -1    0    0  502  501  0.00000000000E+00  0.00000000000E+00  0.88982504717E+03  0.88982504717E+03  0.00000000000E+00 0. -1.
         21   -1    0    0  501  502 -0.00000000000E+00 -0.00000000000E+00 -0.91046051306E+03  0.91046051306E+03  0.00000000000E+00 0. -1.
         25    1    1    2    0    0  0.34179042081E+03  0.53730173366E+03  0.52186557940E+03  0.83275598330E+03  0.12500000000E+03 0.  0.
         25    1    1    2    0    0  0.42255864994E+02 -0.31059111053E+03 -0.21160707371E+03  0.39831513869E+03  0.12500000000E+03 0.  0.
         25    1    1    2    0    0 -0.38404628580E+03 -0.22671062313E+03 -0.33089397158E+03  0.56921443824E+03  0.12500000000E+03 0.  0.
</event>
<event>
 5    0  0.5648525E-005  0.2202332E+03  0.7546771E-02  0.1133709E+00
         21   -1    0    0  502  501  0.00000000000E+00  0.00000000000E+00  0.70401928669E+03  0.70401928669E+03  0.00000000000E+00 0.  1.
         21   -1    0    0  501  502 -0.00000000000E+00 -0.00000000000E+00 -0.68893954941E+02  0.68893954941E+02  0.00000000000E+00 0.  1.
         25    1    1    2    0    0 -0.32392568547E+02 -0.17058394507E+02  0.92153327699E+02  0.15955407587E+03  0.12500000000E+03 0.  0.
         25    1    1    2    0    0  0.71276859197E+02  0.41636508652E+02  0.32594345051E+03  0.35871732944E+03  0.12500000000E+03 0.  0.
         25    1    1    2    0    0 -0.38884290650E+02 -0.24578114145E+02  0.21702855354E+03  0.25464183632E+03  0.12500000000E+03 0.  0.
</event>
<event>
 5    0  0.5648525E-005  0.3249352E+03  0.7546771E-02  0.1073400E+00
         21   -1    0    0  502  501  0.00000000000E+00  0.00000000000E+00  0.48393959543E+03  0.48393959543E+03  0.00000000000E+00 0. -1.
         21   -1    0    0  501  502 -0.00000000000E+00 -0.00000000000E+00 -0.21817370552E+03  0.21817370552E+03  0.00000000000E+00 0. -1.
         25    1    1    2    0    0 -0.11543092826E+03  0.32417900037E+02  0.59475777963E+02  0.18313270491E+03  0.12500000000E+03 0.  0.
         25    1    1    2    0    0  0.23439835547E+03 -0.81530294235E+02  0.52756947818E+02  0.28283930679E+03  0.12500000000E+03 0.  0.
         25    1    1    2    0    0 -0.11896742720E+03  0.49112394197E+02  0.15353316413E+03  0.23614128925E+03  0.12500000000E+03 0.  0.
</event>
<event>
 5    0  0.5648525E-005  0.4058168E+03  0.7546771E-02  0.1041784E+00
         21   -1    0    0  502  501  0.00000000000E+00  0.00000000000E+00  0.11131786636E+04  0.11131786636E+04  0.00000000000E+00 0.  1.
         21   -1    0    0  501  502 -0.00000000000E+00 -0.00000000000E+00 -0.14794328487E+03  0.14794328487E+03  0.00000000000E+00 0.  1.
         25    1    1    2    0    0 -0.20207208239E+02 -0.25536439012E+02  0.38680568027E+02  0.13483926478E+03  0.12500000000E+03 0.  0.
         25    1    1    2    0    0  0.14642780859E+03 -0.15476168251E+03  0.10819121279E+03  0.26967131851E+03  0.12500000000E+03 0.  0.
         25    1    1    2    0    0 -0.12622060035E+03  0.18029812152E+03  0.81836359786E+03  0.85661136513E+03  0.12500000000E+03 0.  0.
</event>
<event>
 5    0  0.5648525E-005  0.2539321E+03  0.7546771E-02  0.1110845E+00
         21   -1    0    0  502  501  0.00000000000E+00  0.00000000000E+00  0.19358690775E+03  0.19358690775E+03  0.00000000000E+00 0. -1.
         21   -1    0    0  501  502 -0.00000000000E+00 -0.00000000000E+00 -0.33308807203E+03  0.33308807203E+03  0.00000000000E+00 0. -1.
         25    1    1    2    0    0 -0.34071209536E+02 -0.11473304331E+03 -0.11353582593E+03  0.20697802375E+03  0.12500000000E+03 0.  0.
         25    1    1    2    0    0  0.75284599576E+02  0.96177697725E+02  0.26565243783E+02  0.17677282781E+03  0.12500000000E+03 0.  0.
         25    1    1    2    0    0 -0.41213390040E+02  0.18555345584E+02 -0.52530582131E+02  0.14292412822E+03  0.12500000000E+03 0.  0.
</event>
<event>
 5    0  0.5648525E-005  0.4251833E+03  0.7546771E-02  0.1035392E+00
         21   -1    0    0  502  501  0.00000000000E+00  0.00000000000E+00  0.11590980579E+03  0.11590980579E+03  0.00000000000E+00 0.  1.
         21   -1    0    0  501  502 -0.00000000000E+00 -0.00000000000E+00 -0.15596684404E+04  0.15596684404E+04  0.00000000000E+00 0.  1.
         25    1    1    2    0    0 -0.12856086656E+02 -0.28326720267E+02 -0.28519854177E+02  0.13193204360E+03  0.12500000000E+03 0.  0.
         25    1    1    2    0    0 -0.24669606803E+03  0.74858892651E+02 -0.43487594021E+03  0.52077335489E+03  0.12500000000E+03 0.  0.
         25    1    1    2    0    0  0.25955215468E+03 -0.46532172384E+02 -0.98036284022E+03  0.10228728477E+04  0.12500000000E+03 0.  0.
</event>
<event>
 5    0  0.5648525E-005  0.5243351E+03  0.7546771E-02  0.1007615E+00
         21   -1    0    0  502  501  0.00000000000E+00  0.00000000000E+00  0.23165424119E+03  0.23165424119E+03  0.00000000000E+00 0.  1.
         21   -1    0    0  501  502 -0.00000000000E+00 -0.00000000000E+00 -0.11868001319E+04  0.11868001319E+04  0.00000000000E+00 0.  1.
         25    1    1    2    0    0 -0.11851387270E+03  0.38344130207E+02 -0.42165945037E+03  0.45709681953E+03  0.12500000000E+03 0.  0.
         25    1    1    2    0    0 -0.76672558586E+02  0.32612027675E+03 -0.31866153520E+03  0.47896063530E+03  0.12500000000E+03 0.  0.
         25    1    1    2    0    0  0.19518643129E+03 -0.36446440696E+03 -0.21482490517E+03  0.48239691830E+03  0.12500000000E+03 0.  0.
</event>
<event>
 5    0  0.5648525E-005  0.4106463E+03  0.7546771E-02  0.1040154E+00
         21   -1    0    0  502  501  0.00000000000E+00  0.00000000000E+00  0.14603398053E+04  0.14603398053E+04  0.00000000000E+00 0.  1.
         21   -1    0    0  501  502 -0.00000000000E+00 -0.00000000000E+00 -0.11547335911E+03  0.11547335911E+03  0.00000000000E+00 0.  1.
         25    1    1    2    0    0 -0.21630588732E+03  0.60765601102E+02  0.53621977429E+03  0.59467414733E+03  0.12500000000E+03 0.  0.
         25    1    1    2    0    0  0.11959160916E+03 -0.15407938837E+03  0.10571898620E+03  0.25464507642E+03  0.12500000000E+03 0.  0.
         25    1    1    2    0    0  0.96714278153E+02  0.93313787266E+02  0.70292768571E+03  0.72649394067E+03  0.12500000000E+03 0.  0.
</event>
<event>
 5    0  0.5648525E-005  0.3848414E+03  0.7546771E-02  0.1049159E+00
         21   -1    0    0  502  501  0.00000000000E+00  0.00000000000E+00  0.16850675259E+03  0.16850675259E+03  0.00000000000E+00 0.  1.
         21   -1    0    0  501  502 -0.00000000000E+00 -0.00000000000E+00 -0.87891363083E+03  0.87891363083E+03  0.00000000000E+00 0.  1.
         25    1    1    2    0    0  0.15076934061E+02 -0.24598052822E+03 -0.28316209768E+03  0.39565073963E+03  0.12500000000E+03 0.  0.
         25    1    1    2    0    0 -0.10514629495E+03  0.21987540997E+03 -0.10446524081E+03  0.29315341682E+03  0.12500000000E+03 0.  0.
         25    1    1    2    0    0  0.90069360889E+02  0.26105118244E+02 -0.32277953975E+03  0.35861622698E+03  0.12500000000E+03 0.  0.
</event>
<event>
 5    0  0.5648525E-005  0.2425174E+03  0.7546771E-02  0.1118127E+00
         21   -1    0    0  502  501  0.00000000000E+00  0.00000000000E+00  0.28880089406E+03  0.28880089406E+03  0.00000000000E+00 0.  1.
         21   -1    0    0  501  502 -0.00000000000E+00 -0.00000000000E+00 -0.20365132438E+03  0.20365132438E+03  0.00000000000E+00 0.  1.
         25    1    1    2    0    0 -0.80520800662E+02  0.55534611076E+02 -0.26877335733E+02  0.16098162486E+03  0.12500000000E+03 0.  0.
         25    1    1    2    0    0  0.10200928961E+02 -0.34094085523E+02  0.13181308410E+03  0.18511119566E+03  0.12500000000E+03 0.  0.
         25    1    1    2    0    0  0.70319871701E+02 -0.21440525553E+02 -0.19786178693E+02  0.14635939792E+03  0.12500000000E+03 0.  0.
</event>
<event>
 5    0  0.5648525E-005  0.2910622E+03  0.7546771E-02  0.1089796E+00
         21   -1    0    0  502  501  0.00000000000E+00  0.00000000000E+00  0.41817012712E+02  0.41817012712E+02  0.00000000000E+00 0.  1.
         21   -1    0    0  501  502 -0.00000000000E+00 -0.00000000000E+00 -0.20259026944E+04  0.20259026944E+04  0.00000000000E+00 0.  1.
         25    1    1    2    0    0 -0.69812518117E+02 -0.42643312703E+02 -0.86751480219E+03  0.88028357466E+03  0.12500000000E+03 0.  0.
         25    1    1    2    0    0  0.56049132056E+02  0.82712037696E+02 -0.99566949211E+03  0.10084470853E+04  0.12500000000E+03 0.  0.
         25    1    1    2    0    0  0.13763386061E+02 -0.40068724993E+02 -0.12090138740E+03  0.17898904713E+03  0.12500000000E+03 0.  0.
</event>
<event>
 5    0  0.5648525E-005  0.2840019E+03  0.7546771E-02  0.1093523E+00
         21   -1    0    0  502  501  0.00000000000E+00  0.00000000000E+00  0.82551966134E+02  0.82551966134E+02  0.00000000000E+00 0.  1.
         21   -1    0    0  501  502 -0.00000000000E+00 -0.00000000000E+00 -0.97704633303E+03  0.97704633303E+03  0.00000000000E+00 0.  1.
         25    1    1    2    0    0 -0.73893427736E+02  0.61449079375E+01 -0.25478233855E+03  0.29332070945E+03  0.12500000000E+03 0.  0.
         25    1    1    2    0    0 -0.23880061072E+02 -0.34455976021E+02 -0.57932166781E+03  0.59413472075E+03  0.12500000000E+03 0.  0.
         25    1    1    2    0    0  0.97773488808E+02  0.28311068083E+02 -0.60390360530E+02  0.17214286896E+03  0.12500000000E+03 0.  0.
</event>
<event>
 5    0  0.8576291E-005  0.3463141E+03  0.7546771E-02  0.1064138E+00
         21   -1    0    0  502  501  0.00000000000E+00  0.00000000000E+00  0.14953960760E+03  0.14953960760E+03  0.00000000000E+00 0.  1.
         21   -1    0    0  501  502 -0.00000000000E+00 -0.00000000000E+00 -0.80201795278E+03  0.80201795278E+03  0.00000000000E+00 0.  1.
         25    1    1    2    0    0 -0.21444304528E+02 -0.10542036760E+03 -0.15107791303E+02  0.16560965388E+03  0.12500000000E+03 0.  0.
         25    1    1    2    0    0  0.48153324864E+02  0.19395538130E+03 -0.16258515976E+03  0.28635007736E+03  0.12500000000E+03 0.  0.
         25    1    1    2    0    0 -0.26709020336E+02 -0.88535013704E+02 -0.47478539412E+03  0.49959782915E+03  0.12500000000E+03 0.  0.
</event>
<event>
 5    0  0.7431431E-005  0.6582767E+03  0.7546771E-02  0.9791371E-01
         21   -1    0    0  502  501  0.00000000000E+00  0.00000000000E+00  0.72128562421E+03  0.72128562421E+03  0.00000000000E+00 0.  1.
         21   -1    0    0  501  502 -0.00000000000E+00 -0.00000000000E+00 -0.60077208891E+03  0.60077208891E+03  0.00000000000E+00 0.  1.
         25    1    1    2    0    0  0.10741332061E+03  0.10473878154E+03  0.50565337151E+03  0.54204996626E+03  0.12500000000E+03 0.  0.
         25    1    1    2    0    0 -0.16892408948E+03 -0.33742155731E+03 -0.29210131101E+03  0.49329183172E+03  0.12500000000E+03 0.  0.
         25    1    1    2    0    0  0.61510768872E+02  0.23268277577E+03 -0.93038525192E+02  0.28671591514E+03  0.12500000000E+03 0.  0.
</event>
<event>
 5    0  0.5648525E-005  0.2215395E+03  0.7546771E-02  0.1132740E+00
         21   -1    0    0  502  501  0.00000000000E+00  0.00000000000E+00  0.20343920767E+03  0.20343920767E+03  0.00000000000E+00 0. -1.
         21   -1    0    0  501  502 -0.00000000000E+00 -0.00000000000E+00 -0.24125015468E+03  0.24125015468E+03  0.00000000000E+00 0. -1.
         25    1    1    2    0    0  0.63416275545E+02 -0.90368846855E+01  0.25991046370E+02  0.14284195385E+03  0.12500000000E+03 0.  0.
         25    1    1    2    0    0 -0.94009913818E+02 -0.98726552283E+01  0.57102497046E+00  0.15671840762E+03  0.12500000000E+03 0.  0.
         25    1    1    2    0    0  0.30593638274E+02  0.18909539914E+02 -0.64373018351E+02  0.14512900087E+03  0.12500000000E+03 0.  0.
</event>
<event>
 5    0  0.5648525E-005  0.2401674E+03  0.7546771E-02  0.1119681E+00
         21   -1    0    0  502  501  0.00000000000E+00  0.00000000000E+00  0.23957373024E+03  0.23957373024E+03  0.00000000000E+00 0.  1.
         21   -1    0    0  501  502 -0.00000000000E+00 -0.00000000000E+00 -0.24076259810E+03  0.24076259810E+03  0.00000000000E+00 0.  1.
         25    1    1    2    0    0  0.18016984992E+02 -0.85683724076E+02 -0.37069395096E+02  0.15705238735E+03  0.12500000000E+03 0.  0.
         25    1    1    2    0    0  0.88351804740E+01  0.12133983402E+03  0.67165796658E+02  0.18691618436E+03  0.12500000000E+03 0.  0.
         25    1    1    2    0    0 -0.26852165466E+02 -0.35656109946E+02 -0.31285269415E+02  0.13636775663E+03  0.12500000000E+03 0.  0.
</event>
<event>
 5    0  0.5648525E-005  0.3443405E+03  0.7546771E-02  0.1064962E+00
         21   -1    0    0  502  501  0.00000000000E+00  0.00000000000E+00  0.90203282733E+03  0.90203282733E+03  0.00000000000E+00 0. -1.
         21   -1    0    0  501  502 -0.00000000000E+00 -0.00000000000E+00 -0.13144798557E+03  0.13144798557E+03  0.00000000000E+00 0. -1.
         25    1    1    2    0    0 -0.85352811947E+02 -0.13418094279E+03  0.88155089624E+02  0.22064892418E+03  0.12500000000E+03 0.  0.
         25    1    1    2    0    0 -0.76823968406E+02  0.28773429653E+02  0.49132001165E+03  0.51356614591E+03  0.12500000000E+03 0.  0.
         25    1    1    2    0    0  0.16217678035E+03  0.10540751314E+03  0.19110974049E+03  0.29926574281E+03  0.12500000000E+03 0.  0.
</event>
<event>
 5    0  0.5648525E-005  0.3337698E+03  0.7546771E-02  0.1069481E+00
         21   -1    0    0  502  501  0.00000000000E+00  0.00000000000E+00  0.20249400427E+03  0.20249400427E+03  0.00000000000E+00 0. -1.
         21   -1    0    0  501  502 -0.00000000000E+00 -0.00000000000E+00 -0.55015101978E+03  0.55015101978E+03  0.00000000000E+00 0. -1.
         25    1    1    2    0    0 -0.27800260760E+02 -0.92039884767E+02 -0.16875597422E+03  0.23097136992E+03  0.12500000000E+03 0.  0.
         25    1    1    2    0    0 -0.13444280072E+03 -0.25553726013E+02  0.50842348363E+02  0.19219210172E+03  0.12500000000E+03 0.  0.
         25    1    1    2    0    0  0.16224306148E+03  0.11759361078E+03 -0.22974338965E+03  0.32948155242E+03  0.12500000000E+03 0.  0.
</event>
<event>
 5    0  0.5648525E-005  0.2836636E+03  0.7546771E-02  0.1093705E+00
         21   -1    0    0  502  501  0.00000000000E+00  0.00000000000E+00  0.11226828702E+04  0.11226828702E+04  0.00000000000E+00 0.  1.
         21   -1    0    0  501  502 -0.00000000000E+00 -0.00000000000E+00 -0.71672079091E+02  0.71672079091E+02  0.00000000000E+00 0.  1.
         25    1    1    2    0    0 -0.96634940741E+02  0.25058935515E+02  0.14646067881E+03  0.21689166065E+03  0.12500000000E+03 0.  0.
         25    1    1    2    0    0  0.16864045097E+03 -0.42050489795E+02  0.65046103232E+03  0.68478639002E+03  0.12500000000E+03 0.  0.
         25    1    1    2    0    0 -0.72005510231E+02  0.16991554280E+02  0.25408907998E+03  0.29267689862E+03  0.12500000000E+03 0.  0.
</event>
<event>
 5    0  0.5648525E-005  0.2506554E+03  0.7546771E-02  0.1112891E+00
         21   -1    0    0  502  501  0.00000000000E+00  0.00000000000E+00  0.56856059724E+02  0.56856059724E+02  0.00000000000E+00 0.  1.
         21   -1    0    0  501  502 -0.00000000000E+00 -0.00000000000E+00 -0.11050382817E+04  0.11050382817E+04  0.00000000000E+00 0.  1.
         25    1    1    2    0    0  0.10777103430E+02  0.71760682933E+02 -0.15262341263E+03  0.21020144542E+03  0.12500000000E+03 0.  0.
         25    1    1    2    0    0 -0.28535423539E+01 -0.12670872968E+03 -0.40439720496E+03  0.44184312177E+03  0.12500000000E+03 0.  0.
         25    1    1    2    0    0 -0.79235610764E+01  0.54948046742E+02 -0.49116160444E+03  0.50984977428E+03  0.12500000000E+03 0.  0.
</event>
<event>
 5    0  0.5648525E-005  0.2712947E+03  0.7546771E-02  0.1100541E+00
         21   -1    0    0  502  501  0.00000000000E+00  0.00000000000E+00  0.11267357655E+03  0.11267357655E+03  0.00000000000E+00 0. -1.
         21   -1    0    0  501  502 -0.00000000000E+00 -0.00000000000E+00 -0.65322183673E+03  0.65322183673E+03  0.00000000000E+00 0. -1.
         25    1    1    2    0    0  0.13270009273E+03 -0.12599100282E+03 -0.25193086739E+03  0.33552527379E+03  0.12500000000E+03 0.  0.
         25    1    1    2    0    0 -0.85445941315E+02  0.71329389015E+02 -0.10823290346E+03  0.19931947224E+03  0.12500000000E+03 0.  0.
         25    1    1    2    0    0 -0.47254151415E+02  0.54661613809E+02 -0.18038448932E+03  0.23105066725E+03  0.12500000000E+03 0.  0.
</event>
<event>
 5    0  0.5648525E-005  0.3174084E+03  0.7546771E-02  0.1076848E+00
         21   -1    0    0  502  501  0.00000000000E+00  0.00000000000E+00  0.80202228089E+02  0.80202228089E+02  0.00000000000E+00 0.  1.
         21   -1    0    0  501  502 -0.00000000000E+00 -0.00000000000E+00 -0.12561754063E+04  0.12561754063E+04  0.00000000000E+00 0.  1.
         25    1    1    2    0    0  0.14025223729E+02  0.67797347334E+02 -0.29609962264E+03  0.32877526326E+03  0.12500000000E+03 0.  0.
         25    1    1    2    0    0 -0.13550592414E+03  0.29278326274E+02 -0.11985333386E+03  0.22183078574E+03  0.12500000000E+03 0.  0.
         25    1    1    2    0    0  0.12148070041E+03 -0.97075673609E+02 -0.76002022168E+03  0.78577158534E+03  0.12500000000E+03 0.  0.
</event>
<event>
 5    0  0.5648525E-005  0.4556116E+03  0.7546771E-02  0.1026062E+00
         21   -1    0    0  502  501  0.00000000000E+00  0.00000000000E+00  0.31558795842E+03  0.31558795842E+03  0.00000000000E+00 0.  1.
         21   -1    0    0  501  502 -0.00000000000E+00 -0.00000000000E+00 -0.65776238546E+03  0.65776238546E+03  0.00000000000E+00 0.  1.
         25    1    1    2    0    0 -0.39735234513E+02 -0.77297184327E+02 -0.29331054287E+03  0.33046908800E+03  0.12500000000E+03 0.  0.
         25    1    1    2    0    0  0.19261203713E+03 -0.12559190960E+03 -0.19299095642E+03  0.32518184737E+03  0.12500000000E+03 0.  0.
         25    1    1    2    0    0 -0.15287680261E+03  0.20288909392E+03  0.14412707225E+03  0.31769940851E+03  0.12500000000E+03 0.  0.
</event>
<event>
 5    0  0.5648525E-005  0.2789464E+03  0.7546771E-02  0.1096266E+00
         21   -1    0    0  502  501  0.00000000000E+00  0.00000000000E+00  0.11376533707E+04  0.11376533707E+04  0.00000000000E+00 0.  1.
         21   -1    0    0  501  502 -0.00000000000E+00 -0.00000000000E+00 -0.68396154126E+02  0.68396154126E+02  0.00000000000E+00 0.  1.
         25    1    1    2    0    0  0.21717231954E+02  0.11440708534E+03  0.61404198196E+03  0.63736424041E+03  0.12500000000E+03 0.  0.
         25    1    1    2    0    0 -0.48633055194E+02  0.37634234810E+02  0.22467546837E+03  0.26435880120E+03  0.12500000000E+03 0.  0.
         25    1    1    2    0    0  0.26915823240E+02 -0.15204132015E+03  0.23053976630E+03  0.30432648327E+03  0.12500000000E+03 0.  0.
</event>
<event>
 5    0  0.5648525E-005  0.2798962E+03  0.7546771E-02  0.1095746E+00
         21   -1    0    0  502  501  0.00000000000E+00  0.00000000000E+00  0.61700867554E+03  0.61700867554E+03  0.00000000000E+00 0.  1.
         21   -1    0    0  501  502 -0.00000000000E+00 -0.00000000000E+00 -0.12697044217E+03  0.12697044217E+03  0.00000000000E+00 0.  1.
         25    1    1    2    0    0  0.11040238948E+03  0.87592481939E+02  0.33338016860E+02  0.19130487151E+03  0.12500000000E+03 0.  0.
         25    1    1    2    0    0 -0.80770545661E+02  0.92091426691E+01  0.24481800673E+03  0.28665230817E+03  0.12500000000E+03 0.  0.
         25    1    1    2    0    0 -0.29631843818E+02 -0.96801624608E+02  0.21188220978E+03  0.26602193804E+03  0.12500000000E+03 0.  0.
</event>
<event>
 5    0  0.5648525E-005  0.3095402E+03  0.7546771E-02  0.1080566E+00
         21   -1    0    0  502  501  0.00000000000E+00  0.00000000000E+00  0.65916363796E+02  0.65916363796E+02  0.00000000000E+00 0. -1.
         21   -1    0    0  501  502 -0.00000000000E+00 -0.00000000000E+00 -0.14535863212E+04  0.14535863212E+04  0.00000000000E+00 0. -1.
         25    1    1    2    0    0 -0.15317791717E+02  0.19658275991E+03 -0.53203706634E+03  0.58100590031E+03  0.12500000000E+03 0.  0.
         25    1    1    2    0    0  0.47012506961E+01 -0.40573897094E+02 -0.59767670878E+03  0.61197286794E+03  0.12500000000E+03 0.  0.
         25    1    1    2    0    0  0.10616541020E+02 -0.15600886282E+03 -0.25795618226E+03  0.32652391671E+03  0.12500000000E+03 0.  0.
</event>
<event>
 5    0  0.5648525E-005  0.3069113E+03  0.7546771E-02  0.1081836E+00
         21   -1    0    0  502  501  0.00000000000E+00  0.00000000000E+00  0.45818177444E+03  0.45818177444E+03  0.00000000000E+00 0. -1.
         21   -1    0    0  501  502 -0.00000000000E+00 -0.00000000000E+00 -0.20558341810E+03  0.20558341810E+03  0.00000000000E+00 0. -1.
         25    1    1    2    0    0 -0.18471071883E+03 -0.81795153962E+02  0.19219732434E+03  0.30557046380E+03  0.12500000000E+03 0.  0.
         25    1    1    2    0    0  0.16229939273E+02  0.44408733615E+02  0.56420312082E+02  0.14506480678E+03  0.12500000000E+03 0.  0.
         25    1    1    2    0    0  0.16848077956E+03  0.37386420347E+02  0.39807199283E+01  0.21312992197E+03  0.12500000000E+03 0.  0.
</event>
<event>
 5    0  0.6001705E-005  0.3388131E+03  0.7546771E-02  0.1067303E+00
         21   -1    0    0  502  501  0.00000000000E+00  0.00000000000E+00  0.69061927980E+03  0.69061927980E+03  0.00000000000E+00 0. -1.
         21   -1    0    0  501  502 -0.00000000000E+00 -0.00000000000E+00 -0.16621935352E+03  0.16621935352E+03  0.00000000000E+00 0. -1.
         25    1    1    2    0    0  0.16324864942E+03  0.70706512008E+01  0.34622038386E+03  0.40273275239E+03  0.12500000000E+03 0.  0.
         25    1    1    2    0    0 -0.16419890577E+02 -0.13585491034E+03  0.68508834777E+02  0.19759714045E+03  0.12500000000E+03 0.  0.
         25    1    1    2    0    0 -0.14682875885E+03  0.12878425914E+03  0.10967070765E+03  0.25650874048E+03  0.12500000000E+03 0.  0.
</event>
<event>
 5    0  0.5648525E-005  0.3477289E+03  0.7546771E-02  0.1063551E+00
         21   -1    0    0  502  501  0.00000000000E+00  0.00000000000E+00  0.21500713384E+03  0.21500713384E+03  0.00000000000E+00 0.  1.
         21   -1    0    0  501  502 -0.00000000000E+00 -0.00000000000E+00 -0.56237849788E+03  0.56237849788E+03  0.00000000000E+00 0.  1.
         25    1    1    2    0    0 -0.10327243941E+03 -0.96622309574E+02 -0.16525190644E+03  0.25086701663E+03  0.12500000000E+03 0.  0.
         25    1    1    2    0    0  0.60319912638E+02  0.23402799666E+03 -0.14203894752E+02  0.27245980567E+03  0.12500000000E+03 0.  0.
         25    1    1    2    0    0  0.42952526773E+02 -0.13740568709E+03 -0.16791556284E+03  0.25405880942E+03  0.12500000000E+03 0.  0.
</event>
<event>
 5    0  0.5648525E-005  0.2962317E+03  0.7546771E-02  0.1087140E+00
         21   -1    0    0  502  501  0.00000000000E+00  0.00000000000E+00  0.10543113018E+03  0.10543113018E+03  0.00000000000E+00 0. -1.
         21   -1    0    0  501  502 -0.00000000000E+00 -0.00000000000E+00 -0.83232718899E+03  0.83232718899E+03  0.00000000000E+00 0. -1.
         25    1    1    2    0    0  0.13010268550E+03 -0.75563568945E+02 -0.17448641669E+03  0.26212033750E+03  0.12500000000E+03 0.  0.
         25    1    1    2    0    0 -0.11684072972E+03  0.13447610230E+03 -0.19497415137E+03  0.29219085871E+03  0.12500000000E+03 0.  0.
         25    1    1    2    0    0 -0.13261955783E+02 -0.58912533354E+02 -0.35743549075E+03  0.38344712296E+03  0.12500000000E+03 0.  0.
</event>
<event>
 5    0  0.5648525E-005  0.3311912E+03  0.7546771E-02  0.1070611E+00
         21   -1    0    0  502  501  0.00000000000E+00  0.00000000000E+00  0.13706540791E+03  0.13706540791E+03  0.00000000000E+00 0.  1.
         21   -1    0    0  501  502 -0.00000000000E+00 -0.00000000000E+00 -0.80025723481E+03  0.80025723481E+03  0.00000000000E+00 0.  1.
         25    1    1    2    0    0 -0.19639217555E+03  0.39942990198E+02 -0.18280195732E+03  0.29867521605E+03  0.12500000000E+03 0.  0.
         25    1    1    2    0    0  0.60868618857E+02  0.96223018987E+02 -0.10566190803E+03  0.19938228846E+03  0.12500000000E+03 0.  0.
         25    1    1    2    0    0  0.13552355669E+03 -0.13616600919E+03 -0.37472796155E+03  0.43926513820E+03  0.12500000000E+03 0.  0.
</event>
<event>
 5    0  0.5648525E-005  0.2497786E+03  0.7546771E-02  0.1113445E+00
         21   -1    0    0  502  501  0.00000000000E+00  0.00000000000E+00  0.14858156381E+03  0.14858156381E+03  0.00000000000E+00 0. -1.
         21   -1    0    0  501  502 -0.00000000000E+00 -0.00000000000E+00 -0.41989977719E+03  0.41989977719E+03  0.00000000000E+00 0. -1.
         25    1    1    2    0    0  0.10683178700E+02  0.15879646227E+02 -0.49306214692E+01  0.12655277357E+03  0.12500000000E+03 0.  0.
         25    1    1    2    0    0  0.11456816160E+03 -0.11340646455E+01 -0.91408325253E+02  0.19263341268E+03  0.12500000000E+03 0.  0.
         25    1    1    2    0    0 -0.12525134030E+03 -0.14745581581E+02 -0.17497926665E+03  0.24929515475E+03  0.12500000000E+03 0.  0.
</event>
<event>
 5    0  0.5648525E-005  0.2214148E+03  0.7546771E-02  0.1132833E+00
         21   -1    0    0  502  501  0.00000000000E+00  0.00000000000E+00  0.51831472350E+02  0.51831472350E+02  0.00000000000E+00 0. -1.
         21   -1    0    0  501  502 -0.00000000000E+00 -0.00000000000E+00 -0.94584441852E+03  0.94584441852E+03  0.00000000000E+00 0. -1.
         25    1    1    2    0    0 -0.10132801293E+02 -0.80685278779E+02 -0.22611676685E+03  0.27086265916E+03  0.12500000000E+03 0.  0.
         25    1    1    2    0    0 -0.19891597075E+02 -0.10308375379E+02 -0.25435083900E+03  0.28429085026E+03  0.12500000000E+03 0.  0.
         25    1    1    2    0    0  0.30024398368E+02  0.90993654158E+02 -0.41354534031E+03  0.44252238145E+03  0.12500000000E+03 0.  0.
</event>
<event>
 5    0  0.5648525E-005  0.5560018E+03  0.7546771E-02  0.1000114E+00
         21   -1    0    0  502  501  0.00000000000E+00  0.00000000000E+00  0.20876762712E+03  0.20876762712E+03  0.00000000000E+00 0. -1.
         21   -1    0    0  501  502 -0.00000000000E+00 -0.00000000000E+00 -0.14807753657E+04  0.14807753657E+04  0.00000000000E+00 0. -1.
         25    1    1    2    0    0  0.31881382370E+03  0.10474415188E+03 -0.35347964800E+03  0.50317636379E+03  0.12500000000E+03 0.  0.
         25    1    1    2    0    0 -0.30435688344E+03 -0.34039012160E+03 -0.48959520463E+03  0.68104846507E+03  0.12500000000E+03 0.  0.
         25    1    1    2    0    0 -0.14456940255E+02  0.23564596972E+03 -0.42893288596E+03  0.50531816396E+03  0.12500000000E+03 0.  0.
</event>
<event>
 5    0  0.5648525E-005  0.3358499E+03  0.7546771E-02  0.1068577E+00
         21   -1    0    0  502  501  0.00000000000E+00  0.00000000000E+00  0.77318708641E+02  0.77318708641E+02  0.00000000000E+00 0. -1.
         21   -1    0    0  501  502 -0.00000000000E+00 -0.00000000000E+00 -0.14588341258E+04  0.14588341258E+04  0.00000000000E+00 0. -1.
         25    1    1    2    0    0  0.15084104340E+03  0.12884224575E+03 -0.24843741222E+03  0.34161307419E+03  0.12500000000E+03 0.  0.
         25    1    1    2    0    0 -0.15830981163E+03 -0.93778394598E+01 -0.68713163998E+03  0.71618770654E+03  0.12500000000E+03 0.  0.
         25    1    1    2    0    0  0.74687682308E+01 -0.11946440629E+03 -0.44594636492E+03  0.47835205368E+03  0.12500000000E+03 0.  0.
</event>
<event>
 5    0  0.5648525E-005  0.2778093E+03  0.7546771E-02  0.1096891E+00
         21   -1    0    0  502  501  0.00000000000E+00  0.00000000000E+00  0.11097538685E+03  0.11097538685E+03  0.00000000000E+00 0. -1.
         21   -1    0    0  501  502 -0.00000000000E+00 -0.00000000000E+00 -0.69545179036E+03  0.69545179036E+03  0.00000000000E+00 0. -1.
         25    1    1    2    0    0  0.43674821454E+02  0.10279075394E+03 -0.10997495860E+03  0.20048172147E+03  0.12500000000E+03 0.  0.
         25    1    1    2    0    0 -0.71738213977E+02  0.34708738420E+02 -0.78804435793E+02  0.16788748306E+03  0.12500000000E+03 0.  0.
         25    1    1    2    0    0  0.28063392523E+02 -0.13749949236E+03 -0.39569700912E+03  0.43805797268E+03  0.12500000000E+03 0.  0.
</event>
<event>
 5    0  0.5648525E-005  0.4340182E+03  0.7546771E-02  0.1032598E+00
         21   -1    0    0  502  501  0.00000000000E+00  0.00000000000E+00  0.10338514176E+04  0.10338514176E+04  0.00000000000E+00 0. -1.
         21   -1    0    0  501  502 -0.00000000000E+00 -0.00000000000E+00 -0.18220393229E+03  0.18220393229E+03  0.00000000000E+00 0. -1.
         25    1    1    2    0    0 -0.16091450185E+03 -0.46558843516E+02  0.13996871811E+02  0.20948058439E+03  0.12500000000E+03 0.  0.
         25    1    1    2    0    0  0.31054664339E+03  0.21632068976E+01  0.65572587248E+03  0.73623726952E+03  0.12500000000E+03 0.  0.
         25    1    1    2    0    0 -0.14963214154E+03  0.44395636618E+02  0.18192474098E+03  0.27033749594E+03  0.12500000000E+03 0.  0.
</event>
<event>
 5    0  0.5648525E-005  0.3089149E+03  0.7546771E-02  0.1080867E+00
         21   -1    0    0  502  501  0.00000000000E+00  0.00000000000E+00  0.48198562982E+02  0.48198562982E+02  0.00000000000E+00 0.  1.
         21   -1    0    0  501  502 -0.00000000000E+00 -0.00000000000E+00 -0.19799019707E+04  0.19799019707E+04  0.00000000000E+00 0.  1.
         25    1    1    2    0    0 -0.15904565580E+02 -0.76347636208E+02 -0.62069300252E+03  0.63793943297E+03  0.12500000000E+03 0.  0.
         25    1    1    2    0    0 -0.18184715731E+03  0.39516004784E+02 -0.69128477139E+03  0.72672521520E+03  0.12500000000E+03 0.  0.
         25    1    1    2    0    0  0.19775172289E+03  0.36831631424E+02 -0.61972563382E+03  0.66343588552E+03  0.12500000000E+03 0.  0.
</event>
<event>
 5    0  0.5648525E-005  0.2912723E+03  0.7546771E-02  0.1089687E+00
         21   -1    0    0  502  501  0.00000000000E+00  0.00000000000E+00  0.54287411380E+03  0.54287411380E+03  0.00000000000E+00 0.  1.
         21   -1    0    0  501  502 -0.00000000000E+00 -0.00000000000E+00 -0.15627852081E+03  0.15627852081E+03  0.00000000000E+00 0.  1.
         25    1    1    2    0    0  0.13456608306E+03 -0.19188481680E+02  0.29356166276E+03  0.34681360755E+03  0.12500000000E+03 0.  0.
         25    1    1    2    0    0  0.33785630455E+02  0.86431992097E+01  0.39943531268E+02  0.13578166079E+03  0.12500000000E+03 0.  0.
         25    1    1    2    0    0 -0.16835171351E+03  0.10545282471E+02  0.53090398955E+02  0.21655736627E+03  0.12500000000E+03 0.  0.
</event>
<event>
 5    0  0.5648525E-005  0.2730503E+03  0.7546771E-02  0.1099546E+00
         21   -1    0    0  502  501  0.00000000000E+00  0.00000000000E+00  0.49311887989E+03  0.49311887989E+03  0.00000000000E+00 0. -1.
         21   -1    0    0  501  502 -0.00000000000E+00 -0.00000000000E+00 -0.15119372475E+03  0.15119372475E+03  0.00000000000E+00 0. -1.
         25    1    1    2    0    0 -0.35542330743E+02 -0.13722184512E+02  0.95932385800E+02  0.16210977228E+03  0.12500000000E+03 0.  0.
         25    1    1    2    0    0  0.15214110964E+03  0.10076034304E+03  0.10975206450E+03  0.24692120126E+03  0.12500000000E+03 0.  0.
         25    1    1    2    0    0 -0.11659877890E+03 -0.87038158525E+02  0.13624070484E+03  0.23528163111E+03  0.12500000000E+03 0.  0.
</event>
<event>
 5    0  0.5648525E-005  0.2617831E+03  0.7546771E-02  0.1106077E+00
         21   -1    0    0  502  501  0.00000000000E+00  0.00000000000E+00  0.76313189196E+02  0.76313189196E+02  0.00000000000E+00 0. -1.
         21   -1    0    0  501  502 -0.00000000000E+00 -0.00000000000E+00 -0.89801531228E+03  0.89801531228E+03  0.00000000000E+00 0. -1.
         25    1    1    2    0    0  0.82359172314E+02 -0.71419821439E+02 -0.47704158652E+03  0.50505197695E+03  0.12500000000E+03 0.  0.
         25    1    1    2    0    0  0.37264022220E+02  0.22318058898E+01 -0.16599848209E+03  0.21112575486E+03  0.12500000000E+03 0.  0.
         25    1    1    2    0    0 -0.11962319453E+03  0.69188015549E+02 -0.17866205448E+03  0.25815076966E+03  0.12500000000E+03 0.  0.
</event>
<event>
 5    0  0.5648525E-005  0.2878459E+03  0.7546771E-02  0.1091479E+00
         21   -1    0    0  502  501  0.00000000000E+00  0.00000000000E+00  0.98744705742E+03  0.98744705742E+03  0.00000000000E+00 0. -1.
         21   -1    0    0  501  502 -0.00000000000E+00 -0.00000000000E+00 -0.83908558589E+02  0.83908558589E+02  0.00000000000E+00 0. -1.
         25    1    1    2    0    0  0.20889827578E+02  0.86201773159E+02  0.56859910645E+03  0.58889479064E+03  0.12500000000E+03 0.  0.
         25    1    1    2    0    0  0.30684820464E+02 -0.44870986795E+02  0.31031869448E+03  0.33893606448E+03  0.12500000000E+03 0.  0.
         25    1    1    2    0    0 -0.51574648042E+02 -0.41330786364E+02  0.24620697905E+02  0.14352476089E+03  0.12500000000E+03 0.  0.
</event>
<event>
 5    0  0.5648525E-005  0.2632137E+03  0.7546771E-02  0.1105228E+00
         21   -1    0    0  502  501  0.00000000000E+00  0.00000000000E+00  0.54258059385E+02  0.54258059385E+02  0.00000000000E+00 0.  1.
         21   -1    0    0  501  502 -0.00000000000E+00 -0.00000000000E+00 -0.12768879354E+04  0.12768879354E+04  0.00000000000E+00 0.  1.
         25    1    1    2    0    0  0.62047840963E+02  0.93590046431E+02 -0.53754260661E+03  0.56319276033E+03  0.12500000000E+03 0.  0.
         25    1    1    2    0    0 -0.12198263333E+03 -0.72015503113E+02 -0.26793905342E+03  0.32784498146E+03  0.12500000000E+03 0.  0.
         25    1    1    2    0    0  0.59934792372E+02 -0.21574543319E+02 -0.41714821597E+03  0.44010825298E+03  0.12500000000E+03 0.  0.
</event>
<event>
 5    0  0.5648525E-005  0.2675687E+03  0.7546771E-02  0.1102679E+00
         21   -1    0    0  502  501  0.00000000000E+00  0.00000000000E+00  0.39895133052E+03  0.39895133052E+03  0.00000000000E+00 0.  1.
         21   -1    0    0  501  502 -0.00000000000E+00 -0.00000000000E+00 -0.17945298002E+03  0.17945298002E+03  0.00000000000E+00 0.  1.
         25    1    1    2    0    0  0.73951500860E+02 -0.59267565316E+02  0.14502646674E+03  0.21363320162E+03  0.12500000000E+03 0.  0.
         25    1    1    2    0    0  0.58940612176E+02  0.94353083077E+02  0.82626556702E+01  0.16754035791E+03  0.12500000000E+03 0.  0.
         25    1    1    2    0    0 -0.13289211304E+03 -0.35085517761E+02  0.66209228091E+02  0.19723075102E+03  0.12500000000E+03 0.  0.
</event>
<event>
 5    0  0.5648525E-005  0.3154310E+03  0.7546771E-02  0.1077772E+00
         21   -1    0    0  502  501  0.00000000000E+00  0.00000000000E+00  0.12458136350E+04  0.12458136350E+04  0.00000000000E+00 0.  1.
         21   -1    0    0  501  502 -0.00000000000E+00 -0.00000000000E+00 -0.79864849368E+02  0.79864849368E+02  0.00000000000E+00 0.  1.
         25    1    1    2    0    0 -0.71342057108E+02  0.16314108044E+03  0.32469123911E+03  0.39083769265E+03  0.12500000000E+03 0.  0.
         25    1    1    2    0    0  0.35728749839E+02 -0.22579233306E+03  0.59271920239E+03  0.64745638781E+03  0.12500000000E+03 0.  0.
         25    1    1    2    0    0  0.35613307269E+02  0.62651252618E+02  0.24853834415E+03  0.28738440393E+03  0.12500000000E+03 0.  0.
</event>
<event>
 5    0  0.5648525E-005  0.2697253E+03  0.7546771E-02  0.1101437E+00
         21   -1    0    0  502  501  0.00000000000E+00  0.00000000000E+00  0.19315485531E+03  0.19315485531E+03  0.00000000000E+00 0. -1.
         21   -1    0    0  501  502 -0.00000000000E+00 -0.00000000000E+00 -0.37664978043E+03  0.37664978043E+03  0.00000000000E+00 0. -1.
         25    1    1    2    0    0 -0.72085452513E+02 -0.11118810911E+03  0.29926798857E+02  0.18460693747E+03  0.12500000000E+03 0.  0.
         25    1    1    2    0    0  0.40553851338E+02  0.54946402391E+02 -0.19770584805E+03  0.24367257611E+03  0.12500000000E+03 0.  0.
         25    1    1    2    0    0  0.31531601175E+02  0.56241706723E+02 -0.15715875921E+02  0.14152512217E+03  0.12500000000E+03 0.  0.
</event>
<event>
 5    0  0.5648525E-005  0.3055929E+03  0.7546771E-02  0.1082478E+00
         21   -1    0    0  502  501  0.00000000000E+00  0.00000000000E+00  0.20871956229E+03  0.20871956229E+03  0.00000000000E+00 0. -1.
         21   -1    0    0  501  502 -0.00000000000E+00 -0.00000000000E+00 -0.44742831905E+03  0.44742831905E+03  0.00000000000E+00 0. -1.
         25    1    1    2    0    0  0.31040809838E+02  0.16430586938E+03 -0.16171652047E+03  0.26407798769E+03  0.12500000000E+03 0.  0.
         25    1    1    2    0    0 -0.14138006062E+02  0.50299957633E+02 -0.29272068601E+02  0.13860672045E+03  0.12500000000E+03 0.  0.
         25    1    1    2    0    0 -0.16902803776E+02 -0.21460582702E+03 -0.47720167689E+02  0.25346317320E+03  0.12500000000E+03 0.  0.
</event>
<event>
 5    0  0.5727559E-005  0.2859756E+03  0.7546771E-02  0.1092469E+00
         21   -1    0    0  502  501  0.00000000000E+00  0.00000000000E+00  0.46577239817E+03  0.46577239817E+03  0.00000000000E+00 0. -1.
         21   -1    0    0  501  502 -0.00000000000E+00 -0.00000000000E+00 -0.17558376517E+03  0.17558376517E+03  0.00000000000E+00 0. -1.
         25    1    1    2    0    0  0.69281006563E+02  0.76500152096E+01  0.33975418675E+03  0.36866826283E+03  0.12500000000E+03 0.  0.
         25    1    1    2    0    0 -0.45213247061E+02  0.28194012266E+02 -0.23611550885E+02  0.13791898119E+03  0.12500000000E+03 0.  0.
         25    1    1    2    0    0 -0.24067759502E+02 -0.35844027476E+02 -0.25954002862E+02  0.13476891933E+03  0.12500000000E+03 0.  0.
</event>
<event>
 5    0  0.5648525E-005  0.2593848E+03  0.7546771E-02  0.1107513E+00
         21   -1    0    0  502  501  0.00000000000E+00  0.00000000000E+00  0.38702869681E+03  0.38702869681E+03  0.00000000000E+00 0.  1.
         21   -1    0    0  501  502 -0.00000000000E+00 -0.00000000000E+00 -0.17383842919E+03  0.17383842919E+03  0.00000000000E+00 0.  1.
         25    1    1    2    0    0 -0.21986652510E+02 -0.10484385890E+03  0.19255613730E+03  0.25333478571E+03  0.12500000000E+03 0.  0.
         25    1    1    2    0    0 -0.11356483748E+02  0.12100208071E+03 -0.60750311348E+01  0.17444878694E+03  0.12500000000E+03 0.  0.
         25    1    1    2    0    0  0.33343136258E+02 -0.16158221810E+02  0.26709161462E+02  0.13308355336E+03  0.12500000000E+03 0.  0.
</event>
<event>
 5    0  0.6294970E-005  0.2979598E+03  0.7546771E-02  0.1086265E+00
         21   -1    0    0  502  501  0.00000000000E+00  0.00000000000E+00  0.48861615353E+03  0.48861615353E+03  0.00000000000E+00 0. -1.
         21   -1    0    0  501  502 -0.00000000000E+00 -0.00000000000E+00 -0.18169685255E+03  0.18169685255E+03  0.00000000000E+00 0. -1.
         25    1    1    2    0    0 -0.24907155450E+02  0.10861234473E+03  0.89649151826E+02  0.18994467153E+03  0.12500000000E+03 0.  0.
         25    1    1    2    0    0 -0.80602519714E+02  0.20567372010E+02  0.22647957200E+03  0.27173107939E+03  0.12500000000E+03 0.  0.
         25    1    1    2    0    0  0.10550967516E+03 -0.12917971674E+03 -0.92094228413E+01  0.20863725516E+03  0.12500000000E+03 0.  0.
</event>
<event>
 5    0  0.5648525E-005  0.5859415E+03  0.7546771E-02  0.9935010E-01
         21   -1    0    0  502  501  0.00000000000E+00  0.00000000000E+00  0.12084943724E+04  0.12084943724E+04  0.00000000000E+00 0.  1.
         21   -1    0    0  501  502 -0.00000000000E+00 -0.00000000000E+00 -0.28409521896E+03  0.28409521896E+03  0.00000000000E+00 0.  1.
         25    1    1    2    0    0  0.34807339977E+03 -0.70248950405E+02  0.76441490282E+03  0.85208283066E+03  0.12500000000E+03 0.  0.
         25    1    1    2    0    0 -0.43426537045E+02  0.22072771391E+03  0.50458655855E+02  0.26225495946E+03  0.12500000000E+03 0.  0.
         25    1    1    2    0    0 -0.30464686272E+03 -0.15047876351E+03  0.10952559476E+03  0.37825180124E+03  0.12500000000E+03 0.  0.
</event>
<event>
 5    0  0.5648525E-005  0.3107114E+03  0.7546771E-02  0.1080005E+00
         21   -1    0    0  502  501  0.00000000000E+00  0.00000000000E+00  0.11660444809E+04  0.11660444809E+04  0.00000000000E+00 0. -1.
         21   -1    0    0  501  502 -0.00000000000E+00 -0.00000000000E+00 -0.82794063992E+02  0.82794063992E+02  0.00000000000E+00 0. -1.
         25    1    1    2    0    0 -0.10326242436E+03 -0.15770297572E+03  0.23545912196E+03  0.32649556651E+03  0.12500000000E+03 0.  0.
         25    1    1    2    0    0 -0.34220637044E+02  0.89800981718E+02  0.28375089549E+03  0.32461490879E+03  0.12500000000E+03 0.  0.
         25    1    1    2    0    0  0.13748306140E+03  0.67901993998E+02  0.56404039943E+03  0.59772806957E+03  0.12500000000E+03 0.  0.
</event>
<event>
 5    0  0.5648525E-005  0.3203830E+03  0.7546771E-02  0.1075473E+00
         21   -1    0    0  502  501  0.00000000000E+00  0.00000000000E+00  0.10987642947E+04  0.10987642947E+04  0.00000000000E+00 0. -1.
         21   -1    0    0  501  502 -0.00000000000E+00 -0.00000000000E+00 -0.93418829545E+02  0.93418829545E+02  0.00000000000E+00 0. -1.
         25    1    1    2    0    0 -0.12595327695E+03 -0.39661037133E+02  0.67069761215E+03  0.69490827652E+03  0.12500000000E+03 0.  0.
         25    1    1    2    0    0  0.13587597737E+03 -0.70060192521E+02  0.21640634395E+03  0.29296316748E+03  0.12500000000E+03 0.  0.
         25    1    1    2    0    0 -0.99227004182E+01  0.10972122965E+03  0.11824150908E+03  0.20431168026E+03  0.12500000000E+03 0.  0.
</event>
<event>
 5    0  0.5648525E-005  0.3722210E+03  0.7546771E-02  0.1053847E+00
         21   -1    0    0  502  501  0.00000000000E+00  0.00000000000E+00  0.81039910876E+03  0.81039910876E+03  0.00000000000E+00 0.  1.
         21   -1    0    0  501  502 -0.00000000000E+00 -0.00000000000E+00 -0.17096325055E+03  0.17096325055E+03  0.00000000000E+00 0.  1.
         25    1    1    2    0    0  0.12952871716E+03  0.14534537754E+03  0.28444284324E+03  0.36665474006E+03  0.12500000000E+03 0.  0.
         25    1    1    2    0    0  0.54842958861E+02 -0.21930403766E+03  0.12839790716E+03  0.28846669414E+03  0.12500000000E+03 0.  0.
         25    1    1    2    0    0 -0.18437167602E+03  0.73958660117E+02  0.22659510781E+03  0.32624092510E+03  0.12500000000E+03 0.  0.
</event>
<event>
 5    0  0.5648525E-005  0.3911732E+03  0.7546771E-02  0.1046880E+00
         21   -1    0    0  502  501  0.00000000000E+00  0.00000000000E+00  0.45010903191E+02  0.45010903191E+02  0.00000000000E+00 0. -1.
         21   -1    0    0  501  502 -0.00000000000E+00 -0.00000000000E+00 -0.33995432177E+04  0.33995432177E+04  0.00000000000E+00 0. -1.
         25    1    1    2    0    0  0.83760421315E+02  0.25059154851E+02 -0.17288315104E+03  0.23055878499E+03  0.12500000000E+03 0.  0.
         25    1    1    2    0    0 -0.21598386841E+02 -0.89096603275E+02 -0.27747021738E+04  0.27790289398E+04  0.12500000000E+03 0.  0.
         25    1    1    2    0    0 -0.62162034474E+02  0.64037448425E+02 -0.40694698969E+03  0.43496639611E+03  0.12500000000E+03 0.  0.
</event>
<event>
 5    0  0.5648525E-005  0.3855730E+03  0.7546771E-02  0.1048893E+00
         21   -1    0    0  502  501  0.00000000000E+00  0.00000000000E+00  0.36831207297E+03  0.36831207297E+03  0.00000000000E+00 0. -1.
         21   -1    0    0  501  502 -0.00000000000E+00 -0.00000000000E+00 -0.40364291464E+03  0.40364291464E+03  0.00000000000E+00 0. -1.
         25    1    1    2    0    0 -0.63756503114E+02 -0.22799615511E+03  0.17342660932E+03  0.31898107664E+03  0.12500000000E+03 0.  0.
         25    1    1    2    0    0  0.11341263534E+03  0.11890869659E+03 -0.18676897642E+03  0.27840501888E+03  0.12500000000E+03 0.  0.
         25    1    1    2    0    0 -0.49656132228E+02  0.10908745851E+03 -0.21988474562E+02  0.17456889209E+03  0.12500000000E+03 0.  0.
</event>
<event>
 5    0  0.5648525E-005  0.7001633E+03  0.7546771E-02  0.9716953E-01
         21   -1    0    0  502  501  0.00000000000E+00  0.00000000000E+00  0.15164076407E+04  0.15164076407E+04  0.00000000000E+00 0.  1.
         21   -1    0    0  501  502 -0.00000000000E+00 -0.00000000000E+00 -0.32328290524E+03  0.32328290524E+03  0.00000000000E+00 0.  1.
         25    1    1    2    0    0  0.48856052418E+03 -0.41656104280E+03  0.40256190793E+03  0.76804659877E+03  0.12500000000E+03 0.  0.
         25    1    1    2    0    0 -0.32408750964E+03  0.13263605425E+03  0.38590638397E+03  0.53588597106E+03  0.12500000000E+03 0.  0.
         25    1    1    2    0    0 -0.16447301454E+03  0.28392498855E+03  0.40465644351E+03  0.53575797606E+03  0.12500000000E+03 0.  0.
</event>
<event>
 5    0  0.5648525E-005  0.2749196E+03  0.7546771E-02  0.1098497E+00
         21   -1    0    0  502  501  0.00000000000E+00  0.00000000000E+00  0.32548453693E+03  0.32548453693E+03  0.00000000000E+00 0.  1.
         21   -1    0    0  501  502 -0.00000000000E+00 -0.00000000000E+00 -0.23221002405E+03  0.23221002405E+03  0.00000000000E+00 0.  1.
         25    1    1    2    0    0 -0.92489591329E+02  0.94841418562E+02  0.32548129484E+02  0.18502324155E+03  0.12500000000E+03 0.  0.
         25    1    1    2    0    0  0.99533421891E+02 -0.13964725851E+03  0.99187481986E+02  0.23424648443E+03  0.12500000000E+03 0.  0.
         25    1    1    2    0    0 -0.70438305624E+01  0.44805839950E+02 -0.38461098586E+02  0.13842483501E+03  0.12500000000E+03 0.  0.
</event>
<event>
 5    0  0.5648525E-005  0.3876163E+03  0.7546771E-02  0.1048154E+00
         21   -1    0    0  502  501  0.00000000000E+00  0.00000000000E+00  0.47586195521E+03  0.47586195521E+03  0.00000000000E+00 0.  1.
         21   -1    0    0  501  502 -0.00000000000E+00 -0.00000000000E+00 -0.31573517545E+03  0.31573517545E+03  0.00000000000E+00 0. -1.
         25    1    1    2    0    0  0.10520827856E+02 -0.28082462039E+03 -0.11153563115E+02  0.30777029942E+03  0.12500000000E+03 0.  0.
         25    1    1    2    0    0 -0.67134054167E+02  0.28033406441E+03  0.13439336136E+03  0.34173197754E+03  0.12500000000E+03 0.  0.
         25    1    1    2    0    0  0.56613226311E+02  0.49055597983E+00  0.36886981514E+02  0.14209485368E+03  0.12500000000E+03 0.  0.
</event>
<event>
 5    0  0.5648525E-005  0.3841971E+03  0.7546771E-02  0.1049393E+00
         21   -1    0    0  502  501  0.00000000000E+00  0.00000000000E+00  0.33200599723E+03  0.33200599723E+03  0.00000000000E+00 0. -1.
         21   -1    0    0  501  502 -0.00000000000E+00 -0.00000000000E+00 -0.44459269573E+03  0.44459269573E+03  0.00000000000E+00 0. -1.
         25    1    1    2    0    0 -0.11908976531E+03  0.11626674643E+03 -0.15467955841E+03  0.25932815951E+03  0.12500000000E+03 0.  0.
         25    1    1    2    0    0  0.26585721531E+03 -0.68069883523E+01  0.22615123617E+02  0.29472502072E+03  0.12500000000E+03 0.  0.
         25    1    1    2    0    0 -0.14676745001E+03 -0.10945975808E+03  0.19477736300E+02  0.22254551272E+03  0.12500000000E+03 0.  0.
</event>
<event>
 5    0  0.5648525E-005  0.3839834E+03  0.7546771E-02  0.1049471E+00
         21   -1    0    0  502  501  0.00000000000E+00  0.00000000000E+00  0.11719486631E+03  0.11719486631E+03  0.00000000000E+00 0. -1.
         21   -1    0    0  501  502 -0.00000000000E+00 -0.00000000000E+00 -0.12581031010E+04  0.12581031010E+04  0.00000000000E+00 0. -1.
         25    1    1    2    0    0 -0.11809770383E+03 -0.17335464119E+03 -0.54020199858E+03  0.59282552116E+03  0.12500000000E+03 0.  0.
         25    1    1    2    0    0  0.24412796481E+03  0.17075133848E+03 -0.36613832104E+03  0.48829985964E+03  0.12500000000E+03 0.  0.
         25    1    1    2    0    0 -0.12603026098E+03  0.26033027047E+01 -0.23456791506E+03  0.29417258650E+03  0.12500000000E+03 0.  0.
</event>
<event>
 5    0  0.5648525E-005  0.3346369E+03  0.7546771E-02  0.1069103E+00
         21   -1    0    0  502  501  0.00000000000E+00  0.00000000000E+00  0.33063694631E+02  0.33063694631E+02  0.00000000000E+00 0. -1.
         21   -1    0    0  501  502 -0.00000000000E+00 -0.00000000000E+00 -0.33868520773E+04  0.33868520773E+04  0.00000000000E+00 0. -1.
         25    1    1    2    0    0 -0.70434517112E+02 -0.19664160015E+03 -0.10955514287E+04  0.11222686279E+04  0.12500000000E+03 0.  0.
         25    1    1    2    0    0  0.50437030584E+02  0.61808241658E+02 -0.17592481882E+04  0.17654867149E+04  0.12500000000E+03 0.  0.
         25    1    1    2    0    0  0.19997486528E+02  0.13483335850E+03 -0.49898876572E+03  0.53216042914E+03  0.12500000000E+03 0.  0.
</event>
<event>
 5    0  0.5648525E-005  0.2892069E+03  0.7546771E-02  0.1090764E+00
         21   -1    0    0  502  501  0.00000000000E+00  0.00000000000E+00  0.10361472925E+03  0.10361472925E+03  0.00000000000E+00 0.  1.
         21   -1    0    0  501  502 -0.00000000000E+00 -0.00000000000E+00 -0.80722733547E+03  0.80722733547E+03  0.00000000000E+00 0.  1.
         25    1    1    2    0    0  0.18697577580E+03  0.46209820719E+02 -0.32995441730E+03  0.40198284262E+03  0.12500000000E+03 0.  0.
         25    1    1    2    0    0 -0.54322401795E+02 -0.36475319719E+02 -0.25415341227E+03  0.29068940341E+03  0.12500000000E+03 0.  0.
         25    1    1    2    0    0 -0.13265337400E+03 -0.97345009998E+01 -0.11950477664E+03  0.21816981868E+03  0.12500000000E+03 0.  0.
</event>
<event>
 5    0  0.5648525E-005  0.2641414E+03  0.7546771E-02  0.1104680E+00
         21   -1    0    0  502  501  0.00000000000E+00  0.00000000000E+00  0.26864721497E+03  0.26864721497E+03  0.00000000000E+00 0. -1.
         21   -1    0    0  501  502 -0.00000000000E+00 -0.00000000000E+00 -0.25971108256E+03  0.25971108256E+03  0.00000000000E+00 0. -1.
         25    1    1    2    0    0  0.91185171820E+02  0.15263279969E+03  0.28619912927E+02  0.21921589020E+03  0.12500000000E+03 0.  0.
         25    1    1    2    0    0 -0.50577233115E+02 -0.92885717997E+02 -0.18326626175E+02  0.16476249071E+03  0.12500000000E+03 0.  0.
         25    1    1    2    0    0 -0.40607938704E+02 -0.59747081694E+02 -0.13571543428E+01  0.14437991662E+03  0.12500000000E+03 0.  0.
</event>
<event>
 5    0  0.5648525E-005  0.2628155E+03  0.7546771E-02  0.1105463E+00
         21   -1    0    0  502  501  0.00000000000E+00  0.00000000000E+00  0.65713342646E+03  0.65713342646E+03  0.00000000000E+00 0. -1.
         21   -1    0    0  501  502 -0.00000000000E+00 -0.00000000000E+00 -0.10511107176E+03  0.10511107176E+03  0.00000000000E+00 0. -1.
         25    1    1    2    0    0  0.23283410908E+02 -0.65916200633E+02  0.39466111798E+02  0.14855852958E+03  0.12500000000E+03 0.  0.
         25    1    1    2    0    0  0.58486310011E+02  0.62043887252E+02  0.11830840146E+03  0.19207282541E+03  0.12500000000E+03 0.  0.
         25    1    1    2    0    0 -0.81769720919E+02  0.38723133807E+01  0.39424784144E+03  0.42161314323E+03  0.12500000000E+03 0.  0.
</event>
<event>
 5    0  0.5648525E-005  0.3634918E+03  0.7546771E-02  0.1057210E+00
         21   -1    0    0  502  501  0.00000000000E+00  0.00000000000E+00  0.30371159646E+03  0.30371159646E+03  0.00000000000E+00 0. -1.
         21   -1    0    0  501  502 -0.00000000000E+00 -0.00000000000E+00 -0.43503872339E+03  0.43503872339E+03  0.00000000000E+00 0. -1.
         25    1    1    2    0    0 -0.26482763783E+02 -0.97709892621E+02 -0.59398010409E+02  0.17146919121E+03  0.12500000000E+03 0.  0.
         25    1    1    2    0    0 -0.75711738444E+02  0.16414921239E+02 -0.26482704005E+03  0.30291926006E+03  0.12500000000E+03 0.  0.
         25    1    1    2    0    0  0.10219450223E+03  0.81294971382E+02  0.19289792353E+03  0.26436186858E+03  0.12500000000E+03 0.  0.
</event>
<event>
 5    0  0.5648525E-005  0.2587047E+03  0.7546771E-02  0.1107924E+00
         21   -1    0    0  502  501  0.00000000000E+00  0.00000000000E+00  0.63274466211E+03  0.63274466211E+03  0.00000000000E+00 0. -1.
         21   -1    0    0  501  502 -0.00000000000E+00 -0.00000000000E+00 -0.10577433733E+03  0.10577433733E+03  0.00000000000E+00 0. -1.
         25    1    1    2    0    0  0.72871901175E+02 -0.11359068322E+03  0.11327618231E+03  0.21603159670E+03  0.12500000000E+03 0.  0.
         25    1    1    2    0    0 -0.18201375029E+02  0.38779228503E+02  0.80433290824E+02  0.15469205826E+03  0.12500000000E+03 0.  0.
         25    1    1    2    0    0 -0.54670526146E+02  0.74811454712E+02  0.33326085164E+03  0.36779534448E+03  0.12500000000E+03 0.  0.
</event>
<event>
 5    0  0.5648525E-005  0.2756424E+03  0.7546771E-02  0.1098093E+00
         21   -1    0    0  502  501  0.00000000000E+00  0.00000000000E+00  0.28427432745E+02  0.28427432745E+02  0.00000000000E+00 0.  1.
         21   -1    0    0  501  502 -0.00000000000E+00 -0.00000000000E+00 -0.26727264396E+04  0.26727264396E+04  0.00000000000E+00 0.  1.
         25    1    1    2    0    0 -0.49505963369E+02 -0.40967772153E+02 -0.74556447676E+03  0.75869663751E+03  0.12500000000E+03 0.  0.
         25    1    1    2    0    0  0.94759495685E+02 -0.98886697559E+02 -0.13062176410E+04  0.13193132557E+04  0.12500000000E+03 0.  0.
         25    1    1    2    0    0 -0.45253532316E+02  0.13985446971E+03 -0.59251688914E+03  0.62314397919E+03  0.12500000000E+03 0.  0.
</event>
<event>
 5    0  0.5648525E-005  0.2614651E+03  0.7546771E-02  0.1106266E+00
         21   -1    0    0  502  501  0.00000000000E+00  0.00000000000E+00  0.11197454925E+04  0.11197454925E+04  0.00000000000E+00 0.  1.
         21   -1    0    0  501  502 -0.00000000000E+00 -0.00000000000E+00 -0.61053138950E+02  0.61053138950E+02  0.00000000000E+00 0.  1.
         25    1    1    2    0    0  0.22197901216E+02  0.74103195833E+02  0.36153144605E+03  0.39027428423E+03  0.12500000000E+03 0.  0.
         25    1    1    2    0    0 -0.25611442569E+02 -0.16075548443E+03  0.28522083956E+03  0.35138895697E+03  0.12500000000E+03 0.  0.
         25    1    1    2    0    0  0.34135413534E+01  0.86652288601E+02  0.41194006792E+03  0.43913539022E+03  0.12500000000E+03 0.  0.
</event>
<event>
 5    0  0.5648525E-005  0.2541226E+03  0.7546771E-02  0.1110727E+00
         21   -1    0    0  502  501  0.00000000000E+00  0.00000000000E+00  0.48700191277E+03  0.48700191277E+03  0.00000000000E+00 0. -1.
         21   -1    0    0  501  502 -0.00000000000E+00 -0.00000000000E+00 -0.13260375544E+03  0.13260375544E+03  0.00000000000E+00 0. -1.
         25    1    1    2    0    0 -0.22720123817E+02  0.12943703855E+03  0.23584940674E+03  0.29752326571E+03  0.12500000000E+03 0.  0.
         25    1    1    2    0    0 -0.15045711864E+02 -0.20098645166E+02  0.67622613998E+02  0.14431959987E+03  0.12500000000E+03 0.  0.
         25    1    1    2    0    0  0.37765835681E+02 -0.10933839338E+03  0.50926136588E+02  0.17776280263E+03  0.12500000000E+03 0.  0.
</event>
<event>
 5    0  0.5648525E-005  0.2764122E+03  0.7546771E-02  0.1097665E+00
         21   -1    0    0  502  501  0.00000000000E+00  0.00000000000E+00  0.17702981700E+03  0.17702981700E+03  0.00000000000E+00 0. -1.
         21   -1    0    0  501  502 -0.00000000000E+00 -0.00000000000E+00 -0.43158659621E+03  0.43158659621E+03  0.00000000000E+00 0. -1.
         25    1    1    2    0    0  0.14754236979E+03  0.11732701300E+03 -0.63441337237E+02  0.23491313742E+03  0.12500000000E+03 0.  0.
         25    1    1    2    0    0 -0.11359902949E+03 -0.62049958162E+02 -0.11601384016E+03  0.21410078916E+03  0.12500000000E+03 0.  0.
         25    1    1    2    0    0 -0.33943340304E+02 -0.55277054836E+02 -0.75101601816E+02  0.15960248663E+03  0.12500000000E+03 0.  0.
</event>
<event>
 5    0  0.5648525E-005  0.2631382E+03  0.7546771E-02  0.1105272E+00
         21   -1    0    0  502  501  0.00000000000E+00  0.00000000000E+00  0.12382587172E+03  0.12382587172E+03  0.00000000000E+00 0. -1.
         21   -1    0    0  501  502 -0.00000000000E+00 -0.00000000000E+00 -0.55918613113E+03  0.55918613113E+03  0.00000000000E+00 0. -1.
         25    1    1    2    0    0  0.10438660082E+01 -0.22437191372E+02  0.12888093938E+02  0.12765429949E+03  0.12500000000E+03 0.  0.
         25    1    1    2    0    0  0.39230756026E+02 -0.51797677300E+00 -0.58578248465E+02  0.14351213089E+03  0.12500000000E+03 0.  0.
         25    1    1    2    0    0 -0.40274622034E+02  0.22955168145E+02 -0.38967010488E+03  0.41184557247E+03  0.12500000000E+03 0.  0.
</event>
<event>
 5    0  0.5648525E-005  0.4235365E+03  0.7546771E-02  0.1035921E+00
         21   -1    0    0  502  501  0.00000000000E+00  0.00000000000E+00  0.59206239530E+03  0.59206239530E+03  0.00000000000E+00 0.  1.
         21   -1    0    0  501  502 -0.00000000000E+00 -0.00000000000E+00 -0.30298019718E+03  0.30298019718E+03  0.00000000000E+00 0.  1.
         25    1    1    2    0    0 -0.33096693023E+02 -0.78251280892E+02  0.43686450350E+03  0.46227075234E+03  0.12500000000E+03 0.  0.
         25    1    1    2    0    0 -0.87372271725E+02 -0.27507544442E+02 -0.16791515515E+03  0.22849743586E+03  0.12500000000E+03 0.  0.
         25    1    1    2    0    0  0.12046896475E+03  0.10575882533E+03  0.20132849766E+02  0.20427440428E+03  0.12500000000E+03 0.  0.
</event>
<event>
 5    0  0.5648525E-005  0.3072952E+03  0.7546771E-02  0.1081650E+00
         21   -1    0    0  502  501  0.00000000000E+00  0.00000000000E+00  0.98559930014E+03  0.98559930014E+03  0.00000000000E+00 0.  1.
         21   -1    0    0  501  502 -0.00000000000E+00 -0.00000000000E+00 -0.95810069333E+02  0.95810069333E+02  0.00000000000E+00 0.  1.
         25    1    1    2    0    0  0.61720649821E+02  0.12164598904E+03  0.15361772486E+03  0.24047991736E+03  0.12500000000E+03 0.  0.
         25    1    1    2    0    0 -0.14814711368E+01  0.36401285488E+02  0.53239851435E+03  0.54808797325E+03  0.12500000000E+03 0.  0.
         25    1    1    2    0    0 -0.60239178684E+02 -0.15804727453E+03  0.20377299160E+03  0.29284147886E+03  0.12500000000E+03 0.  0.
</event>
<event>
 5    0  0.5648525E-005  0.3285694E+03  0.7546771E-02  0.1071772E+00
         21   -1    0    0  502  501  0.00000000000E+00  0.00000000000E+00  0.17273531908E+03  0.17273531908E+03  0.00000000000E+00 0. -1.
         21   -1    0    0  501  502 -0.00000000000E+00 -0.00000000000E+00 -0.62498984898E+03  0.62498984898E+03  0.00000000000E+00 0. -1.
         25    1    1    2    0    0 -0.96621365332E+02 -0.12662889395E+03 -0.68359422549E+02  0.21370207222E+03  0.12500000000E+03 0.  0.
         25    1    1    2    0    0 -0.18900199863E+02 -0.96129250371E+02 -0.15761894629E+03  0.22375607827E+03  0.12500000000E+03 0.  0.
         25    1    1    2    0    0  0.11552156519E+03  0.22275814432E+03 -0.22627616106E+03  0.36026701757E+03  0.12500000000E+03 0.  0.
</event>
<event>
 5    0  0.5648525E-005  0.2412439E+03  0.7546771E-02  0.1118967E+00
         21   -1    0    0  502  501  0.00000000000E+00  0.00000000000E+00  0.20235186737E+02  0.20235186737E+02  0.00000000000E+00 0. -1.
         21   -1    0    0  501  502 -0.00000000000E+00 -0.00000000000E+00 -0.28761090540E+04  0.28761090540E+04  0.00000000000E+00 0. -1.
         25    1    1    2    0    0  0.30674225155E+02  0.81273688268E+02 -0.55545655526E+03  0.57593689349E+03  0.12500000000E+03 0.  0.
         25    1    1    2    0    0 -0.26826684807E+02 -0.38254270113E+02 -0.59086098261E+03  0.60574314768E+03  0.12500000000E+03 0.  0.
         25    1    1    2    0    0 -0.38475403485E+01 -0.43019418155E+02 -0.17095563294E+04  0.17146641996E+04  0.12500000000E+03 0.  0.
</event>
<event>
 5    0  0.5648525E-005  0.3646404E+03  0.7546771E-02  0.1056761E+00
         21   -1    0    0  502  501  0.00000000000E+00  0.00000000000E+00  0.53537156878E+03  0.53537156878E+03  0.00000000000E+00 0. -1.
         21   -1    0    0  501  502 -0.00000000000E+00 -0.00000000000E+00 -0.24835575529E+03  0.24835575529E+03  0.00000000000E+00 0. -1.
         25    1    1    2    0    0 -0.28967128863E+02  0.55844194861E+02 -0.79790311631E+01  0.14016537944E+03  0.12500000000E+03 0.  0.
         25    1    1    2    0    0  0.83701868226E+02 -0.27171150664E+03  0.20789624527E+03  0.37373653071E+03  0.12500000000E+03 0.  0.
         25    1    1    2    0    0 -0.54734739362E+02  0.21586731178E+03  0.87098599385E+02  0.26982541393E+03  0.12500000000E+03 0.  0.
</event>
<event>
 5    0  0.5648525E-005  0.4370808E+03  0.7546771E-02  0.1031646E+00
         21   -1    0    0  502  501  0.00000000000E+00  0.00000000000E+00  0.39374292388E+03  0.39374292388E+03  0.00000000000E+00 0.  1.
         21   -1    0    0  501  502 -0.00000000000E+00 -0.00000000000E+00 -0.48518874706E+03  0.48518874706E+03  0.00000000000E+00 0.  1.
         25    1    1    2    0    0  0.59063768320E+02 -0.19173699750E+03 -0.27995835874E+03  0.36640590548E+03  0.12500000000E+03 0.  0.
         25    1    1    2    0    0  0.13536569339E+03  0.15737244835E+03  0.10882576601E+03  0.26562756972E+03  0.12500000000E+03 0.  0.
         25    1    1    2    0    0 -0.19442946171E+03  0.34364549155E+02  0.79686769553E+02  0.24689819574E+03  0.12500000000E+03 0.  0.
</event>
<event>
 5    0  0.5648525E-005  0.2859207E+03  0.7546771E-02  0.1092498E+00
         21   -1    0    0  502  501  0.00000000000E+00  0.00000000000E+00  0.58388897768E+03  0.58388897768E+03  0.00000000000E+00 0.  1.
         21   -1    0    0  501  502 -0.00000000000E+00 -0.00000000000E+00 -0.14001064335E+03  0.14001064335E+03  0.00000000000E+00 0.  1.
         25    1    1    2    0    0 -0.43170880284E+02 -0.29259284298E+02  0.50286475375E+02  0.14447685014E+03  0.12500000000E+03 0.  0.
         25    1    1    2    0    0  0.12091090492E+03 -0.10216318988E+03  0.29879717788E+03  0.36050175839E+03  0.12500000000E+03 0.  0.
         25    1    1    2    0    0 -0.77740024632E+02  0.13142247418E+03  0.94794681071E+02  0.21892101249E+03  0.12500000000E+03 0.  0.
</event>
<event>
 5    0  0.5648525E-005  0.2964264E+03  0.7546771E-02  0.1087041E+00
         21   -1    0    0  502  501  0.00000000000E+00  0.00000000000E+00  0.17208073499E+03  0.17208073499E+03  0.00000000000E+00 0. -1.
         21   -1    0    0  501  502 -0.00000000000E+00 -0.00000000000E+00 -0.51062417785E+03  0.51062417785E+03  0.00000000000E+00 0. -1.
         25    1    1    2    0    0  0.15438480513E+03 -0.30731156649E+01 -0.28336757245E+03  0.34607267042E+03  0.12500000000E+03 0.  0.
         25    1    1    2    0    0 -0.61667818609E+02 -0.62430661741E+02 -0.68226147757E+02  0.16727317363E+03  0.12500000000E+03 0.  0.
         25    1    1    2    0    0 -0.92716986523E+02  0.65503777406E+02  0.13050277339E+02  0.16935906879E+03  0.12500000000E+03 0.  0.
</event>
<event>
 5    0  0.5648525E-005  0.3769004E+03  0.7546771E-02  0.1052085E+00
         21   -1    0    0  502  501  0.00000000000E+00  0.00000000000E+00  0.11522600124E+04  0.11522600124E+04  0.00000000000E+00 0.  1.
         21   -1    0    0  501  502 -0.00000000000E+00 -0.00000000000E+00 -0.12328283770E+03  0.12328283770E+03  0.00000000000E+00 0.  1.
         25    1    1    2    0    0 -0.31899688575E+02 -0.28330667084E+01  0.35829641519E+03  0.38082402437E+03  0.12500000000E+03 0.  0.
         25    1    1    2    0    0 -0.17861520109E+03  0.45472335444E+01  0.60223381066E+03  0.64049561286E+03  0.12500000000E+03 0.  0.
         25    1    1    2    0    0  0.21051488966E+03 -0.17141668359E+01  0.68446948802E+02  0.25422321282E+03  0.12500000000E+03 0.  0.
</event>
<event>
 5    0  0.5648525E-005  0.3564972E+03  0.7546771E-02  0.1059979E+00
         21   -1    0    0  502  501  0.00000000000E+00  0.00000000000E+00  0.41897999427E+03  0.41897999427E+03  0.00000000000E+00 0.  1.
         21   -1    0    0  501  502 -0.00000000000E+00 -0.00000000000E+00 -0.30333249045E+03  0.30333249045E+03  0.00000000000E+00 0.  1.
         25    1    1    2    0    0  0.11771767217E+03  0.42047745678E+02 -0.11540784284E+03  0.21111474001E+03  0.12500000000E+03 0.  0.
         25    1    1    2    0    0 -0.58239469338E+02 -0.19603563435E+03  0.17473364633E+03  0.29661195675E+03  0.12500000000E+03 0.  0.
         25    1    1    2    0    0 -0.59478202835E+02  0.15398788867E+03  0.56321700329E+02  0.21458578797E+03  0.12500000000E+03 0.  0.
</event>
