<event>
 6    0  0.1849053E+002  0.1194605E+03  0.7546771E-02  0.1243990E+00
          1   -1    0    0  505    0 -0.00000000000E+00  0.00000000000E+00  0.14081073615E+04  0.14081073615E+04  0.00000000000E+00 0. -1.
         21   -1    0    0  504  502  0.00000000000E+00 -0.00000000000E+00 -0.89820641884E+02  0.89820641884E+02  0.00000000000E+00 0.  1.
         21    1    1    2  503  502  0.16612820776E+02 -0.29399903765E+02  0.13674802203E+02  0.36432682729E+02  0.00000000000E+00 0.  1.
         21    1    1    2  504  501 -0.13714204924E+03  0.10672380733E+02 -0.11685038331E+02  0.13805209706E+03  0.00000000000E+00 0.  1.
         21    1    1    2  505  503  0.46554635894E+02 -0.97417298114E+00  0.24310611614E+03  0.24752548725E+03  0.00000000000E+00 0. -1.
          1    1    1    2  501    0  0.73974592571E+02  0.19701696013E+02  0.10731908396E+04  0.10759177363E+04  0.00000000000E+00 0. -1.
<scales pt_clust_3="33.76892" pt_clust_4="14000.00000" pt_clust_5="47.05714" pt_clust_6="119.46054"></scales>
<clustering>
<clus scale="   33.769">  2  3  1 -1</clus>
<clus scale="   47.057">  1  5  2 -1</clus>
<clus scale="  119.461">  1  6  2 -1</clus>
<clus scale="   33.769">  2  3  1 -1</clus>
</clustering>
</event>
<event>
 6    0  0.1849053E+002  0.1384081E+03  0.7546771E-02  0.1215487E+00
          2   -1    0    0  505    0 -0.00000000000E+00  0.00000000000E+00  0.14050643802E+04  0.14050643802E+04  0.00000000000E+00 0. -1.
         21   -1    0    0  503  502  0.00000000000E+00 -0.00000000000E+00 -0.20108469638E+02  0.20108469638E+02  0.00000000000E+00 0.  1.
         21    1    1    2  503  501 -0.13559045421E+02  0.50219880273E+02  0.14409749851E+03  0.15319912912E+03  0.00000000000E+00 0.  1.
         21    1    1    2  504  502  0.60983100136E+02 -0.18093064267E+02  0.14898922338E+03  0.16200026593E+03  0.00000000000E+00 0.  1.
         21    1    1    2  505  504  0.67940363951E+02 -0.47768959385E+02  0.43131094081E+03  0.43923444104E+03  0.00000000000E+00 0. -1.
          2    1    1    2  501    0 -0.11536441867E+03  0.15642143379E+02  0.66055824789E+03  0.67073901377E+03  0.00000000000E+00 0. -1.
<scales pt_clust_3="52.01811" pt_clust_4="53.39231" pt_clust_5="53.39231" pt_clust_6="124.02007"></scales>
<clustering>
<clus scale="   52.018">  2  3  1 -1</clus>
<clus scale="   53.392">  4  5 -1 -1</clus>
<clus scale="  124.020">  1  6  2 -1</clus>
<clus scale="   52.018">  2  3  1 -1</clus>
</clustering>
</event>
<event>
 6    0  0.1849053E+002  0.6272981E+02  0.7546771E-02  0.1386720E+00
          2   -1    0    0  504    0 -0.00000000000E+00  0.00000000000E+00  0.12703616942E+04  0.12703616942E+04  0.00000000000E+00 0.  1.
         21   -1    0    0  505  502  0.00000000000E+00 -0.00000000000E+00 -0.11220738933E+04  0.11220738933E+04  0.00000000000E+00 0.  1.
         21    1    1    2  503  502 -0.10187792226E+03  0.33776787746E+02 -0.18201234494E+03  0.21130186025E+03  0.00000000000E+00 0.  1.
         21    1    1    2  504  503  0.19736037740E+02 -0.34693713994E+02  0.72367945605E+02  0.82645535436E+02  0.00000000000E+00 0.  1.
         21    1    1    2  505  501  0.48929532996E+02 -0.34777134198E+02 -0.91879371606E+03  0.92075264916E+03  0.00000000000E+00 0.  1.
          2    1    1    2  501    0  0.33212351524E+02  0.35694060446E+02  0.11767259163E+04  0.11777355426E+04  0.00000000000E+00 0.  1.
<scales pt_clust_3="14000.00000" pt_clust_4="39.91447" pt_clust_5="62.72981" pt_clust_6="52.70996"></scales>
<clustering>
<clus scale="   39.914">  1  4  2 -1</clus>
<clus scale="   52.710">  1  6  2 -1</clus>
<clus scale="   62.730">  2  5  1 -1</clus>
<clus scale="   62.730">  2  3  1 -1</clus>
</clustering>
</event>
<event>
 6    0  0.1849053E+002  0.1993420E+03  0.7546771E-02  0.1150295E+00
          2   -1    0    0  502    0 -0.00000000000E+00  0.00000000000E+00  0.18616272398E+04  0.18616272398E+04  0.00000000000E+00 0.  1.
         21   -1    0    0  505  502  0.00000000000E+00 -0.00000000000E+00 -0.79077934760E+03  0.79077934760E+03  0.00000000000E+00 0. -1.
         21    1    1    2  503  501 -0.70961092332E+02  0.84174724609E+02  0.87177136587E+03  0.87869572393E+03  0.00000000000E+00 0.  1.
         21    1    1    2  504  503  0.10554591215E+03 -0.12928973771E+03 -0.71638402331E+03  0.73556906182E+03  0.00000000000E+00 0. -1.
         21    1    1    2  505  504 -0.27797719108E+01 -0.35394004184E+02 -0.54108474309E+02  0.64716224056E+02  0.00000000000E+00 0. -1.
          2    1    1    2  501    0 -0.31805047905E+02  0.80509017281E+02  0.96956902394E+03  0.97342557760E+03  0.00000000000E+00 0.  1.
<scales pt_clust_3="40.99576" pt_clust_4="193.90712" pt_clust_5="35.50300" pt_clust_6="40.99576"></scales>
<clustering>
<clus scale="   35.503">  2  5  1 -1</clus>
<clus scale="   40.996">  3  6 -1 -1</clus>
<clus scale="  193.907">  2  4  1 -1</clus>
<clus scale="   35.503">  2  3  1 -1</clus>
</clustering>
</event>
<event>
 6    0  0.1849053E+002  0.1227567E+03  0.7546771E-02  0.1238617E+00
         21   -1    0    0  503  502  0.00000000000E+00  0.00000000000E+00  0.35409789037E+03  0.35409789037E+03  0.00000000000E+00 0.  1.
          1   -1    0    0  505    0 -0.00000000000E+00 -0.00000000000E+00 -0.11476710694E+04  0.11476710694E+04  0.00000000000E+00 0.  1.
         21    1    1    2  503  501 -0.82022092238E+02  0.86236772217E+02  0.60313277019E+02  0.13342449506E+03  0.00000000000E+00 0.  1.
         21    1    1    2  504  502  0.23735689009E+02  0.30814803269E+02  0.24261821242E+03  0.24571636501E+03  0.00000000000E+00 0. -1.
         21    1    1    2  505  504 -0.31789412791E+02 -0.33435814208E+02 -0.46673392249E+02  0.65627174108E+02  0.00000000000E+00 0. -1.
          1    1    1    2  501    0  0.90075816020E+02 -0.83615761278E+02 -0.10498312762E+04  0.10570009256E+04  0.00000000000E+00 0.  1.
<scales pt_clust_3="14000.00000" pt_clust_4="38.89647" pt_clust_5="42.80217" pt_clust_6="122.75669"></scales>
<clustering>
<clus scale="   38.896">  1  4  2 -1</clus>
<clus scale="   42.802">  1  5  2 -1</clus>
<clus scale="  122.757">  2  6  1 -1</clus>
<clus scale="   38.896">  1  3  2 -1</clus>
</clustering>
</event>
<event>
 6    0  0.1849053E+002  0.1356114E+03  0.7546771E-02  0.1219359E+00
         21   -1    0    0  504  502  0.00000000000E+00  0.00000000000E+00  0.30199232923E+03  0.30199232923E+03  0.00000000000E+00 0.  1.
          1   -1    0    0  505    0 -0.00000000000E+00 -0.00000000000E+00 -0.23225576540E+04  0.23225576540E+04  0.00000000000E+00 0.  1.
         21    1    1    2  503  501 -0.15140674087E+01 -0.11956518422E+03  0.11744896446E+03  0.16760783075E+03  0.00000000000E+00 0.  1.
         21    1    1    2  504  503  0.58161373613E+02 -0.51600330954E+01  0.15096401528E+03  0.16186261221E+03  0.00000000000E+00 0. -1.
         21    1    1    2  505  502  0.16904602050E+02  0.45585226650E+02 -0.38812980502E+03  0.39116304018E+03  0.00000000000E+00 0. -1.
          1    1    1    2  501    0 -0.73551908255E+02  0.79139990662E+02 -0.19008484995E+04  0.19039165001E+04  0.00000000000E+00 0.  1.
<scales pt_clust_3="14000.00000" pt_clust_4="58.42609" pt_clust_5="48.61870" pt_clust_6="135.61142"></scales>
<clustering>
<clus scale="   48.619">  2  5  1 -1</clus>
<clus scale="   58.426">  1  4  2 -1</clus>
<clus scale="  135.611">  2  6  1 -1</clus>
<clus scale="   58.426">  1  3  2 -1</clus>
</clustering>
</event>
<event>
 6    0  0.1849053E+002  0.9563128E+02  0.7546771E-02  0.1289761E+00
          2   -1    0    0  504    0 -0.00000000000E+00  0.00000000000E+00  0.10422512862E+04  0.10422512862E+04  0.00000000000E+00 0.  1.
         21   -1    0    0  503  502  0.00000000000E+00 -0.00000000000E+00 -0.21953415550E+03  0.21953415550E+03  0.00000000000E+00 0. -1.
         21    1    1    2  503  501 -0.79101300465E+02  0.22866619635E+02  0.55796419270E+03  0.56400703751E+03  0.00000000000E+00 0. -1.
         21    1    1    2  504  505 -0.10899731243E+02  0.36211899112E+02  0.54948508054E+02  0.66704155162E+02  0.00000000000E+00 0.  1.
         21    1    1    2  505  502  0.95646494289E+02  0.82392662884E+01 -0.19676266727E+03  0.21893305966E+03  0.00000000000E+00 0. -1.
          2    1    1    2  501    0 -0.56454625810E+01 -0.67317785036E+02  0.40656709717E+03  0.41214118932E+03  0.00000000000E+00 0.  1.
<scales pt_clust_3="95.63128" pt_clust_4="37.81674" pt_clust_5="14000.00000" pt_clust_6="53.19912"></scales>
<clustering>
<clus scale="   37.817">  1  4  2 -1</clus>
<clus scale="   53.199">  1  6  2 -1</clus>
<clus scale="   95.631">  1  3  2 -1</clus>
<clus scale="   95.631">  2  3  1 -1</clus>
</clustering>
</event>
<event>
 6    0  0.1849053E+002  0.1357592E+03  0.7546771E-02  0.1219152E+00
         -1   -1    0    0    0  501 -0.00000000000E+00  0.00000000000E+00  0.41152973816E+03  0.41152973816E+03  0.00000000000E+00 0. -1.
         21   -1    0    0  503  502  0.00000000000E+00 -0.00000000000E+00 -0.11947055020E+03  0.11947055020E+03  0.00000000000E+00 0. -1.
         21    1    1    2  503  501  0.33330926017E+02  0.33935841866E+02  0.28239901546E+02  0.55318026281E+02  0.00000000000E+00 0. -1.
         21    1    1    2  504  505 -0.10423150021E+02  0.56990270879E+02 -0.17242335751E+02  0.60446928569E+02  0.00000000000E+00 0. -1.
         21    1    1    2  505  502  0.12971862554E+02  0.38681055702E+02 -0.46071069132E+02  0.61538903949E+02  0.00000000000E+00 0. -1.
         -1    1    1    2    0  504 -0.35879638551E+02 -0.12960716845E+03  0.32713269129E+03  0.35369642957E+03  0.00000000000E+00 0. -1.
<scales pt_clust_3="47.56671" pt_clust_4="34.72623" pt_clust_5="34.72623" pt_clust_6="129.29852"></scales>
<clustering>
<clus scale="   34.726">  4  5 -1 -1</clus>
<clus scale="   47.567">  2  3  1 -1</clus>
<clus scale="  129.299">  1  6  2 -1</clus>
<clus scale="   47.567">  2  3  1 -1</clus>
</clustering>
</event>
<event>
 6    0  0.1849053E+002  0.1459646E+03  0.7546771E-02  0.1205521E+00
         21   -1    0    0  503  502  0.00000000000E+00  0.00000000000E+00  0.29330396654E+03  0.29330396654E+03  0.00000000000E+00 0.  1.
          2   -1    0    0  504    0 -0.00000000000E+00 -0.00000000000E+00 -0.10205504110E+04  0.10205504110E+04  0.00000000000E+00 0. -1.
         21    1    1    2  503  501 -0.33321296492E+02  0.79211603521E+01  0.69000669520E+02  0.77033408177E+02  0.00000000000E+00 0.  1.
         21    1    1    2  504  505  0.37770963340E+02 -0.36604871160E+01 -0.35303567011E+02  0.51830364471E+02  0.00000000000E+00 0. -1.
         21    1    1    2  505  502  0.46607294319E+02  0.13771615163E+03  0.18036507201E+03  0.23166686752E+03  0.00000000000E+00 0.  1.
          2    1    1    2  501    0 -0.51056961166E+02 -0.14197682487E+03 -0.94130861896E+03  0.95332373736E+03  0.00000000000E+00 0. -1.
<scales pt_clust_3="34.24987" pt_clust_4="36.67556" pt_clust_5="145.96463" pt_clust_6="14000.00000"></scales>
<clustering>
<clus scale="   34.250">  1  3  2 -1</clus>
<clus scale="   36.676">  2  4  1 -1</clus>
<clus scale="  145.965">  1  5  2 -1</clus>
<clus scale="   34.250">  1  3  2 -1</clus>
</clustering>
</event>
<event>
 6    0  0.1849053E+002  0.2725318E+03  0.7546771E-02  0.1099839E+00
          2   -1    0    0  504    0 -0.00000000000E+00  0.00000000000E+00  0.15994343291E+04  0.15994343291E+04  0.00000000000E+00 0. -1.
         21   -1    0    0  505  502  0.00000000000E+00 -0.00000000000E+00 -0.15528848294E+03  0.15528848294E+03  0.00000000000E+00 0. -1.
         21    1    1    2  503  501  0.75460600636E+02 -0.15223617602E+03  0.88654620542E+02  0.19165019509E+03  0.00000000000E+00 0. -1.
         21    1    1    2  504  502 -0.11010039568E+03 -0.13021478345E+03  0.94007835499E+03  0.95541891361E+03  0.00000000000E+00 0. -1.
         21    1    1    2  505  503  0.60127729668E+02 -0.55509821747E+02  0.15233420032E+02  0.83239060970E+02  0.00000000000E+00 0.  1.
          2    1    1    2  501    0 -0.25487934624E+02  0.33796078121E+03  0.40017945059E+03  0.52441464236E+03  0.00000000000E+00 0. -1.
<scales pt_clust_3="39.43412" pt_clust_4="170.52269" pt_clust_5="39.43412" pt_clust_6="266.54227"></scales>
<clustering>
<clus scale="   39.434">  3  5 -1 -1</clus>
<clus scale="  170.523">  1  4  2 -1</clus>
<clus scale="  266.542">  1  6  2 -1</clus>
<clus scale="  272.532">  2  3  1 -1</clus>
</clustering>
</event>
<event>
 6    0  0.1849053E+002  0.1287996E+03  0.7546771E-02  0.1229248E+00
         21   -1    0    0  505  502  0.00000000000E+00  0.00000000000E+00  0.33221943754E+03  0.33221943754E+03  0.00000000000E+00 0.  1.
          1   -1    0    0  503    0 -0.00000000000E+00 -0.00000000000E+00 -0.88404926240E+03  0.88404926240E+03  0.00000000000E+00 0. -1.
         21    1    1    2  503  504 -0.14231969354E+02 -0.32181316375E+02 -0.51206143299E+02  0.62130951923E+02  0.00000000000E+00 0.  1.
         21    1    1    2  504  502  0.37903392093E+02  0.37426787110E+02  0.55127097217E+02  0.76657865697E+02  0.00000000000E+00 0. -1.
         21    1    1    2  505  501  0.36537967636E+01  0.87316653814E+02  0.25058584127E+03  0.26538804063E+03  0.00000000000E+00 0.  1.
          1    1    1    2  501    0 -0.27325219502E+02 -0.92562124550E+02 -0.80633662004E+03  0.81209184169E+03  0.00000000000E+00 0. -1.
<scales pt_clust_3="35.18787" pt_clust_4="52.84184" pt_clust_5="14000.00000" pt_clust_6="128.79955"></scales>
<clustering>
<clus scale="   35.188">  2  3  1 -1</clus>
<clus scale="   52.842">  1  4  2 -1</clus>
<clus scale="  128.800">  2  6  1 -1</clus>
<clus scale="   52.842">  1  3  2 -1</clus>
</clustering>
</event>
<event>
 6    0  0.1849053E+002  0.1515191E+03  0.7546771E-02  0.1198619E+00
          1   -1    0    0  504    0 -0.00000000000E+00  0.00000000000E+00  0.18103765549E+04  0.18103765549E+04  0.00000000000E+00 0. -1.
         21   -1    0    0  501  502  0.00000000000E+00 -0.00000000000E+00 -0.21280827323E+03  0.21280827323E+03  0.00000000000E+00 0.  1.
         21    1    1    2  503  502 -0.32173224990E+02 -0.84261916774E+02 -0.10952684477E+03  0.14188487146E+03  0.00000000000E+00 0.  1.
         21    1    1    2  504  505 -0.28963974772E+02  0.18352704280E+02  0.11041712585E+03  0.11561866316E+03  0.00000000000E+00 0.  1.
         21    1    1    2  505  503 -0.54747318884E+02 -0.27413320120E+02 -0.69643183016E+02  0.92730426428E+02  0.00000000000E+00 0.  1.
          1    1    1    2  501    0  0.11588451865E+03  0.93322532614E+02  0.16663211836E+04  0.16729508670E+04  0.00000000000E+00 0. -1.
<scales pt_clust_3="44.55009" pt_clust_4="34.28897" pt_clust_5="44.55009" pt_clust_6="141.57027"></scales>
<clustering>
<clus scale="   34.289">  1  4  2 -1</clus>
<clus scale="   44.550">  3  5 -1 -1</clus>
<clus scale="  141.570">  1  6  2 -1</clus>
<clus scale="  151.519">  2  3  1 -1</clus>
</clustering>
</event>
<event>
 6    0  0.1849053E+002  0.2355869E+03  0.7546771E-02  0.1122768E+00
          4   -1    0    0  504    0 -0.00000000000E+00  0.00000000000E+00  0.61239325630E+03  0.61239325630E+03  0.00000000000E+00 0. -1.
         21   -1    0    0  505  502  0.00000000000E+00 -0.00000000000E+00 -0.16508197880E+03  0.16508197880E+03  0.00000000000E+00 0.  1.
         21    1    1    2  503  501 -0.44500303602E+02  0.33097906850E+02  0.90813642684E+02  0.10640895712E+03  0.00000000000E+00 0. -1.
         21    1    1    2  504  502 -0.39509894872E+02  0.17484045256E+02 -0.24629216240E+02  0.49732503696E+02  0.00000000000E+00 0.  1.
         21    1    1    2  505  503  0.13653220657E+03 -0.21476959151E+03  0.67240771500E+02  0.26322678857E+03  0.00000000000E+00 0.  1.
          4    1    1    2  501    0 -0.52522008098E+02  0.16418763941E+03  0.31388607956E+03  0.35810698571E+03  0.00000000000E+00 0. -1.
<scales pt_clust_3="34.30663" pt_clust_4="43.20560" pt_clust_5="227.69041" pt_clust_6="34.30663"></scales>
<clustering>
<clus scale="   34.307">  3  6 -1 -1</clus>
<clus scale="   43.206">  2  4  1 -1</clus>
<clus scale="  227.690">  2  5  1 -1</clus>
<clus scale="   43.206">  2  3  1 -1</clus>
</clustering>
</event>
<event>
 6    0  0.1849053E+002  0.1950612E+03  0.7546771E-02  0.1153974E+00
          4   -1    0    0  504    0 -0.00000000000E+00  0.00000000000E+00  0.24841704412E+03  0.24841704412E+03  0.00000000000E+00 0. -1.
         21   -1    0    0  505  502  0.00000000000E+00 -0.00000000000E+00 -0.25424909831E+04  0.25424909831E+04  0.00000000000E+00 0.  1.
         21    1    1    2  503  501  0.47157203602E+02  0.81021094031E+02 -0.15008778241E+04  0.15038026674E+04  0.00000000000E+00 0.  1.
         21    1    1    2  504  502  0.49368534142E+02 -0.44220284139E+02 -0.24485041393E+02  0.70655523101E+02  0.00000000000E+00 0.  1.
         21    1    1    2  505  503  0.46622426035E+02  0.83992430380E+02 -0.95055390392E+03  0.95539578355E+03  0.00000000000E+00 0.  1.
          4    1    1    2  501    0 -0.14314816378E+03 -0.12079324027E+03  0.18184283045E+03  0.26105405317E+03  0.00000000000E+00 0. -1.
<scales pt_clust_3="45.43519" pt_clust_4="66.27734" pt_clust_5="45.43519" pt_clust_6="189.56122"></scales>
<clustering>
<clus scale="   45.435">  3  5 -1 -1</clus>
<clus scale="   66.277">  1  4  2 -1</clus>
<clus scale="  189.561">  1  6  2 -1</clus>
<clus scale="  195.061">  2  3  1 -1</clus>
</clustering>
</event>
<event>
 6    0  0.1849053E+002  0.2034039E+03  0.7546771E-02  0.1146899E+00
          2   -1    0    0  503    0 -0.00000000000E+00  0.00000000000E+00  0.12801111265E+04  0.12801111265E+04  0.00000000000E+00 0.  1.
         21   -1    0    0  504  502  0.00000000000E+00 -0.00000000000E+00 -0.62170478674E+03  0.62170478674E+03  0.00000000000E+00 0. -1.
         21    1    1    2  503  502 -0.10636172655E+02  0.48969169662E+02  0.37886545929E+03  0.38216507426E+03  0.00000000000E+00 0. -1.
         21    1    1    2  504  505 -0.11123260565E+03 -0.14986859384E+02 -0.38831990863E+03  0.40421485617E+03  0.00000000000E+00 0. -1.
         21    1    1    2  505  501 -0.87248860741E+02  0.57218757366E+01 -0.20189399800E+03  0.22001429497E+03  0.00000000000E+00 0. -1.
          2    1    1    2  501    0  0.20911763905E+03 -0.39704186015E+02  0.86975478713E+03  0.89542168785E+03  0.00000000000E+00 0.  1.
<scales pt_clust_3="50.11095" pt_clust_4="37.74548" pt_clust_5="37.74548" pt_clust_6="198.85748"></scales>
<clustering>
<clus scale="   37.745">  4  5 -1 -1</clus>
<clus scale="   50.111">  1  3  2 -1</clus>
<clus scale="  198.857">  1  6  2 -1</clus>
<clus scale="  203.404">  2  3  1 -1</clus>
</clustering>
</event>
<event>
 6    0  0.1849053E+002  0.1014519E+03  0.7546771E-02  0.1277272E+00
         21   -1    0    0  505  502  0.00000000000E+00  0.00000000000E+00  0.68180154777E+03  0.68180154777E+03  0.00000000000E+00 0.  1.
          2   -1    0    0  503    0 -0.00000000000E+00 -0.00000000000E+00 -0.23585578278E+03  0.23585578278E+03  0.00000000000E+00 0. -1.
         21    1    1    2  503  504 -0.60944452513E+02  0.88871985522E+02  0.12669616851E+03  0.16632611105E+03  0.00000000000E+00 0.  1.
         21    1    1    2  504  502  0.98025323278E+02  0.31918167859E+02  0.46231078079E+03  0.47366548479E+03  0.00000000000E+00 0.  1.
         21    1    1    2  505  501 -0.79262676355E+02 -0.48176447525E+02  0.19419903346E+02  0.94766421295E+02  0.00000000000E+00 0.  1.
          2    1    1    2  501    0  0.42181805590E+02 -0.72613705856E+02 -0.16248108766E+03  0.18289931342E+03  0.00000000000E+00 0. -1.
<scales pt_clust_3="81.51531" pt_clust_4="101.45190" pt_clust_5="14000.00000" pt_clust_6="83.97651"></scales>
<clustering>
<clus scale="   83.977">  2  6  1 -1</clus>
<clus scale="   81.515">  2  3  1 -1</clus>
<clus scale="  101.452">  1  4  2 -1</clus>
<clus scale="  101.452">  1  3  2 -1</clus>
</clustering>
</event>
<event>
 6    0  0.1849053E+002  0.1277130E+03  0.7546771E-02  0.1230889E+00
         21   -1    0    0  503  502  0.00000000000E+00  0.00000000000E+00  0.85895608438E+03  0.85895608438E+03  0.00000000000E+00 0.  1.
          2   -1    0    0  504    0 -0.00000000000E+00 -0.00000000000E+00 -0.11527128618E+04  0.11527128618E+04  0.00000000000E+00 0.  1.
         21    1    1    2  503  501  0.20600847529E+02 -0.35974296424E+02  0.67839917881E+01  0.42006755013E+02  0.00000000000E+00 0.  1.
         21    1    1    2  504  505  0.13352438053E+03  0.10758016143E+03  0.23357155513E+02  0.17305434997E+03  0.00000000000E+00 0.  1.
         21    1    1    2  505  502 -0.34476591583E+02 -0.30811211510E+02  0.73185479737E+03  0.73331399179E+03  0.00000000000E+00 0.  1.
          2    1    1    2  501    0 -0.11964863648E+03 -0.40794653495E+02 -0.10557527221E+04  0.10632938494E+04  0.00000000000E+00 0.  1.
<scales pt_clust_3="41.45534" pt_clust_4="14000.00000" pt_clust_5="64.50745" pt_clust_6="127.71300"></scales>
<clustering>
<clus scale="   41.455">  1  3  2 -1</clus>
<clus scale="   64.507">  1  5  2 -1</clus>
<clus scale="  127.713">  2  6  1 -1</clus>
<clus scale="   41.455">  1  3  2 -1</clus>
</clustering>
</event>
<event>
 6    0  0.1849053E+002  0.1378196E+03  0.7546771E-02  0.1216293E+00
         21   -1    0    0  504  502  0.00000000000E+00  0.00000000000E+00  0.28555926977E+03  0.28555926977E+03  0.00000000000E+00 0. -1.
          3   -1    0    0  505    0 -0.00000000000E+00 -0.00000000000E+00 -0.35530104381E+03  0.35530104381E+03  0.00000000000E+00 0. -1.
         21    1    1    2  503  501  0.54460456274E+01 -0.73217847616E+02 -0.13413464508E+03  0.15291375227E+03  0.00000000000E+00 0.  1.
         21    1    1    2  504  503 -0.57320441866E+00 -0.56304374990E+02  0.18135228379E+01  0.56336489697E+02  0.00000000000E+00 0. -1.
         21    1    1    2  505  502  0.24301673667E+02  0.18226663241E+03  0.20594504384E+03  0.27608885837E+03  0.00000000000E+00 0. -1.
          3    1    1    2  501    0 -0.29174514876E+02 -0.52744409802E+02 -0.14336569564E+03  0.15552121325E+03  0.00000000000E+00 0. -1.
<scales pt_clust_3="37.31606" pt_clust_4="56.30729" pt_clust_5="131.52223" pt_clust_6="37.31606"></scales>
<clustering>
<clus scale="   37.316">  3  6 -1 -1</clus>
<clus scale="   56.307">  1  4  2 -1</clus>
<clus scale="  131.522">  1  5  2 -1</clus>
<clus scale="   56.307">  1  3  2 -1</clus>
</clustering>
</event>
<event>
 6    0  0.1849053E+002  0.1387690E+03  0.7546771E-02  0.1214995E+00
          2   -1    0    0  505    0 -0.00000000000E+00  0.00000000000E+00  0.24457313262E+04  0.24457313262E+04  0.00000000000E+00 0. -1.
         21   -1    0    0  503  502  0.00000000000E+00 -0.00000000000E+00 -0.18444001357E+03  0.18444001357E+03  0.00000000000E+00 0.  1.
         21    1    1    2  503  504  0.39393124365E+02  0.50570196022E+02  0.10288112935E+02  0.64923094817E+02  0.00000000000E+00 0.  1.
         21    1    1    2  504  501 -0.10485976628E+03 -0.12150546731E+02  0.62893129351E+03  0.63772860868E+03  0.00000000000E+00 0. -1.
         21    1    1    2  505  502  0.69862179961E+02  0.48424138522E+02 -0.13974004449E+03  0.16356314198E+03  0.00000000000E+00 0.  1.
          2    1    1    2  501    0 -0.43955380486E+01 -0.86843787813E+02  0.17618119507E+04  0.17639564943E+04  0.00000000000E+00 0. -1.
<scales pt_clust_3="64.10275" pt_clust_4="138.76897" pt_clust_5="14000.00000" pt_clust_6="86.59706"></scales>
<clustering>
<clus scale="   64.103">  2  3  1 -1</clus>
<clus scale="   86.597">  1  6  2 -1</clus>
<clus scale="  138.769">  1  4  2 -1</clus>
<clus scale="   64.103">  2  3  1 -1</clus>
</clustering>
</event>
<event>
 6    0  0.1849053E+002  0.5304044E+03  0.7546771E-02  0.1006134E+00
         21   -1    0    0  501  502  0.00000000000E+00  0.00000000000E+00  0.23519286461E+04  0.23519286461E+04  0.00000000000E+00 0. -1.
          1   -1    0    0  505    0 -0.00000000000E+00 -0.00000000000E+00 -0.44788320781E+03  0.44788320781E+03  0.00000000000E+00 0. -1.
         21    1    1    2  503  504  0.35467453871E+02 -0.12849476247E+02  0.12634549768E+03  0.13185686978E+03  0.00000000000E+00 0. -1.
         21    1    1    2  504  502  0.43533479178E+03  0.22443748378E+03  0.18713583886E+04  0.19343915797E+04  0.00000000000E+00 0. -1.
         21    1    1    2  505  503 -0.18742220425E+02  0.11840597375E+03  0.83967901029E+02  0.14636206424E+03  0.00000000000E+00 0. -1.
          1    1    1    2  501    0 -0.45206002523E+03 -0.32999398128E+03 -0.17762634900E+03  0.58720134021E+03  0.00000000000E+00 0. -1.
<scales pt_clust_3="30.57518" pt_clust_4="30.57518" pt_clust_5="119.88013" pt_clust_6="518.83638"></scales>
<clustering>
<clus scale="   30.575">  3  4 -1 -1</clus>
<clus scale="  119.880">  2  5  1 -1</clus>
<clus scale="  518.836">  2  6  1 -1</clus>
<clus scale="  530.404">  1  3  2 -1</clus>
</clustering>
</event>
<event>
 6    0  0.1849053E+002  0.1402720E+03  0.7546771E-02  0.1212963E+00
         21   -1    0    0  504  502  0.00000000000E+00  0.00000000000E+00  0.38362617228E+02  0.38362617228E+02  0.00000000000E+00 0.  1.
          1   -1    0    0  505    0 -0.00000000000E+00 -0.00000000000E+00 -0.24148442393E+04  0.24148442393E+04  0.00000000000E+00 0. -1.
         21    1    1    2  503  501  0.55132089641E+02  0.67609771211E+02 -0.11373691429E+04  0.11407099525E+04  0.00000000000E+00 0. -1.
         21    1    1    2  504  503  0.31777944687E+02 -0.22150369473E+02 -0.39932032240E+02  0.55633118151E+02  0.00000000000E+00 0.  1.
         21    1    1    2  505  502 -0.99677627463E+02 -0.92947077497E+02 -0.13596927477E+03  0.19251605729E+03  0.00000000000E+00 0.  1.
          1    1    1    2  501    0  0.12767593135E+02  0.47487675759E+02 -0.10632111721E+04  0.10643477286E+04  0.00000000000E+00 0. -1.
<scales pt_clust_3="32.44783" pt_clust_4="38.73599" pt_clust_5="133.44805" pt_clust_6="32.44783"></scales>
<clustering>
<clus scale="   32.448">  3  6 -1 -1</clus>
<clus scale="   38.736">  1  4  2 -1</clus>
<clus scale="  133.448">  1  5  2 -1</clus>
<clus scale="   38.736">  1  3  2 -1</clus>
</clustering>
</event>
<event>
 6    0  0.1849053E+002  0.6811009E+02  0.7546771E-02  0.1366640E+00
         21   -1    0    0  504  502  0.00000000000E+00  0.00000000000E+00  0.20001223012E+03  0.20001223012E+03  0.00000000000E+00 0.  1.
          3   -1    0    0  505    0 -0.00000000000E+00 -0.00000000000E+00 -0.89601712968E+03  0.89601712968E+03  0.00000000000E+00 0. -1.
         21    1    1    2  503  502 -0.39573715059E+02  0.27166168829E+02 -0.37319555113E+02  0.60801552992E+02  0.00000000000E+00 0. -1.
         21    1    1    2  504  501  0.65645002192E+00 -0.58323630372E+02  0.17597589481E+03  0.18539037824E+03  0.00000000000E+00 0.  1.
         21    1    1    2  505  503  0.20161142564E+02  0.90124376180E+02 -0.38406838650E+03  0.39501569635E+03  0.00000000000E+00 0. -1.
          3    1    1    2  501    0  0.18756122473E+02 -0.58966914637E+02 -0.45059285275E+03  0.45482173222E+03  0.00000000000E+00 0. -1.
<scales pt_clust_3="48.00083" pt_clust_4="49.32715" pt_clust_5="68.11009" pt_clust_6="14000.00000"></scales>
<clustering>
<clus scale="   48.001">  1  3  2 -1</clus>
<clus scale="   49.327">  1  4  2 -1</clus>
<clus scale="   68.110">  1  5  2 -1</clus>
<clus scale="   48.001">  1  3  2 -1</clus>
</clustering>
</event>
<event>
 6    0  0.1849053E+002  0.1021599E+03  0.7546771E-02  0.1275818E+00
         -3   -1    0    0    0  501 -0.00000000000E+00  0.00000000000E+00  0.38630488134E+03  0.38630488134E+03  0.00000000000E+00 0.  1.
         21   -1    0    0  503  502  0.00000000000E+00 -0.00000000000E+00 -0.13910380707E+03  0.13910380707E+03  0.00000000000E+00 0. -1.
         21    1    1    2  503  505  0.10836849124E+03  0.42617229852E+02 -0.86072771270E+02  0.14480497273E+03  0.00000000000E+00 0. -1.
         21    1    1    2  504  502 -0.32020204382E+02  0.30650190558E+02  0.14917788259E+03  0.15562380385E+03  0.00000000000E+00 0.  1.
         21    1    1    2  505  501 -0.45377856287E+02 -0.58364317352E+02  0.57092945408E+02  0.93408499595E+02  0.00000000000E+00 0. -1.
         -3    1    1    2    0  504 -0.30970430574E+02 -0.14903103057E+02  0.12700301754E+03  0.13157141222E+03  0.00000000000E+00 0.  1.
<scales pt_clust_3="14000.00000" pt_clust_4="54.90360" pt_clust_5="102.15988" pt_clust_6="34.36961"></scales>
<clustering>
<clus scale="   34.370">  1  6  2 -1</clus>
<clus scale="   54.904">  1  4  2 -1</clus>
<clus scale="  102.160">  1  5  2 -1</clus>
<clus scale="  102.160">  2  3  1 -1</clus>
</clustering>
</event>
<event>
 6    0  0.1849053E+002  0.1381241E+03  0.7546771E-02  0.1215876E+00
         -4   -1    0    0    0  501 -0.00000000000E+00  0.00000000000E+00  0.11411699118E+03  0.11411699118E+03  0.00000000000E+00 0. -1.
         21   -1    0    0  504  502  0.00000000000E+00 -0.00000000000E+00 -0.40973633291E+03  0.40973633291E+03  0.00000000000E+00 0. -1.
         21    1    1    2  503  501  0.62785318031E+02 -0.73912217544E+02 -0.64664729528E+02  0.11656131137E+03  0.00000000000E+00 0. -1.
         21    1    1    2  504  503  0.64477746978E+02 -0.23085880768E+02 -0.22979281888E+03  0.23978131152E+03  0.00000000000E+00 0. -1.
         21    1    1    2  505  502 -0.69787561730E+02  0.48441695318E+02  0.23824273461E+02  0.88229800087E+02  0.00000000000E+00 0. -1.
         -4    1    1    2    0  505 -0.57475503280E+02  0.48556402994E+02 -0.24986066783E+02  0.79280901119E+02  0.00000000000E+00 0. -1.
<scales pt_clust_3="128.93522" pt_clust_4="68.48604" pt_clust_5="46.62007" pt_clust_6="46.62007"></scales>
<clustering>
<clus scale="   46.620">  5  6 -1 -1</clus>
<clus scale="   68.486">  2  4  1 -1</clus>
<clus scale="  128.935">  2  3  1 -1</clus>
<clus scale="   68.486">  2  3  1 -1</clus>
</clustering>
</event>
<event>
 6    0  0.1849053E+002  0.1640616E+03  0.7546771E-02  0.1184186E+00
         21   -1    0    0  504  502  0.00000000000E+00  0.00000000000E+00  0.39124065363E+03  0.39124065363E+03  0.00000000000E+00 0.  1.
          2   -1    0    0  503    0 -0.00000000000E+00 -0.00000000000E+00 -0.36843297968E+04  0.36843297968E+04  0.00000000000E+00 0. -1.
         21    1    1    2  503  505 -0.18893641133E+03  0.82495343837E+02 -0.27706716188E+04  0.27783310941E+04  0.00000000000E+00 0. -1.
         21    1    1    2  504  501  0.29344436401E+02 -0.12115538393E+02  0.71007104348E+00  0.31755100679E+02  0.00000000000E+00 0.  1.
         21    1    1    2  505  502  0.12543447325E+03 -0.41873849720E+02  0.35882161823E+03  0.38241362434E+03  0.00000000000E+00 0.  1.
          2    1    1    2  501    0  0.34157501674E+02 -0.28505955724E+02 -0.88194921363E+03  0.88307063129E+03  0.00000000000E+00 0. -1.
<scales pt_clust_3="14000.00000" pt_clust_4="31.74716" pt_clust_5="164.06158" pt_clust_6="44.53489"></scales>
<clustering>
<clus scale="   31.747">  1  4  2 -1</clus>
<clus scale="   44.535">  2  6  1 -1</clus>
<clus scale="  164.062">  1  5  2 -1</clus>
<clus scale="   31.747">  1  3  2 -1</clus>
</clustering>
</event>
<event>
 6    0  0.1849053E+002  0.8195344E+02  0.7546771E-02  0.1323598E+00
         21   -1    0    0  504  502  0.00000000000E+00  0.00000000000E+00  0.72665022868E+03  0.72665022868E+03  0.00000000000E+00 0. -1.
          2   -1    0    0  503    0 -0.00000000000E+00 -0.00000000000E+00 -0.10848997222E+03  0.10848997222E+03  0.00000000000E+00 0. -1.
         21    1    1    2  503  502  0.23138301423E+02 -0.39601232936E+02  0.19810472975E+02  0.49960919550E+02  0.00000000000E+00 0. -1.
         21    1    1    2  504  505  0.59674728952E+02  0.11624598164E+02  0.99690758725E+02  0.11676665591E+03  0.00000000000E+00 0.  1.
         21    1    1    2  505  501 -0.14020750343E+03 -0.94490791236E+01  0.55944065068E+03  0.57681996390E+03  0.00000000000E+00 0. -1.
          2    1    1    2  501    0  0.57394473058E+02  0.37425713896E+02 -0.60781625919E+02  0.91592661538E+02  0.00000000000E+00 0. -1.
<scales pt_clust_3="45.86544" pt_clust_4="62.30592" pt_clust_5="81.95344" pt_clust_6="14000.00000"></scales>
<clustering>
<clus scale="   45.865">  2  3  1 -1</clus>
<clus scale="   62.306">  1  4  2 -1</clus>
<clus scale="   81.953">  1  5  2 -1</clus>
<clus scale="   62.306">  1  3  2 -1</clus>
</clustering>
</event>
<event>
 6    0  0.1849053E+002  0.1619182E+03  0.7546771E-02  0.1186548E+00
          4   -1    0    0  504    0 -0.00000000000E+00  0.00000000000E+00  0.11804411291E+03  0.11804411291E+03  0.00000000000E+00 0.  1.
         21   -1    0    0  501  502  0.00000000000E+00 -0.00000000000E+00 -0.18242695442E+04  0.18242695442E+04  0.00000000000E+00 0.  1.
         21    1    1    2  503  502  0.59642590399E+02  0.43991242716E+01 -0.11239872377E+04  0.11255771415E+04  0.00000000000E+00 0.  1.
         21    1    1    2  504  505  0.22648299744E+02 -0.98073548016E+02 -0.43549944867E+02  0.10967207484E+03  0.00000000000E+00 0. -1.
         21    1    1    2  505  503  0.66267348083E+02 -0.10781688569E+03 -0.40282399535E+03  0.42223573213E+03  0.00000000000E+00 0.  1.
          4    1    1    2  501    0 -0.14855823823E+03  0.20149130943E+03 -0.13586425332E+03  0.28482870862E+03  0.00000000000E+00 0.  1.
<scales pt_clust_3="59.80461" pt_clust_4="101.86096" pt_clust_5="161.91818" pt_clust_6="14000.00000"></scales>
<clustering>
<clus scale="   59.805">  2  3  1 -1</clus>
<clus scale="  101.861">  1  4  2 -1</clus>
<clus scale="  161.918">  2  5  1 -1</clus>
<clus scale="   59.805">  2  3  1 -1</clus>
</clustering>
</event>
<event>
 6    0  0.1849053E+002  0.1337869E+03  0.7546771E-02  0.1221942E+00
          1   -1    0    0  504    0 -0.00000000000E+00  0.00000000000E+00  0.11084558048E+04  0.11084558048E+04  0.00000000000E+00 0. -1.
         21   -1    0    0  503  502  0.00000000000E+00 -0.00000000000E+00 -0.56000889980E+02  0.56000889980E+02  0.00000000000E+00 0.  1.
         21    1    1    2  503  505  0.39224535127E+02 -0.18106703671E+02  0.78039625390E+02  0.89199775811E+02  0.00000000000E+00 0.  1.
         21    1    1    2  504  502  0.50727919950E+02 -0.69062012153E+02 -0.54073712910E+01  0.85861068299E+02  0.00000000000E+00 0.  1.
         21    1    1    2  505  501 -0.39041699654E+02  0.19324878025E+02  0.18498620689E+03  0.19004631530E+03  0.00000000000E+00 0. -1.
          1    1    1    2  501    0 -0.50910755423E+02  0.67843837799E+02  0.79483645381E+03  0.79934953534E+03  0.00000000000E+00 0. -1.
<scales pt_clust_3="43.20205" pt_clust_4="121.39632" pt_clust_5="40.29734" pt_clust_6="40.29734"></scales>
<clustering>
<clus scale="   40.297">  5  6 -1 -1</clus>
<clus scale="   43.202">  2  3  1 -1</clus>
<clus scale="  121.396">  2  4  1 -1</clus>
<clus scale="   43.202">  2  3  1 -1</clus>
</clustering>
</event>
<event>
 6    0  0.1849053E+002  0.8628716E+02  0.7546771E-02  0.1312100E+00
         -3   -1    0    0    0  501 -0.00000000000E+00  0.00000000000E+00  0.98369759240E+03  0.98369759240E+03  0.00000000000E+00 0. -1.
         21   -1    0    0  504  502  0.00000000000E+00 -0.00000000000E+00 -0.13186659830E+03  0.13186659830E+03  0.00000000000E+00 0.  1.
         21    1    1    2  503  502 -0.18252490646E+02 -0.41122045304E+02  0.38348168197E+03  0.38611187036E+03  0.00000000000E+00 0.  1.
         21    1    1    2  504  505  0.41526565392E+02 -0.56070769730E+02 -0.10073384805E+03  0.12253854494E+03  0.00000000000E+00 0.  1.
         21    1    1    2  505  501  0.14613558819E+02  0.10885904878E+03  0.14975537152E+03  0.18571623490E+03  0.00000000000E+00 0.  1.
         -3    1    1    2    0  503 -0.37887633564E+02 -0.11666233750E+02  0.41932778865E+03  0.42119754050E+03  0.00000000000E+00 0. -1.
<scales pt_clust_3="33.93750" pt_clust_4="69.77383" pt_clust_5="78.34763" pt_clust_6="33.93750"></scales>
<clustering>
<clus scale="   33.937">  3  6 -1 -1</clus>
<clus scale="   69.774">  2  4  1 -1</clus>
<clus scale="   78.348">  2  5  1 -1</clus>
<clus scale="   69.774">  2  3  1 -1</clus>
</clustering>
</event>
<event>
 6    0  0.1849053E+002  0.7525601E+02  0.7546771E-02  0.1343080E+00
         21   -1    0    0  503  502  0.00000000000E+00  0.00000000000E+00  0.63791765422E+03  0.63791765422E+03  0.00000000000E+00 0. -1.
         -2   -1    0    0    0  501 -0.00000000000E+00 -0.00000000000E+00 -0.15190620668E+03  0.15190620668E+03  0.00000000000E+00 0.  1.
         21    1    1    2  503  505  0.17185899329E+02  0.31223692653E+02  0.30317338251E+03  0.30526115701E+03  0.00000000000E+00 0. -1.
         21    1    1    2  504  501 -0.53006256046E+02 -0.90708186910E+02  0.23075510255E+02  0.10756448078E+03  0.00000000000E+00 0.  1.
         21    1    1    2  505  504  0.38940291243E+02 -0.12634522212E+02  0.25456802448E+03  0.25783881888E+03  0.00000000000E+00 0. -1.
         -2    1    1    2    0  502 -0.31199345267E+01  0.72119016469E+02 -0.94805469702E+02  0.11915940422E+03  0.00000000000E+00 0.  1.
<scales pt_clust_3="35.64091" pt_clust_4="75.25601" pt_clust_5="53.35362" pt_clust_6="14000.00000"></scales>
<clustering>
<clus scale="   35.641">  1  3  2 -1</clus>
<clus scale="   53.354">  1  5  2 -1</clus>
<clus scale="   75.256">  1  4  2 -1</clus>
<clus scale="   35.641">  1  3  2 -1</clus>
</clustering>
</event>
<event>
 6    0  0.1849053E+002  0.1439348E+03  0.7546771E-02  0.1208130E+00
         21   -1    0    0  503  502  0.00000000000E+00  0.00000000000E+00  0.19946693631E+03  0.19946693631E+03  0.00000000000E+00 0. -1.
          2   -1    0    0  504    0 -0.00000000000E+00 -0.00000000000E+00 -0.19901508554E+04  0.19901508554E+04  0.00000000000E+00 0.  1.
         21    1    1    2  503  505 -0.80346406256E+02  0.47661540836E+02  0.74217059917E+02  0.11931194180E+03  0.00000000000E+00 0. -1.
         21    1    1    2  504  502  0.39420631002E+02 -0.18075079765E+02 -0.13982246062E+04  0.13988969740E+04  0.00000000000E+00 0.  1.
         21    1    1    2  505  501 -0.42598059141E+02 -0.19505479507E+00  0.94306514506E+02  0.10348116431E+03  0.00000000000E+00 0. -1.
          2    1    1    2  501    0  0.83523834395E+02 -0.29391406276E+02 -0.56098288736E+03  0.56792771159E+03  0.00000000000E+00 0.  1.
<scales pt_clust_3="41.99826" pt_clust_4="43.36698" pt_clust_5="41.99826" pt_clust_6="129.80394"></scales>
<clustering>
<clus scale="   41.998">  3  5 -1 -1</clus>
<clus scale="   43.367">  2  4  1 -1</clus>
<clus scale="  129.804">  2  6  1 -1</clus>
<clus scale="  143.935">  1  3  2 -1</clus>
</clustering>
</event>
<event>
 6    0  0.1849053E+002  0.1215545E+03  0.7546771E-02  0.1240554E+00
          1   -1    0    0  503    0 -0.00000000000E+00  0.00000000000E+00  0.10790231587E+04  0.10790231587E+04  0.00000000000E+00 0.  1.
         21   -1    0    0  505  502  0.00000000000E+00 -0.00000000000E+00 -0.74181104100E+02  0.74181104100E+02  0.00000000000E+00 0.  1.
         21    1    1    2  503  504  0.24642053206E+02  0.73462163708E+02  0.69905961425E+03  0.70334078835E+03  0.00000000000E+00 0. -1.
         21    1    1    2  504  502 -0.59727064472E+01 -0.10438505044E+03  0.94536854203E+01  0.10498230396E+03  0.00000000000E+00 0.  1.
         21    1    1    2  505  501  0.28677187286E+02 -0.61802281889E+02  0.82061041093E+02  0.10665794665E+03  0.00000000000E+00 0. -1.
          1    1    1    2  501    0 -0.47346534045E+02  0.92725168621E+02  0.21426771380E+03  0.23822322380E+03  0.00000000000E+00 0.  1.
<scales pt_clust_3="75.79094" pt_clust_4="121.55446" pt_clust_5="68.13151" pt_clust_6="14000.00000"></scales>
<clustering>
<clus scale="   68.132">  2  5  1 -1</clus>
<clus scale="   75.791">  1  3  2 -1</clus>
<clus scale="  121.554">  2  4  1 -1</clus>
<clus scale="   68.132">  2  3  1 -1</clus>
</clustering>
</event>
<event>
 6    0  0.1849053E+002  0.1115010E+03  0.7546771E-02  0.1257815E+00
          2   -1    0    0  505    0 -0.00000000000E+00  0.00000000000E+00  0.80150535348E+03  0.80150535348E+03  0.00000000000E+00 0. -1.
         21   -1    0    0  504  502  0.00000000000E+00 -0.00000000000E+00 -0.12244720020E+03  0.12244720020E+03  0.00000000000E+00 0.  1.
         21    1    1    2  503  502 -0.65515946060E+02  0.30539515338E+02  0.15152323996E+03  0.16788178410E+03  0.00000000000E+00 0.  1.
         21    1    1    2  504  501  0.11533496817E+03  0.53685981574E+02 -0.59949328722E+02  0.14063520724E+03  0.00000000000E+00 0.  1.
         21    1    1    2  505  503 -0.33343890144E+02 -0.41527788858E+02  0.41450298428E+02  0.67487032066E+02  0.00000000000E+00 0. -1.
          2    1    1    2  501    0 -0.16475131963E+02 -0.42697708055E+02  0.54603394362E+03  0.54794853027E+03  0.00000000000E+00 0. -1.
<scales pt_clust_3="14000.00000" pt_clust_4="111.50104" pt_clust_5="62.66079" pt_clust_6="45.76597"></scales>
<clustering>
<clus scale="   45.766">  1  6  2 -1</clus>
<clus scale="   62.661">  1  5  2 -1</clus>
<clus scale="  111.501">  2  4  1 -1</clus>
<clus scale="  111.501">  2  3  1 -1</clus>
</clustering>
</event>
<event>
 6    0  0.1849053E+002  0.2648543E+03  0.7546771E-02  0.1104261E+00
         21   -1    0    0  503  502  0.00000000000E+00  0.00000000000E+00  0.60706383408E+03  0.60706383408E+03  0.00000000000E+00 0. -1.
          2   -1    0    0  504    0 -0.00000000000E+00 -0.00000000000E+00 -0.30765904099E+04  0.30765904099E+04  0.00000000000E+00 0.  1.
         21    1    1    2  503  505 -0.66045616921E+02  0.30072604064E+02  0.91018077802E+01  0.73138416270E+02  0.00000000000E+00 0.  1.
         21    1    1    2  504  502 -0.18088451846E+03 -0.10486155606E+03  0.54061122133E+03  0.57963406352E+03  0.00000000000E+00 0. -1.
         21    1    1    2  505  501  0.57730417184E+02  0.46269329611E+02 -0.80946405676E+03  0.81283805959E+03  0.00000000000E+00 0. -1.
          2    1    1    2  501    0  0.18919971820E+03  0.28519622384E+02 -0.22097755481E+04  0.22180437046E+04  0.00000000000E+00 0.  1.
<scales pt_clust_3="72.56986" pt_clust_4="257.44750" pt_clust_5="38.67643" pt_clust_6="38.67643"></scales>
<clustering>
<clus scale="   38.676">  5  6 -1 -1</clus>
<clus scale="   72.570">  1  3  2 -1</clus>
<clus scale="  257.447">  1  4  2 -1</clus>
<clus scale="   72.570">  1  3  2 -1</clus>
</clustering>
</event>
<event>
 6    0  0.1849053E+002  0.2169344E+03  0.7546771E-02  0.1136189E+00
          2   -1    0    0  504    0 -0.00000000000E+00  0.00000000000E+00  0.14722721303E+04  0.14722721303E+04  0.00000000000E+00 0.  1.
         21   -1    0    0  505  502  0.00000000000E+00 -0.00000000000E+00 -0.39210676667E+02  0.39210676667E+02  0.00000000000E+00 0.  1.
         21    1    1    2  503  502  0.17147648230E+03 -0.56005220169E+02  0.29528928457E+03  0.34602966672E+03  0.00000000000E+00 0.  1.
         21    1    1    2  504  503  0.12681524791E+02 -0.31960084665E+02  0.86563014849E+02  0.93141954149E+02  0.00000000000E+00 0.  1.
         21    1    1    2  505  501 -0.95457853001E+02  0.40381220151E+02  0.39244953916E+03  0.40590575929E+03  0.00000000000E+00 0.  1.
          2    1    1    2  501    0 -0.88700154090E+02  0.47584084683E+02  0.65875961506E+03  0.66640542681E+03  0.00000000000E+00 0.  1.
<scales pt_clust_3="32.10770" pt_clust_4="32.10770" pt_clust_5="55.38420" pt_clust_6="211.68513"></scales>
<clustering>
<clus scale="   32.108">  3  4 -1 -1</clus>
<clus scale="   55.384">  5  6 -1 -1</clus>
<clus scale="  211.685">  1  5  2 -1</clus>
<clus scale="  216.934">  2  3  1 -1</clus>
</clustering>
</event>
<event>
 6    0  0.1849053E+002  0.1322681E+03  0.7546771E-02  0.1224129E+00
         -1   -1    0    0    0  501 -0.00000000000E+00  0.00000000000E+00  0.94995275567E+03  0.94995275567E+03  0.00000000000E+00 0.  1.
         21   -1    0    0  504  502  0.00000000000E+00 -0.00000000000E+00 -0.15064172804E+03  0.15064172804E+03  0.00000000000E+00 0. -1.
         21    1    1    2  503  501  0.24571564408E+02  0.18478611733E+02  0.38629897212E+03  0.38752047266E+03  0.00000000000E+00 0.  1.
         21    1    1    2  504  503 -0.67878118341E+02 -0.48756473825E+02 -0.10089145477E+03  0.13101037492E+03  0.00000000000E+00 0. -1.
         21    1    1    2  505  502 -0.87473004385E+01 -0.68609707991E+02  0.14967848739E+02  0.70766120364E+02  0.00000000000E+00 0.  1.
         -1    1    1    2    0  505  0.52053854371E+02  0.98887570083E+02  0.49893566154E+03  0.51129751577E+03  0.00000000000E+00 0.  1.
<scales pt_clust_3="30.74444" pt_clust_4="14000.00000" pt_clust_5="67.55376" pt_clust_6="132.26805"></scales>
<clustering>
<clus scale="   30.744">  1  3  2 -1</clus>
<clus scale="   67.554">  2  5  1 -1</clus>
<clus scale="  132.268">  1  6  2 -1</clus>
<clus scale="   67.554">  2  3  1 -1</clus>
</clustering>
</event>
<event>
 6    0  0.1849053E+002  0.1375291E+03  0.7546771E-02  0.1216693E+00
         21   -1    0    0  503  502  0.00000000000E+00  0.00000000000E+00  0.22336535854E+03  0.22336535854E+03  0.00000000000E+00 0.  1.
          2   -1    0    0  505    0 -0.00000000000E+00 -0.00000000000E+00 -0.11123912056E+04  0.11123912056E+04  0.00000000000E+00 0.  1.
         21    1    1    2  503  504  0.43612433399E+02  0.19991267820E+02  0.10995575317E+03  0.11996650696E+03  0.00000000000E+00 0.  1.
         21    1    1    2  504  501 -0.19142158594E+02 -0.50541582232E+02  0.81276846139E+02  0.97605325102E+02  0.00000000000E+00 0.  1.
         21    1    1    2  505  502 -0.10638400420E+03  0.12278352959E+03 -0.53372420878E+03  0.55790221592E+03  0.00000000000E+00 0.  1.
          2    1    1    2  501    0  0.81913729397E+02 -0.92233215180E+02 -0.54653423757E+03  0.56028251613E+03  0.00000000000E+00 0.  1.
<scales pt_clust_3="47.97598" pt_clust_4="37.98485" pt_clust_5="137.52910" pt_clust_6="14000.00000"></scales>
<clustering>
<clus scale="   47.976">  1  3  2 -1</clus>
<clus scale="   37.985">  1  4  2 -1</clus>
<clus scale="  137.529">  1  5  2 -1</clus>
<clus scale="   47.976">  1  3  2 -1</clus>
</clustering>
</event>
<event>
 6    0  0.1849053E+002  0.1024677E+03  0.7546771E-02  0.1275191E+00
          2   -1    0    0  505    0 -0.00000000000E+00  0.00000000000E+00  0.17203760762E+04  0.17203760762E+04  0.00000000000E+00 0. -1.
         21   -1    0    0  504  502  0.00000000000E+00 -0.00000000000E+00 -0.57732448126E+02  0.57732448126E+02  0.00000000000E+00 0. -1.
         21    1    1    2  503  501 -0.38567967397E+02  0.88103763326E+02  0.57546250381E+03  0.58344396004E+03  0.00000000000E+00 0. -1.
         21    1    1    2  504  503 -0.49613675539E+01 -0.38509509383E+02 -0.37451208897E+01  0.39007991635E+02  0.00000000000E+00 0. -1.
         21    1    1    2  505  502 -0.31847111559E+02  0.29399344610E+02 -0.13847308565E+02  0.45500636618E+02  0.00000000000E+00 0. -1.
          2    1    1    2  501    0  0.75376446510E+02 -0.78993598553E+02  0.11047735538E+04  0.11101559361E+04  0.00000000000E+00 0. -1.
<scales pt_clust_3="102.46769" pt_clust_4="38.82779" pt_clust_5="35.95411" pt_clust_6="14000.00000"></scales>
<clustering>
<clus scale="   38.828">  2  4  1 -1</clus>
<clus scale="   35.954">  2  5  1 -1</clus>
<clus scale="  102.468">  2  3  1 -1</clus>
<clus scale="   38.828">  2  3  1 -1</clus>
</clustering>
</event>
<event>
 6    0  0.1849053E+002  0.1071032E+03  0.7546771E-02  0.1266030E+00
         21   -1    0    0  504  502  0.00000000000E+00  0.00000000000E+00  0.13690064339E+03  0.13690064339E+03  0.00000000000E+00 0. -1.
         -4   -1    0    0    0  501 -0.00000000000E+00 -0.00000000000E+00 -0.29428852156E+04  0.29428852156E+04  0.00000000000E+00 0.  1.
         21    1    1    2  503  502  0.13861399925E+02  0.38137280498E+02 -0.48978601765E+02  0.63604197994E+02  0.00000000000E+00 0.  1.
         21    1    1    2  504  505  0.10998047733E+01  0.65644868856E+02  0.11171073046E+03  0.12957525102E+03  0.00000000000E+00 0. -1.
         21    1    1    2  505  501  0.12225648723E+02 -0.15766911826E+03 -0.72530924437E+03  0.74234932296E+03  0.00000000000E+00 0.  1.
         -4    1    1    2    0  503 -0.27186853420E+02  0.53886968905E+02 -0.21434074565E+04  0.21442570870E+04  0.00000000000E+00 0.  1.
<scales pt_clust_3="40.57820" pt_clust_4="107.10324" pt_clust_5="14000.00000" pt_clust_6="60.44792"></scales>
<clustering>
<clus scale="   40.578">  1  3  2 -1</clus>
<clus scale="   60.448">  2  6  1 -1</clus>
<clus scale="  107.103">  1  4  2 -1</clus>
<clus scale="   40.578">  1  3  2 -1</clus>
</clustering>
</event>
<event>
 6    0  0.1849053E+002  0.1029537E+03  0.7546771E-02  0.1274204E+00
         21   -1    0    0  505  502  0.00000000000E+00  0.00000000000E+00  0.20634914117E+03  0.20634914117E+03  0.00000000000E+00 0. -1.
          1   -1    0    0  504    0 -0.00000000000E+00 -0.00000000000E+00 -0.26330488832E+04  0.26330488832E+04  0.00000000000E+00 0.  1.
         21    1    1    2  503  502  0.10246494440E+03 -0.16984227392E+02  0.13675565974E+03  0.17172547651E+03  0.00000000000E+00 0. -1.
         21    1    1    2  504  503  0.34763926464E+02 -0.27221171719E+02 -0.57424871382E+03  0.57594366747E+03  0.00000000000E+00 0.  1.
         21    1    1    2  505  501 -0.15510544625E+02 -0.37289769956E+02  0.40234567406E+02  0.57008107777E+02  0.00000000000E+00 0. -1.
          1    1    1    2  501    0 -0.12171832624E+03  0.81495169067E+02 -0.20294412554E+04  0.20347207726E+04  0.00000000000E+00 0.  1.
<scales pt_clust_3="102.95373" pt_clust_4="44.21180" pt_clust_5="40.38693" pt_clust_6="14000.00000"></scales>
<clustering>
<clus scale="   40.387">  1  5  2 -1</clus>
<clus scale="   44.212">  2  4  1 -1</clus>
<clus scale="  102.954">  1  3  2 -1</clus>
<clus scale="   40.387">  1  3  2 -1</clus>
</clustering>
</event>
<event>
 6    0  0.1849053E+002  0.2178491E+03  0.7546771E-02  0.1135497E+00
         21   -1    0    0  503  502  0.00000000000E+00  0.00000000000E+00  0.45502716522E+03  0.45502716522E+03  0.00000000000E+00 0.  1.
          2   -1    0    0  504    0 -0.00000000000E+00 -0.00000000000E+00 -0.72501439080E+03  0.72501439080E+03  0.00000000000E+00 0.  1.
         21    1    1    2  503  501 -0.10602567873E+03 -0.95755247451E+02  0.36756814405E+03  0.39435625073E+03  0.00000000000E+00 0.  1.
         21    1    1    2  504  505 -0.28466646920E+02  0.14799184703E+02 -0.43691355964E+02  0.54206092285E+02  0.00000000000E+00 0. -1.
         21    1    1    2  505  502 -0.70202744174E+02 -0.38847777114E+02  0.11738830019E+02  0.81088687290E+02  0.00000000000E+00 0.  1.
          2    1    1    2  501    0  0.20469506982E+03  0.11980383986E+03 -0.60560284369E+03  0.65039052571E+03  0.00000000000E+00 0.  1.
<scales pt_clust_3="14000.00000" pt_clust_4="32.08373" pt_clust_5="81.15606" pt_clust_6="217.84905"></scales>
<clustering>
<clus scale="   32.084">  2  4  1 -1</clus>
<clus scale="   81.156">  1  5  2 -1</clus>
<clus scale="  217.849">  2  6  1 -1</clus>
<clus scale="   81.156">  1  3  2 -1</clus>
</clustering>
</event>
<event>
 6    0  0.1849053E+002  0.1681200E+03  0.7546771E-02  0.1179823E+00
          1   -1    0    0  502    0 -0.00000000000E+00  0.00000000000E+00  0.88387363257E+03  0.88387363257E+03  0.00000000000E+00 0.  1.
         21   -1    0    0  503  502  0.00000000000E+00 -0.00000000000E+00 -0.58254471410E+03  0.58254471410E+03  0.00000000000E+00 0.  1.
         21    1    1    2  503  504 -0.11539113281E+03 -0.13387963047E+02 -0.33457987211E+03  0.35417233362E+03  0.00000000000E+00 0. -1.
         21    1    1    2  504  505 -0.45754174485E+02  0.17027270284E+02 -0.22525435477E+03  0.23048404881E+03  0.00000000000E+00 0.  1.
         21    1    1    2  505  501  0.14044946629E+03  0.30781552281E+02  0.57063486284E+03  0.58847064772E+03  0.00000000000E+00 0.  1.
          1    1    1    2  501    0  0.20695841012E+02 -0.34420859517E+02  0.29052828250E+03  0.29329131650E+03  0.00000000000E+00 0.  1.
<scales pt_clust_3="31.94146" pt_clust_4="31.94146" pt_clust_5="160.73788" pt_clust_6="40.16358"></scales>
<clustering>
<clus scale="   31.941">  3  4 -1 -1</clus>
<clus scale="   40.164">  1  6  2 -1</clus>
<clus scale="  160.738">  1  5  2 -1</clus>
<clus scale="  168.120">  2  3  1 -1</clus>
</clustering>
</event>
<event>
 6    0  0.1849053E+002  0.1361059E+03  0.7546771E-02  0.1218667E+00
          1   -1    0    0  503    0 -0.00000000000E+00  0.00000000000E+00  0.54473587031E+03  0.54473587031E+03  0.00000000000E+00 0. -1.
         21   -1    0    0  505  502  0.00000000000E+00 -0.00000000000E+00 -0.18357566329E+04  0.18357566329E+04  0.00000000000E+00 0.  1.
         21    1    1    2  503  502  0.17907941493E+02  0.24928009434E+02  0.41770116966E+02  0.51834763375E+02  0.00000000000E+00 0.  1.
         21    1    1    2  504  501 -0.16872740374E+03 -0.90581746368E+01 -0.30907442755E+03  0.35224705686E+03  0.00000000000E+00 0. -1.
         21    1    1    2  505  504  0.34145397452E+02  0.23993954069E+02 -0.14917884625E+04  0.14923720832E+04  0.00000000000E+00 0.  1.
          1    1    1    2  501    0  0.11667406479E+03 -0.39863788866E+02  0.46807201047E+03  0.48403859975E+03  0.00000000000E+00 0. -1.
<scales pt_clust_3="30.69365" pt_clust_4="14000.00000" pt_clust_5="41.74968" pt_clust_6="136.10590"></scales>
<clustering>
<clus scale="   30.694">  1  3  2 -1</clus>
<clus scale="   41.750">  2  5  1 -1</clus>
<clus scale="  136.106">  1  6  2 -1</clus>
<clus scale="   41.750">  2  3  1 -1</clus>
</clustering>
</event>
<event>
 6    0  0.1849053E+002  0.6733091E+02  0.7546771E-02  0.1369412E+00
         21   -1    0    0  505  502  0.00000000000E+00  0.00000000000E+00  0.36098010575E+03  0.36098010575E+03  0.00000000000E+00 0.  1.
         -2   -1    0    0    0  501 -0.00000000000E+00 -0.00000000000E+00 -0.10862464352E+04  0.10862464352E+04  0.00000000000E+00 0. -1.
         21    1    1    2  503  502 -0.11350119630E+03 -0.44966349285E+02  0.24482396118E+03  0.27357497345E+03  0.00000000000E+00 0.  1.
         21    1    1    2  504  503 -0.19204902912E+02  0.69298069158E+02 -0.24579300758E+03  0.25609617971E+03  0.00000000000E+00 0.  1.
         21    1    1    2  505  501  0.62149356830E+02 -0.13127089178E+01  0.84754028531E+02  0.10510714111E+03  0.00000000000E+00 0. -1.
         -2    1    1    2    0  504  0.70556742379E+02 -0.23019010956E+02 -0.80905131159E+03  0.81244824669E+03  0.00000000000E+00 0. -1.
<scales pt_clust_3="70.30320" pt_clust_4="67.33091" pt_clust_5="62.16322" pt_clust_6="14000.00000"></scales>
<clustering>
<clus scale="   62.163">  1  5  2 -1</clus>
<clus scale="   70.303">  1  3  2 -1</clus>
<clus scale="   67.331">  1  4  2 -1</clus>
<clus scale="   62.163">  1  3  2 -1</clus>
</clustering>
</event>
<event>
 6    0  0.1849053E+002  0.1035145E+03  0.7546771E-02  0.1273074E+00
         -4   -1    0    0    0  501 -0.00000000000E+00  0.00000000000E+00  0.17801611572E+04  0.17801611572E+04  0.00000000000E+00 0. -1.
         21   -1    0    0  503  502  0.00000000000E+00 -0.00000000000E+00 -0.46493691066E+02  0.46493691066E+02  0.00000000000E+00 0.  1.
         21    1    1    2  503  505  0.74254564936E+02  0.22121484354E+02  0.11302126129E+03  0.13702885093E+03  0.00000000000E+00 0.  1.
         21    1    1    2  504  502 -0.42867862108E+02  0.73673543728E+02  0.43732195200E+02  0.95801615562E+02  0.00000000000E+00 0.  1.
         21    1    1    2  505  501  0.17886578541E+02  0.62169981581E+02  0.52594706174E+03  0.52991069819E+03  0.00000000000E+00 0.  1.
         -4    1    1    2    0  504 -0.49273281369E+02 -0.15796500966E+03  0.10509669479E+04  0.10639136836E+04  0.00000000000E+00 0. -1.
<scales pt_clust_3="81.14588" pt_clust_4="14000.00000" pt_clust_5="64.69186" pt_clust_6="103.51451"></scales>
<clustering>
<clus scale="   64.692">  1  5  2 -1</clus>
<clus scale="   81.146">  2  3  1 -1</clus>
<clus scale="  103.515">  1  6  2 -1</clus>
<clus scale="   81.146">  2  3  1 -1</clus>
</clustering>
</event>
<event>
 6    0  0.1849053E+002  0.1683133E+03  0.7546771E-02  0.1179618E+00
          2   -1    0    0  502    0 -0.00000000000E+00  0.00000000000E+00  0.37904202442E+04  0.37904202442E+04  0.00000000000E+00 0.  1.
         21   -1    0    0  503  502  0.00000000000E+00 -0.00000000000E+00 -0.51574861948E+02  0.51574861948E+02  0.00000000000E+00 0.  1.
         21    1    1    2  503  504 -0.50658092787E+02  0.30225582413E+01  0.11325057336E+02  0.51996491678E+02  0.00000000000E+00 0.  1.
         21    1    1    2  504  505 -0.67198469914E+02  0.99303997592E+02  0.93699472342E+02  0.15217263030E+03  0.00000000000E+00 0.  1.
         21    1    1    2  505  501  0.81517333376E+01 -0.39356904912E+02  0.58288961012E+03  0.58427366388E+03  0.00000000000E+00 0.  1.
          2    1    1    2  501    0  0.10970482936E+03 -0.62969650921E+02  0.30509312425E+04  0.30535523203E+04  0.00000000000E+00 0.  1.
<scales pt_clust_3="50.74818" pt_clust_4="153.51341" pt_clust_5="38.90269" pt_clust_6="38.90269"></scales>
<clustering>
<clus scale="   38.903">  5  6 -1 -1</clus>
<clus scale="   50.748">  2  3  1 -1</clus>
<clus scale="  153.513">  2  4  1 -1</clus>
<clus scale="   50.748">  2  3  1 -1</clus>
</clustering>
</event>
<event>
 6    0  0.1849053E+002  0.1684602E+03  0.7546771E-02  0.1179463E+00
         21   -1    0    0  504  502  0.00000000000E+00  0.00000000000E+00  0.85467644146E+02  0.85467644146E+02  0.00000000000E+00 0.  1.
          2   -1    0    0  505    0 -0.00000000000E+00 -0.00000000000E+00 -0.10496614851E+04  0.10496614851E+04  0.00000000000E+00 0. -1.
         21    1    1    2  503  502 -0.12747875012E+02  0.34614870680E+02 -0.64121268340E+02  0.73974554024E+02  0.00000000000E+00 0.  1.
         21    1    1    2  504  501  0.13676351364E+02 -0.17579415836E+03 -0.50295890951E+02  0.18335840681E+03  0.00000000000E+00 0.  1.
         21    1    1    2  505  503 -0.61616441536E+02  0.18609356782E+02 -0.12909737358E+03  0.14425333927E+03  0.00000000000E+00 0. -1.
          2    1    1    2  501    0  0.60687965184E+02  0.12256993090E+03 -0.72067930813E+03  0.73354282918E+03  0.00000000000E+00 0. -1.
<scales pt_clust_3="33.23277" pt_clust_4="14000.00000" pt_clust_5="101.43949" pt_clust_6="168.46023"></scales>
<clustering>
<clus scale="   33.233">  3  5 -1 -1</clus>
<clus scale="  101.439">  2  3  1 -1</clus>
<clus scale="  168.460">  2  6  1 -1</clus>
<clus scale="  168.460">  1  3  2 -1</clus>
</clustering>
</event>
<event>
 6    0  0.1849053E+002  0.9454395E+02  0.7546771E-02  0.1292207E+00
         21   -1    0    0  503  502  0.00000000000E+00  0.00000000000E+00  0.11450963519E+03  0.11450963519E+03  0.00000000000E+00 0. -1.
          2   -1    0    0  504    0 -0.00000000000E+00 -0.00000000000E+00 -0.10629275677E+04  0.10629275677E+04  0.00000000000E+00 0. -1.
         21    1    1    2  503  501 -0.57750453014E+02  0.32300724187E+02 -0.52567926547E+02  0.84509398932E+02  0.00000000000E+00 0. -1.
         21    1    1    2  504  505 -0.16591238252E+02 -0.35951180835E+02 -0.10246781387E+03  0.10985176134E+03  0.00000000000E+00 0. -1.
         21    1    1    2  505  502  0.11943220386E+03  0.43839484742E+02  0.50613219530E+02  0.13692205715E+03  0.00000000000E+00 0. -1.
          2    1    1    2  501    0 -0.45090512596E+02 -0.40189028095E+02 -0.84399541161E+03  0.84615398547E+03  0.00000000000E+00 0. -1.
<scales pt_clust_3="66.01060" pt_clust_4="39.59491" pt_clust_5="94.54395" pt_clust_6="14000.00000"></scales>
<clustering>
<clus scale="   39.595">  2  4  1 -1</clus>
<clus scale="   66.011">  1  3  2 -1</clus>
<clus scale="   94.544">  1  5  2 -1</clus>
<clus scale="   66.011">  1  3  2 -1</clus>
</clustering>
</event>
<event>
 6    0  0.1849053E+002  0.1365831E+03  0.7546771E-02  0.1218002E+00
         21   -1    0    0  501  502  0.00000000000E+00  0.00000000000E+00  0.17456503829E+02  0.17456503829E+02  0.00000000000E+00 0. -1.
          1   -1    0    0  504    0 -0.00000000000E+00 -0.00000000000E+00 -0.14877399201E+04  0.14877399201E+04  0.00000000000E+00 0. -1.
         21    1    1    2  503  502 -0.56609070617E+02 -0.85267093169E+02 -0.25919348853E+03  0.27866885106E+03  0.00000000000E+00 0. -1.
         21    1    1    2  504  505  0.41873812983E+02  0.21846189525E+01 -0.38856332105E+03  0.39081919507E+03  0.00000000000E+00 0. -1.
         21    1    1    2  505  503 -0.36028331390E+02 -0.13638979930E+02 -0.20195831765E+03  0.20559967048E+03  0.00000000000E+00 0. -1.
          1    1    1    2  501    0  0.50763589024E+02  0.96721454146E+02 -0.62056828903E+03  0.63010870730E+03  0.00000000000E+00 0. -1.
<scales pt_clust_3="36.24878" pt_clust_4="41.93076" pt_clust_5="36.24878" pt_clust_6="123.14226"></scales>
<clustering>
<clus scale="   36.249">  3  5 -1 -1</clus>
<clus scale="   41.931">  2  4  1 -1</clus>
<clus scale="  123.142">  2  6  1 -1</clus>
<clus scale="  136.583">  1  3  2 -1</clus>
</clustering>
</event>
<event>
 6    0  0.1849053E+002  0.6368167E+02  0.7546771E-02  0.1383000E+00
          1   -1    0    0  503    0 -0.00000000000E+00  0.00000000000E+00  0.13038463310E+04  0.13038463310E+04  0.00000000000E+00 0.  1.
         21   -1    0    0  504  502  0.00000000000E+00 -0.00000000000E+00 -0.22994494679E+03  0.22994494679E+03  0.00000000000E+00 0.  1.
         21    1    1    2  503  505  0.41076307587E+02 -0.31963850875E+02  0.11708235668E+03  0.12812973524E+03  0.00000000000E+00 0.  1.
         21    1    1    2  504  501  0.42148251154E+02 -0.61027516333E+02 -0.18423219095E+03  0.19860093909E+03  0.00000000000E+00 0.  1.
         21    1    1    2  505  502  0.18492181326E+02  0.44657440122E+02 -0.10956886091E+02  0.49561084343E+02  0.00000000000E+00 0. -1.
          1    1    1    2  501    0 -0.10171674007E+03  0.48333927087E+02  0.11520081046E+04  0.11574995191E+04  0.00000000000E+00 0.  1.
<scales pt_clust_3="51.70872" pt_clust_4="63.68167" pt_clust_5="48.33475" pt_clust_6="14000.00000"></scales>
<clustering>
<clus scale="   48.335">  2  5  1 -1</clus>
<clus scale="   51.709">  1  3  2 -1</clus>
<clus scale="   63.682">  2  4  1 -1</clus>
<clus scale="   48.335">  2  3  1 -1</clus>
</clustering>
</event>
<event>
 6    0  0.1849053E+002  0.1289239E+03  0.7546771E-02  0.1229061E+00
         21   -1    0    0  504  502  0.00000000000E+00  0.00000000000E+00  0.58359866913E+02  0.58359866913E+02  0.00000000000E+00 0. -1.
         -1   -1    0    0    0  501 -0.00000000000E+00 -0.00000000000E+00 -0.58202303328E+03  0.58202303328E+03  0.00000000000E+00 0.  1.
         21    1    1    2  503  505  0.76930067022E+02 -0.12286214037E+02 -0.47988254149E+02  0.91498955205E+02  0.00000000000E+00 0. -1.
         21    1    1    2  504  501 -0.38467821746E+02  0.27036074770E+02 -0.19480767981E+03  0.20040148393E+03  0.00000000000E+00 0.  1.
         21    1    1    2  505  502  0.44728880665E+02  0.29526637741E+02 -0.14656664502E+01  0.53615699939E+02  0.00000000000E+00 0. -1.
         -1    1    1    2    0  503 -0.83191125940E+02 -0.44276498474E+02 -0.27940156597E+03  0.29486676113E+03  0.00000000000E+00 0.  1.
<scales pt_clust_3="51.19513" pt_clust_4="47.01832" pt_clust_5="51.19513" pt_clust_6="114.48551"></scales>
<clustering>
<clus scale="   47.018">  2  4  1 -1</clus>
<clus scale="   51.195">  3  5 -1 -1</clus>
<clus scale="  114.486">  2  6  1 -1</clus>
<clus scale="  128.924">  1  3  2 -1</clus>
</clustering>
</event>
<event>
 6    0  0.1849053E+002  0.9352755E+02  0.7546771E-02  0.1294527E+00
         21   -1    0    0  503  502  0.00000000000E+00  0.00000000000E+00  0.97457537232E+02  0.97457537232E+02  0.00000000000E+00 0. -1.
         -4   -1    0    0    0  501 -0.00000000000E+00 -0.00000000000E+00 -0.31394411403E+03  0.31394411403E+03  0.00000000000E+00 0. -1.
         21    1    1    2  503  505 -0.90631845836E+02  0.48045086419E+02  0.74968767044E+01  0.10285263715E+03  0.00000000000E+00 0. -1.
         21    1    1    2  504  502 -0.34335179417E+02 -0.25237497419E+02 -0.21496183674E+02  0.47727578339E+02  0.00000000000E+00 0. -1.
         21    1    1    2  505  501  0.47264746394E+02 -0.59736832551E+02 -0.11644457541E+03  0.13914662970E+03  0.00000000000E+00 0. -1.
         -4    1    1    2    0  504  0.77702278859E+02  0.36929243551E+02 -0.86042694416E+02  0.12167480607E+03  0.00000000000E+00 0. -1.
<scales pt_clust_3="93.52755" pt_clust_4="42.61263" pt_clust_5="76.18607" pt_clust_6="14000.00000"></scales>
<clustering>
<clus scale="   42.613">  1  4  2 -1</clus>
<clus scale="   76.186">  2  5  1 -1</clus>
<clus scale="   93.528">  1  3  2 -1</clus>
<clus scale="   42.613">  1  3  2 -1</clus>
</clustering>
</event>
<event>
 6    0  0.1849053E+002  0.1657092E+03  0.7546771E-02  0.1182398E+00
         21   -1    0    0  504  502  0.00000000000E+00  0.00000000000E+00  0.72377934632E+03  0.72377934632E+03  0.00000000000E+00 0. -1.
          1   -1    0    0  505    0 -0.00000000000E+00 -0.00000000000E+00 -0.94592434670E+02  0.94592434670E+02  0.00000000000E+00 0. -1.
         21    1    1    2  503  502 -0.66872248827E+02 -0.74667380744E+02  0.14250321889E+03  0.17422480536E+03  0.00000000000E+00 0. -1.
         21    1    1    2  504  501  0.10802112035E+03  0.54290727507E+02  0.17701036189E+03  0.21435651086E+03  0.00000000000E+00 0. -1.
         21    1    1    2  505  503 -0.97488753926E+02 -0.86255999906E+02  0.27508256134E+03  0.30432642050E+03  0.00000000000E+00 0. -1.
          1    1    1    2  501    0  0.56339882404E+02  0.10663265314E+03  0.34590769536E+02  0.12546404426E+03  0.00000000000E+00 0. -1.
<scales pt_clust_3="36.41978" pt_clust_4="160.42758" pt_clust_5="36.41978" pt_clust_6="120.60143"></scales>
<clustering>
<clus scale="   36.420">  3  5 -1 -1</clus>
<clus scale="  120.601">  2  6  1 -1</clus>
<clus scale="  160.428">  1  4  2 -1</clus>
<clus scale="  160.428">  1  3  2 -1</clus>
</clustering>
</event>
<event>
 6    0  0.1849053E+002  0.2259678E+03  0.7546771E-02  0.1129510E+00
         21   -1    0    0  503  502  0.00000000000E+00  0.00000000000E+00  0.44368244934E+02  0.44368244934E+02  0.00000000000E+00 0. -1.
          2   -1    0    0  502    0 -0.00000000000E+00 -0.00000000000E+00 -0.35860569304E+04  0.35860569304E+04  0.00000000000E+00 0.  1.
         21    1    1    2  503  504 -0.88226178322E+02  0.99225226811E+02 -0.12775170117E+03  0.18425526133E+03  0.00000000000E+00 0. -1.
         21    1    1    2  504  505 -0.80818818547E+02  0.26332862979E+02 -0.13549685831E+03  0.15995155427E+03  0.00000000000E+00 0.  1.
         21    1    1    2  505  501  0.74985806947E+01 -0.39962499874E+02 -0.43036226813E+03  0.43227874333E+03  0.00000000000E+00 0.  1.
          2    1    1    2  501    0  0.16154641617E+03 -0.85595589915E+02 -0.28480778579E+04  0.28539396164E+04  0.00000000000E+00 0.  1.
<scales pt_clust_3="221.76232" pt_clust_4="55.64943" pt_clust_5="38.66045" pt_clust_6="38.66045"></scales>
<clustering>
<clus scale="   38.660">  5  6 -1 -1</clus>
<clus scale="   55.649">  3  4 -1 -1</clus>
<clus scale="  221.762">  1  3  2 -1</clus>
<clus scale="  221.762">  1  3  2 -1</clus>
</clustering>
</event>
<event>
 6    0  0.1849053E+002  0.2822075E+03  0.7546771E-02  0.1094489E+00
         21   -1    0    0  504  502  0.00000000000E+00  0.00000000000E+00  0.68506701458E+03  0.68506701458E+03  0.00000000000E+00 0.  1.
          2   -1    0    0  505    0 -0.00000000000E+00 -0.00000000000E+00 -0.24379816920E+04  0.24379816920E+04  0.00000000000E+00 0.  1.
         21    1    1    2  503  501  0.51576877788E+02 -0.35302724305E+02  0.97903794712E+02  0.11615338861E+03  0.00000000000E+00 0. -1.
         21    1    1    2  504  503  0.21228597664E+03  0.32369083299E+02  0.52300899965E+03  0.56537731397E+03  0.00000000000E+00 0.  1.
         21    1    1    2  505  502 -0.29235538060E+03  0.16672170903E+02 -0.60234392249E+03  0.66975206667E+03  0.00000000000E+00 0.  1.
          2    1    1    2  501    0  0.28492526174E+02 -0.13738529897E+02 -0.17714835493E+04  0.17717659373E+04  0.00000000000E+00 0.  1.
<scales pt_clust_3="52.15831" pt_clust_4="52.15831" pt_clust_5="265.18270" pt_clust_6="31.63181"></scales>
<clustering>
<clus scale="   31.632">  2  6  1 -1</clus>
<clus scale="   52.158">  3  4 -1 -1</clus>
<clus scale="  265.183">  2  5  1 -1</clus>
<clus scale="  282.207">  1  3  2 -1</clus>
</clustering>
</event>
<event>
 6    0  0.1849053E+002  0.5552621E+02  0.7546771E-02  0.1417627E+00
          2   -1    0    0  504    0 -0.00000000000E+00  0.00000000000E+00  0.28516376843E+03  0.28516376843E+03  0.00000000000E+00 0.  1.
         21   -1    0    0  505  502  0.00000000000E+00 -0.00000000000E+00 -0.90711051361E+03  0.90711051361E+03  0.00000000000E+00 0.  1.
         21    1    1    2  503  502  0.40193945097E+02  0.15122625969E+02 -0.15488948289E+03  0.16073269409E+03  0.00000000000E+00 0.  1.
         21    1    1    2  504  503 -0.47014960773E+02  0.17778864578E+02  0.77860145110E+01  0.50863705961E+02  0.00000000000E+00 0. -1.
         21    1    1    2  505  501 -0.56323841070E+02  0.37508058160E+02 -0.71727042620E+03  0.72045547663E+03  0.00000000000E+00 0.  1.
          2    1    1    2  501    0  0.63144856746E+02 -0.70409548707E+02  0.24242714940E+03  0.26022240536E+03  0.00000000000E+00 0.  1.
<scales pt_clust_3="42.94470" pt_clust_4="49.34404" pt_clust_5="55.52621" pt_clust_6="14000.00000"></scales>
<clustering>
<clus scale="   42.945">  2  3  1 -1</clus>
<clus scale="   49.344">  1  4  2 -1</clus>
<clus scale="   55.526">  2  5  1 -1</clus>
<clus scale="   42.945">  2  3  1 -1</clus>
</clustering>
</event>
<event>
 6    0  0.1849053E+002  0.1754093E+03  0.7546771E-02  0.1172321E+00
          2   -1    0    0  504    0 -0.00000000000E+00  0.00000000000E+00  0.78786441839E+03  0.78786441839E+03  0.00000000000E+00 0.  1.
         21   -1    0    0  505  502  0.00000000000E+00 -0.00000000000E+00 -0.44904135646E+03  0.44904135646E+03  0.00000000000E+00 0.  1.
         21    1    1    2  503  501 -0.52948623460E+02  0.12949091177E+00  0.13133774143E+03  0.14160923634E+03  0.00000000000E+00 0.  1.
         21    1    1    2  504  502  0.13295289793E+03  0.21610323276E+02 -0.40168694256E+03  0.42366953982E+03  0.00000000000E+00 0.  1.
         21    1    1    2  505  503  0.31656543221E+02 -0.12364412378E+02 -0.15235698843E+02  0.37244354490E+02  0.00000000000E+00 0.  1.
          2    1    1    2  501    0 -0.11166081770E+03 -0.93754018101E+01  0.62440796191E+03  0.63438264420E+03  0.00000000000E+00 0.  1.
<scales pt_clust_3="42.45545" pt_clust_4="164.12910" pt_clust_5="33.98552" pt_clust_6="42.45545"></scales>
<clustering>
<clus scale="   33.986">  2  5  1 -1</clus>
<clus scale="   42.455">  3  6 -1 -1</clus>
<clus scale="  164.129">  2  4  1 -1</clus>
<clus scale="   33.986">  2  3  1 -1</clus>
</clustering>
</event>
<event>
 6    0  0.1849053E+002  0.9146113E+02  0.7546771E-02  0.1299351E+00
          2   -1    0    0  503    0 -0.00000000000E+00  0.00000000000E+00  0.16552815256E+04  0.16552815256E+04  0.00000000000E+00 0.  1.
         21   -1    0    0  504  502  0.00000000000E+00 -0.00000000000E+00 -0.94226950085E+02  0.94226950085E+02  0.00000000000E+00 0.  1.
         21    1    1    2  503  505 -0.97830545173E+01  0.39561323492E+02  0.24786973387E+03  0.25119755461E+03  0.00000000000E+00 0.  1.
         21    1    1    2  504  501  0.44160534834E+02 -0.11044475369E+03 -0.39808667351E+02  0.12543096289E+03  0.00000000000E+00 0.  1.
         21    1    1    2  505  502  0.21511606092E+02  0.43988115563E+02  0.55937442570E+02  0.74341784944E+02  0.00000000000E+00 0.  1.
          2    1    1    2  501    0 -0.55889086409E+02  0.26895314633E+02  0.12970560664E+04  0.12985381733E+04  0.00000000000E+00 0.  1.
<scales pt_clust_3="40.75299" pt_clust_4="91.46113" pt_clust_5="50.42860" pt_clust_6="14000.00000"></scales>
<clustering>
<clus scale="   40.753">  1  3  2 -1</clus>
<clus scale="   50.429">  2  5  1 -1</clus>
<clus scale="   91.461">  2  4  1 -1</clus>
<clus scale="   50.429">  2  3  1 -1</clus>
</clustering>
</event>
<event>
 6    0  0.1849053E+002  0.1544386E+03  0.7546771E-02  0.1195123E+00
          1   -1    0    0  503    0 -0.00000000000E+00  0.00000000000E+00  0.11248666034E+04  0.11248666034E+04  0.00000000000E+00 0.  1.
         21   -1    0    0  504  502  0.00000000000E+00 -0.00000000000E+00 -0.58337516862E+02  0.58337516862E+02  0.00000000000E+00 0. -1.
         21    1    1    2  503  502  0.16778346933E+03 -0.53747375075E+02  0.12967483820E+03  0.21875931196E+03  0.00000000000E+00 0. -1.
         21    1    1    2  504  505 -0.36644038223E+02  0.19794915310E+02  0.50285889651E+02  0.65293911718E+02  0.00000000000E+00 0. -1.
         21    1    1    2  505  501 -0.53516455712E+02  0.31511058675E+02  0.56197954356E+03  0.56540071209E+03  0.00000000000E+00 0.  1.
          1    1    1    2  501    0 -0.77622975390E+02  0.24414010899E+01  0.32458881515E+03  0.33375018452E+03  0.00000000000E+00 0.  1.
<scales pt_clust_3="140.47320" pt_clust_4="41.64882" pt_clust_5="56.81195" pt_clust_6="56.81195"></scales>
<clustering>
<clus scale="   41.649">  2  4  1 -1</clus>
<clus scale="   56.812">  5  6 -1 -1</clus>
<clus scale="  140.473">  2  3  1 -1</clus>
<clus scale="   41.649">  2  3  1 -1</clus>
</clustering>
</event>
<event>
 6    0  0.1849053E+002  0.1271758E+03  0.7546771E-02  0.1231708E+00
          1   -1    0    0  502    0 -0.00000000000E+00  0.00000000000E+00  0.21269500546E+04  0.21269500546E+04  0.00000000000E+00 0.  1.
         21   -1    0    0  505  502  0.00000000000E+00 -0.00000000000E+00 -0.17677019710E+03  0.17677019710E+03  0.00000000000E+00 0. -1.
         21    1    1    2  503  501  0.68661780850E+02  0.10486438691E+03  0.76101019508E+03  0.77126357155E+03  0.00000000000E+00 0. -1.
         21    1    1    2  504  503 -0.61626344365E+02 -0.93479107096E+02 -0.59690718057E+02  0.12688235340E+03  0.00000000000E+00 0. -1.
         21    1    1    2  505  504 -0.49471509622E+02  0.26184248252E+02 -0.67672810809E+02  0.87821719658E+02  0.00000000000E+00 0. -1.
          1    1    1    2  501    0  0.42436073137E+02 -0.37569528063E+02  0.13165331913E+04  0.13177526071E+04  0.00000000000E+00 0.  1.
<scales pt_clust_3="127.17579" pt_clust_4="14000.00000" pt_clust_5="55.97361" pt_clust_6="56.34218"></scales>
<clustering>
<clus scale="   55.974">  2  5  1 -1</clus>
<clus scale="   56.342">  1  6  2 -1</clus>
<clus scale="  127.176">  1  3  2 -1</clus>
<clus scale="   55.974">  2  3  1 -1</clus>
</clustering>
</event>
<event>
 6    0  0.1849053E+002  0.1489243E+03  0.7546771E-02  0.1201801E+00
          1   -1    0    0  505    0 -0.00000000000E+00  0.00000000000E+00  0.11331350956E+04  0.11331350956E+04  0.00000000000E+00 0.  1.
         21   -1    0    0  503  502  0.00000000000E+00 -0.00000000000E+00 -0.75676825875E+03  0.75676825875E+03  0.00000000000E+00 0.  1.
         21    1    1    2  503  501  0.91407932423E+02 -0.85630812476E+02 -0.14421761531E+03  0.19101509553E+03  0.00000000000E+00 0.  1.
         21    1    1    2  504  502 -0.14749829578E+03  0.68392326055E+02 -0.57365541342E+03  0.59624977222E+03  0.00000000000E+00 0.  1.
         21    1    1    2  505  504 -0.25785682410E+01 -0.47432173210E+02  0.45222779071E+03  0.45471577360E+03  0.00000000000E+00 0.  1.
          1    1    1    2  501    0  0.58668931597E+02  0.64670659631E+02  0.64201207489E+03  0.64792271302E+03  0.00000000000E+00 0.  1.
<scales pt_clust_3="14000.00000" pt_clust_4="148.92433" pt_clust_5="47.50221" pt_clust_6="59.56024"></scales>
<clustering>
<clus scale="   47.502">  1  5  2 -1</clus>
<clus scale="   59.560">  1  6  2 -1</clus>
<clus scale="  148.924">  2  4  1 -1</clus>
<clus scale="  148.924">  2  3  1 -1</clus>
</clustering>
</event>
<event>
 6    0  0.1849053E+002  0.1072761E+03  0.7546771E-02  0.1265699E+00
         21   -1    0    0  505  502  0.00000000000E+00  0.00000000000E+00  0.27223227628E+03  0.27223227628E+03  0.00000000000E+00 0. -1.
          1   -1    0    0  504    0 -0.00000000000E+00 -0.00000000000E+00 -0.47850322635E+03  0.47850322635E+03  0.00000000000E+00 0. -1.
         21    1    1    2  503  501  0.12580990531E+03  0.24225396842E+02  0.10603191439E+03  0.16630625062E+03  0.00000000000E+00 0. -1.
         21    1    1    2  504  502 -0.30136256686E+02 -0.19305400293E+01 -0.29291422386E+03  0.29446674429E+03  0.00000000000E+00 0. -1.
         21    1    1    2  505  503 -0.29199670826E+02  0.29598178698E+02  0.12002782886E+03  0.12702500800E+03  0.00000000000E+00 0. -1.
          1    1    1    2  501    0 -0.66473977793E+02 -0.51893035510E+02 -0.13941646946E+03  0.16293749972E+03  0.00000000000E+00 0. -1.
<scales pt_clust_3="14000.00000" pt_clust_4="30.19803" pt_clust_5="41.95417" pt_clust_6="107.27610"></scales>
<clustering>
<clus scale="   30.198">  2  4  1 -1</clus>
<clus scale="   41.954">  1  5  2 -1</clus>
<clus scale="  107.276">  2  6  1 -1</clus>
<clus scale="   41.954">  1  3  2 -1</clus>
</clustering>
</event>
<event>
 6    0  0.1849053E+002  0.1351833E+03  0.7546771E-02  0.1219961E+00
          2   -1    0    0  502    0 -0.00000000000E+00  0.00000000000E+00  0.56411268076E+03  0.56411268076E+03  0.00000000000E+00 0.  1.
         21   -1    0    0  504  502  0.00000000000E+00 -0.00000000000E+00 -0.10003892367E+03  0.10003892367E+03  0.00000000000E+00 0.  1.
         21    1    1    2  503  501 -0.42846790517E+02  0.51919752521E+02  0.19378867642E+03  0.20514765235E+03  0.00000000000E+00 0.  1.
         21    1    1    2  504  505  0.25510404177E+02 -0.48206524620E+02 -0.37716787097E+02  0.66311430132E+02  0.00000000000E+00 0.  1.
         21    1    1    2  505  503  0.52179829467E+02 -0.53847098041E+02 -0.36949956264E+01  0.75072615269E+02  0.00000000000E+00 0.  1.
          2    1    1    2  501    0 -0.34843443128E+02  0.50133870140E+02  0.31169686340E+03  0.31761990668E+03  0.00000000000E+00 0.  1.
<scales pt_clust_3="34.59473" pt_clust_4="36.42251" pt_clust_5="36.42251" pt_clust_6="133.30525"></scales>
<clustering>
<clus scale="   34.595">  3  6 -1 -1</clus>
<clus scale="   36.423">  4  5 -1 -1</clus>
<clus scale="  133.305">  1  3  2 -1</clus>
<clus scale="  135.183">  2  3  1 -1</clus>
</clustering>
</event>
<event>
 6    0  0.1849053E+002  0.1688708E+03  0.7546771E-02  0.1179031E+00
          2   -1    0    0  505    0 -0.00000000000E+00  0.00000000000E+00  0.78949124038E+03  0.78949124038E+03  0.00000000000E+00 0. -1.
         21   -1    0    0  501  502  0.00000000000E+00 -0.00000000000E+00 -0.13533095539E+03  0.13533095539E+03  0.00000000000E+00 0. -1.
         21    1    1    2  503  504 -0.31893617622E+02  0.69550893179E+02 -0.43288672459E+02  0.87911539346E+02  0.00000000000E+00 0. -1.
         21    1    1    2  504  502 -0.56884917748E+02  0.83367590255E+02 -0.41831641848E+01  0.10101261226E+03  0.00000000000E+00 0. -1.
         21    1    1    2  505  503 -0.72906273732E+01 -0.85277013814E+02  0.45156312406E+03  0.45960262983E+03  0.00000000000E+00 0. -1.
          2    1    1    2  501    0  0.96069162743E+02 -0.67641469619E+02  0.25006899757E+03  0.27629541434E+03  0.00000000000E+00 0. -1.
<scales pt_clust_3="40.58900" pt_clust_4="40.58900" pt_clust_5="85.58810" pt_clust_6="162.30916"></scales>
<clustering>
<clus scale="   40.589">  3  4 -1 -1</clus>
<clus scale="   85.588">  1  5  2 -1</clus>
<clus scale="  162.309">  1  6  2 -1</clus>
<clus scale="  168.871">  2  3  1 -1</clus>
</clustering>
</event>
<event>
 6    0  0.1849053E+002  0.1149832E+03  0.7546771E-02  0.1251611E+00
         21   -1    0    0  505  502  0.00000000000E+00  0.00000000000E+00  0.70462408918E+03  0.70462408918E+03  0.00000000000E+00 0.  1.
         -1   -1    0    0    0  501 -0.00000000000E+00 -0.00000000000E+00 -0.48925652981E+03  0.48925652981E+03  0.00000000000E+00 0. -1.
         21    1    1    2  503  504 -0.58641318140E+02 -0.44028754515E+02  0.49229640074E+03  0.49772791925E+03  0.00000000000E+00 0.  1.
         21    1    1    2  504  502 -0.49104208884E+01 -0.42937222444E+02  0.15358052848E+03  0.15954527894E+03  0.00000000000E+00 0.  1.
         21    1    1    2  505  501 -0.48314432972E+02  0.57487341165E+02  0.14781361001E+02  0.76534746754E+02  0.00000000000E+00 0.  1.
         -1    1    1    2    0  503  0.11186617200E+03  0.29478635793E+02 -0.44529073086E+03  0.46007267403E+03  0.00000000000E+00 0. -1.
<scales pt_clust_3="114.98316" pt_clust_4="43.21710" pt_clust_5="72.66569" pt_clust_6="14000.00000"></scales>
<clustering>
<clus scale="   43.217">  1  4  2 -1</clus>
<clus scale="   72.666">  1  5  2 -1</clus>
<clus scale="  114.983">  1  3  2 -1</clus>
<clus scale="   43.217">  1  3  2 -1</clus>
</clustering>
</event>
<event>
 6    0  0.1849053E+002  0.1691778E+03  0.7546771E-02  0.1178708E+00
          2   -1    0    0  505    0 -0.00000000000E+00  0.00000000000E+00  0.26540918767E+04  0.26540918767E+04  0.00000000000E+00 0.  1.
         21   -1    0    0  504  502  0.00000000000E+00 -0.00000000000E+00 -0.64094298585E+03  0.64094298585E+03  0.00000000000E+00 0. -1.
         21    1    1    2  503  502 -0.50302479650E+02 -0.41044122137E+02 -0.11720809439E+01  0.64933298042E+02  0.00000000000E+00 0. -1.
         21    1    1    2  504  501 -0.81158459523E+02 -0.65515035046E+02 -0.59438763521E+03  0.60346961503E+03  0.00000000000E+00 0. -1.
         21    1    1    2  505  503  0.20305794846E+03  0.67940021340E+02  0.15374235172E+04  0.15522626865E+04  0.00000000000E+00 0.  1.
          2    1    1    2  501    0 -0.71597009286E+02  0.38619135843E+02  0.10712850899E+04  0.10743692630E+04  0.00000000000E+00 0.  1.
<scales pt_clust_3="64.92272" pt_clust_4="14000.00000" pt_clust_5="169.17781" pt_clust_6="81.41147"></scales>
<clustering>
<clus scale="   64.923">  2  3  1 -1</clus>
<clus scale="   81.411">  1  6  2 -1</clus>
<clus scale="  169.178">  1  5  2 -1</clus>
<clus scale="   64.923">  2  3  1 -1</clus>
</clustering>
</event>
<event>
 6    0  0.1849053E+002  0.9343973E+02  0.7546771E-02  0.1294729E+00
         21   -1    0    0  505  502  0.00000000000E+00  0.00000000000E+00  0.73955894422E+02  0.73955894422E+02  0.00000000000E+00 0.  1.
          2   -1    0    0  503    0 -0.00000000000E+00 -0.00000000000E+00 -0.74350108058E+03  0.74350108058E+03  0.00000000000E+00 0.  1.
         21    1    1    2  503  502 -0.30190920037E+02 -0.58454460121E+01  0.31082975899E+02  0.43724275666E+02  0.00000000000E+00 0.  1.
         21    1    1    2  504  501  0.30507877196E+02  0.72546376443E+02 -0.16622656325E+03  0.18391568078E+03  0.00000000000E+00 0.  1.
         21    1    1    2  505  504  0.28484665711E+01  0.36948965944E+02  0.77305659536E+01  0.37856327029E+02  0.00000000000E+00 0.  1.
          2    1    1    2  501    0 -0.31654237298E+01 -0.10364989638E+03 -0.54213216476E+03  0.55196069153E+03  0.00000000000E+00 0.  1.
<scales pt_clust_3="30.75160" pt_clust_4="93.43973" pt_clust_5="36.93841" pt_clust_6="14000.00000"></scales>
<clustering>
<clus scale="   30.752">  1  3  2 -1</clus>
<clus scale="   36.938">  1  5  2 -1</clus>
<clus scale="   93.440">  1  4  2 -1</clus>
<clus scale="   30.752">  1  3  2 -1</clus>
</clustering>
</event>
<event>
 6    0  0.1849053E+002  0.1435258E+03  0.7546771E-02  0.1208662E+00
         21   -1    0    0  501  502  0.00000000000E+00  0.00000000000E+00  0.35756397895E+03  0.35756397895E+03  0.00000000000E+00 0.  1.
          1   -1    0    0  503    0 -0.00000000000E+00 -0.00000000000E+00 -0.77101116571E+03  0.77101116571E+03  0.00000000000E+00 0.  1.
         21    1    1    2  503  504 -0.35187035931E+02 -0.28051828441E+02 -0.99425153411E+02  0.10913475023E+03  0.00000000000E+00 0.  1.
         21    1    1    2  504  505  0.47735796758E+02  0.54597198634E+01  0.58759952338E+02  0.75902877626E+02  0.00000000000E+00 0.  1.
         21    1    1    2  505  502  0.84310921409E+02 -0.55734938355E+01  0.27513413314E+03  0.28781623742E+03  0.00000000000E+00 0.  1.
          1    1    1    2  501    0 -0.96859682236E+02  0.28165602413E+02 -0.64791611883E+03  0.65572127939E+03  0.00000000000E+00 0.  1.
<scales pt_clust_3="45.00036" pt_clust_4="43.77557" pt_clust_5="43.77557" pt_clust_6="131.26180"></scales>
<clustering>
<clus scale="   43.776">  4  5 -1 -1</clus>
<clus scale="   45.000">  2  3  1 -1</clus>
<clus scale="  131.262">  2  6  1 -1</clus>
<clus scale="  143.526">  1  3  2 -1</clus>
</clustering>
</event>
<event>
 6    0  0.1849053E+002  0.6885512E+02  0.7546771E-02  0.1364030E+00
         21   -1    0    0  505  502  0.00000000000E+00  0.00000000000E+00  0.23638004783E+04  0.23638004783E+04  0.00000000000E+00 0. -1.
          2   -1    0    0  503    0 -0.00000000000E+00 -0.00000000000E+00 -0.37563839509E+03  0.37563839509E+03  0.00000000000E+00 0. -1.
         21    1    1    2  503  504 -0.28434664622E+02 -0.43096375234E+02  0.40317040691E+02  0.65507949751E+02  0.00000000000E+00 0.  1.
         21    1    1    2  504  502 -0.47008062845E+02 -0.15221469780E+02  0.19500328391E+04  0.19506587412E+04  0.00000000000E+00 0. -1.
         21    1    1    2  505  501  0.11523214499E+03  0.31460095359E+02  0.34897054215E+03  0.36884769774E+03  0.00000000000E+00 0.  1.
          2    1    1    2  501    0 -0.39789417526E+02  0.26857749656E+02 -0.35115833875E+03  0.35442448467E+03  0.00000000000E+00 0. -1.
<scales pt_clust_3="14000.00000" pt_clust_4="49.81892" pt_clust_5="68.85512" pt_clust_6="48.00559"></scales>
<clustering>
<clus scale="   48.006">  2  6  1 -1</clus>
<clus scale="   49.819">  1  4  2 -1</clus>
<clus scale="   68.855">  1  5  2 -1</clus>
<clus scale="   49.819">  1  3  2 -1</clus>
</clustering>
</event>
<event>
 6    0  0.1849053E+002  0.8752774E+02  0.7546771E-02  0.1308952E+00
         21   -1    0    0  504  502  0.00000000000E+00  0.00000000000E+00  0.11792461888E+04  0.11792461888E+04  0.00000000000E+00 0.  1.
          1   -1    0    0  505    0 -0.00000000000E+00 -0.00000000000E+00 -0.22514036124E+03  0.22514036124E+03  0.00000000000E+00 0. -1.
         21    1    1    2  503  501 -0.75623565996E+02  0.99606573785E+02  0.27866937812E+03  0.30544560166E+03  0.00000000000E+00 0.  1.
         21    1    1    2  504  503 -0.58971265039E+01 -0.68229340589E+02  0.86539367029E+03  0.86809920148E+03  0.00000000000E+00 0.  1.
         21    1    1    2  505  502  0.76711811903E+01 -0.31920888222E+02 -0.70364819064E+01  0.33575321344E+02  0.00000000000E+00 0.  1.
          1    1    1    2  501    0  0.73849511309E+02  0.54365502630E+00 -0.18292073899E+03  0.19726642551E+03  0.00000000000E+00 0. -1.
<scales pt_clust_3="87.52774" pt_clust_4="68.68941" pt_clust_5="32.82971" pt_clust_6="14000.00000"></scales>
<clustering>
<clus scale="   32.830">  2  5  1 -1</clus>
<clus scale="   68.689">  1  4  2 -1</clus>
<clus scale="   87.528">  1  3  2 -1</clus>
<clus scale="   68.689">  1  3  2 -1</clus>
</clustering>
</event>
<event>
 6    0  0.1849053E+002  0.1353258E+03  0.7546771E-02  0.1219761E+00
         21   -1    0    0  504  502  0.00000000000E+00  0.00000000000E+00  0.69551164652E+03  0.69551164652E+03  0.00000000000E+00 0. -1.
          2   -1    0    0  505    0 -0.00000000000E+00 -0.00000000000E+00 -0.23165156396E+04  0.23165156396E+04  0.00000000000E+00 0.  1.
         21    1    1    2  503  501 -0.90515449976E+02  0.56114681867E+02  0.15915393111E+03  0.19149902870E+03  0.00000000000E+00 0.  1.
         21    1    1    2  504  503  0.32639925584E+02  0.11137361825E+02  0.50431820539E+03  0.50549605128E+03  0.00000000000E+00 0. -1.
         21    1    1    2  505  502  0.58571089895E+02  0.78806307593E+02 -0.17626960473E+03  0.20177209976E+03  0.00000000000E+00 0.  1.
          2    1    1    2  501    0 -0.69556550297E+00 -0.14605835129E+03 -0.21082065249E+04  0.21132601064E+04  0.00000000000E+00 0.  1.
<scales pt_clust_3="89.79319" pt_clust_4="34.48776" pt_clust_5="135.32580" pt_clust_6="14000.00000"></scales>
<clustering>
<clus scale="   34.488">  1  4  2 -1</clus>
<clus scale="   89.793">  1  3  2 -1</clus>
<clus scale="  135.326">  1  5  2 -1</clus>
<clus scale="   34.488">  1  3  2 -1</clus>
</clustering>
</event>
<event>
 6    0  0.1849053E+002  0.1115441E+03  0.7546771E-02  0.1257737E+00
          1   -1    0    0  502    0 -0.00000000000E+00  0.00000000000E+00  0.92194760926E+03  0.92194760926E+03  0.00000000000E+00 0.  1.
         21   -1    0    0  503  502  0.00000000000E+00 -0.00000000000E+00 -0.11442040819E+04  0.11442040819E+04  0.00000000000E+00 0. -1.
         21    1    1    2  503  505 -0.19517284716E+02  0.39540800791E+02 -0.82331330776E+03  0.82449330019E+03  0.00000000000E+00 0. -1.
         21    1    1    2  504  501 -0.69705411814E+02  0.72457190163E+02 -0.75894774588E+01  0.10082900878E+03  0.00000000000E+00 0.  1.
         21    1    1    2  505  504  0.66256536221E+02 -0.10629321834E+01 -0.25822248385E+03  0.26658940261E+03  0.00000000000E+00 0. -1.
          1    1    1    2  501    0  0.22966160309E+02 -0.11093505877E+03  0.86686879640E+03  0.87423997961E+03  0.00000000000E+00 0.  1.
<scales pt_clust_3="44.09534" pt_clust_4="14000.00000" pt_clust_5="59.23170" pt_clust_6="111.54408"></scales>
<clustering>
<clus scale="   44.095">  2  3  1 -1</clus>
<clus scale="   59.232">  2  5  1 -1</clus>
<clus scale="  111.544">  1  6  2 -1</clus>
<clus scale="   44.095">  2  3  1 -1</clus>
</clustering>
</event>
<event>
 6    0  0.1849053E+002  0.9966074E+02  0.7546771E-02  0.1281011E+00
         21   -1    0    0  505  502  0.00000000000E+00  0.00000000000E+00  0.63617719364E+03  0.63617719364E+03  0.00000000000E+00 0. -1.
          4   -1    0    0  503    0 -0.00000000000E+00 -0.00000000000E+00 -0.61683836792E+03  0.61683836792E+03  0.00000000000E+00 0. -1.
         21    1    1    2  503  504 -0.41407160605E+02  0.73282416633E+02 -0.33260138176E+03  0.34308678885E+03  0.00000000000E+00 0. -1.
         21    1    1    2  504  502 -0.57530787807E+02 -0.91963303398E+01  0.27566710923E+03  0.28175648910E+03  0.00000000000E+00 0. -1.
         21    1    1    2  505  501 -0.18879581844E+02 -0.59712519641E+02  0.33660841109E+03  0.34238464631E+03  0.00000000000E+00 0. -1.
          4    1    1    2  501    0  0.11781753026E+03 -0.43735666524E+01 -0.26033531285E+03  0.28578763731E+03  0.00000000000E+00 0. -1.
<scales pt_clust_3="84.47309" pt_clust_4="58.26117" pt_clust_5="14000.00000" pt_clust_6="99.66074"></scales>
<clustering>
<clus scale="   58.261">  1  4  2 -1</clus>
<clus scale="   84.473">  2  3  1 -1</clus>
<clus scale="   99.661">  2  6  1 -1</clus>
<clus scale="   58.261">  1  3  2 -1</clus>
</clustering>
</event>
<event>
 6    0  0.1849053E+002  0.2579175E+03  0.7546771E-02  0.1108401E+00
         21   -1    0    0  501  502  0.00000000000E+00  0.00000000000E+00  0.61397062307E+02  0.61397062307E+02  0.00000000000E+00 0. -1.
          2   -1    0    0  504    0 -0.00000000000E+00 -0.00000000000E+00 -0.15186862206E+04  0.15186862206E+04  0.00000000000E+00 0. -1.
         21    1    1    2  503  505  0.83375654754E+02 -0.39699707304E+01 -0.13428988597E+03  0.15811715260E+03  0.00000000000E+00 0. -1.
         21    1    1    2  504  503  0.12914412543E+03 -0.62551103341E+02 -0.44527754531E+03  0.46782789358E+03  0.00000000000E+00 0. -1.
         21    1    1    2  505  502  0.15412414631E+02 -0.84662802376E+02 -0.11342135725E+03  0.14237182625E+03  0.00000000000E+00 0. -1.
          2    1    1    2  501    0 -0.22793219481E+03  0.15118387645E+03 -0.76430036975E+03  0.81176641045E+03  0.00000000000E+00 0. -1.
<scales pt_clust_3="60.62811" pt_clust_4="60.62811" pt_clust_5="86.05424" pt_clust_6="245.36166"></scales>
<clustering>
<clus scale="   60.628">  3  4 -1 -1</clus>
<clus scale="   86.054">  1  5  2 -1</clus>
<clus scale="  245.362">  1  6  2 -1</clus>
<clus scale="   86.054">  1  3  2 -1</clus>
</clustering>
</event>
<event>
 6    0  0.1849053E+002  0.1977873E+03  0.7546771E-02  0.1151619E+00
          1   -1    0    0  502    0 -0.00000000000E+00  0.00000000000E+00  0.13487275823E+04  0.13487275823E+04  0.00000000000E+00 0. -1.
         21   -1    0    0  505  502  0.00000000000E+00 -0.00000000000E+00 -0.15833963794E+03  0.15833963794E+03  0.00000000000E+00 0. -1.
         21    1    1    2  503  504 -0.73151108654E+02 -0.34101503281E+02 -0.83326690256E+00  0.80713639225E+02  0.00000000000E+00 0. -1.
         21    1    1    2  504  501  0.11446886225E+03  0.38599495417E+02  0.39777127652E+03  0.41571027158E+03  0.00000000000E+00 0.  1.
         21    1    1    2  505  503 -0.87321935883E+02 -0.86119337372E+02 -0.70610100248E+02  0.14151836281E+03  0.00000000000E+00 0. -1.
          1    1    1    2  501    0  0.46004182290E+02  0.81621345236E+02  0.86406003500E+03  0.86912494664E+03  0.00000000000E+00 0. -1.
<scales pt_clust_3="51.80544" pt_clust_4="187.19385" pt_clust_5="51.80544" pt_clust_6="93.69327"></scales>
<clustering>
<clus scale="   51.805">  3  5 -1 -1</clus>
<clus scale="   93.693">  1  6  2 -1</clus>
<clus scale="  187.194">  1  4  2 -1</clus>
<clus scale="  197.787">  2  3  1 -1</clus>
</clustering>
</event>
<event>
 6    0  0.1849053E+002  0.2017446E+03  0.7546771E-02  0.1148275E+00
          2   -1    0    0  502    0 -0.00000000000E+00  0.00000000000E+00  0.10191184017E+04  0.10191184017E+04  0.00000000000E+00 0.  1.
         21   -1    0    0  505  502  0.00000000000E+00 -0.00000000000E+00 -0.23137298178E+03  0.23137298178E+03  0.00000000000E+00 0.  1.
         21    1    1    2  503  504  0.23633385982E+02  0.25768658978E+03  0.29226355386E+03  0.39035740086E+03  0.00000000000E+00 0.  1.
         21    1    1    2  504  501 -0.43650259604E+02 -0.10588379797E+03  0.36120951562E+03  0.37893144236E+03  0.00000000000E+00 0.  1.
         21    1    1    2  505  503 -0.11058737015E+02 -0.91314219720E+02 -0.15707436272E+03  0.18202455277E+03  0.00000000000E+00 0.  1.
          2    1    1    2  501    0  0.31075610638E+02 -0.60488572098E+02  0.29134671312E+03  0.29917798745E+03  0.00000000000E+00 0.  1.
<scales pt_clust_3="185.83866" pt_clust_4="60.50254" pt_clust_5="91.98142" pt_clust_6="60.50254"></scales>
<clustering>
<clus scale="   60.503">  4  6 -1 -1</clus>
<clus scale="   91.981">  2  5  1 -1</clus>
<clus scale="  185.839">  2  3  1 -1</clus>
<clus scale="   91.981">  2  3  1 -1</clus>
</clustering>
</event>
<event>
 6    0  0.1849053E+002  0.1386550E+03  0.7546771E-02  0.1215150E+00
         21   -1    0    0  503  502  0.00000000000E+00  0.00000000000E+00  0.38639927775E+03  0.38639927775E+03  0.00000000000E+00 0.  1.
          2   -1    0    0  504    0 -0.00000000000E+00 -0.00000000000E+00 -0.11183357734E+04  0.11183357734E+04  0.00000000000E+00 0.  1.
         21    1    1    2  503  505  0.14239229009E+02  0.38002684891E+02  0.63966385231E+02  0.75753931523E+02  0.00000000000E+00 0. -1.
         21    1    1    2  504  502  0.92289997100E+02  0.35476841943E+02  0.30433175937E+03  0.31999042117E+03  0.00000000000E+00 0.  1.
         21    1    1    2  505  501 -0.28292429411E+02 -0.40144546182E+02 -0.27170889978E+03  0.27611188379E+03  0.00000000000E+00 0. -1.
          2    1    1    2  501    0 -0.78236796698E+02 -0.33334980652E+02 -0.82852574045E+03  0.83287881464E+03  0.00000000000E+00 0.  1.
<scales pt_clust_3="40.58275" pt_clust_4="128.95281" pt_clust_5="38.72250" pt_clust_6="38.72250"></scales>
<clustering>
<clus scale="   38.723">  5  6 -1 -1</clus>
<clus scale="   40.583">  1  3  2 -1</clus>
<clus scale="  128.953">  1  4  2 -1</clus>
<clus scale="   40.583">  1  3  2 -1</clus>
</clustering>
</event>
<event>
 6    0  0.1849053E+002  0.7114385E+02  0.7546771E-02  0.1356246E+00
          1   -1    0    0  503    0 -0.00000000000E+00  0.00000000000E+00  0.15341284740E+04  0.15341284740E+04  0.00000000000E+00 0. -1.
         21   -1    0    0  505  502  0.00000000000E+00 -0.00000000000E+00 -0.76062181333E+02  0.76062181333E+02  0.00000000000E+00 0. -1.
         21    1    1    2  503  504 -0.10948302829E+03 -0.36685706406E+02  0.11455864208E+04  0.11513907339E+04  0.00000000000E+00 0. -1.
         21    1    1    2  504  502  0.43391036806E+02 -0.23791765006E+02 -0.32117907281E+02  0.58994831344E+02  0.00000000000E+00 0. -1.
         21    1    1    2  505  501  0.26325532947E+02  0.45135844423E+02 -0.33068047424E+00  0.52253109824E+02  0.00000000000E+00 0. -1.
          1    1    1    2  501    0  0.39766458542E+02  0.15341626989E+02  0.34492845964E+03  0.34755198030E+03  0.00000000000E+00 0. -1.
<scales pt_clust_3="71.14385" pt_clust_4="49.79804" pt_clust_5="14000.00000" pt_clust_6="42.62319"></scales>
<clustering>
<clus scale="   42.623">  1  6  2 -1</clus>
<clus scale="   49.798">  2  4  1 -1</clus>
<clus scale="   71.144">  1  3  2 -1</clus>
<clus scale="   49.798">  2  3  1 -1</clus>
</clustering>
</event>
<event>
 6    0  0.1849053E+002  0.1101522E+03  0.7546771E-02  0.1260288E+00
         21   -1    0    0  505  502  0.00000000000E+00  0.00000000000E+00  0.60583664447E+03  0.60583664447E+03  0.00000000000E+00 0. -1.
          1   -1    0    0  503    0 -0.00000000000E+00 -0.00000000000E+00 -0.77324009486E+02  0.77324009486E+02  0.00000000000E+00 0.  1.
         21    1    1    2  503  504  0.43524473032E+02  0.28324591141E+02  0.15369313453E+03  0.16222897958E+03  0.00000000000E+00 0. -1.
         21    1    1    2  504  502  0.96528575536E+02 -0.13585126537E+02  0.27913436549E+03  0.29566588500E+03  0.00000000000E+00 0. -1.
         21    1    1    2  505  501 -0.46349202864E+02 -0.15351841716E+01  0.11907634759E+03  0.12778803525E+03  0.00000000000E+00 0.  1.
          1    1    1    2  501    0 -0.93703845704E+02 -0.13204280432E+02 -0.23391212620E+02  0.97477754125E+02  0.00000000000E+00 0.  1.
<scales pt_clust_3="36.46427" pt_clust_4="36.46427" pt_clust_5="46.37462" pt_clust_6="98.17108"></scales>
<clustering>
<clus scale="   36.464">  3  4 -1 -1</clus>
<clus scale="   46.375">  1  5  2 -1</clus>
<clus scale="   98.171">  2  6  1 -1</clus>
<clus scale="   46.375">  1  3  2 -1</clus>
</clustering>
</event>
<event>
 6    0  0.1849053E+002  0.1597866E+03  0.7546771E-02  0.1188938E+00
         21   -1    0    0  505  502  0.00000000000E+00  0.00000000000E+00  0.24447173509E+02  0.24447173509E+02  0.00000000000E+00 0.  1.
          3   -1    0    0  502    0 -0.00000000000E+00 -0.00000000000E+00 -0.22132155948E+04  0.22132155948E+04  0.00000000000E+00 0. -1.
         21    1    1    2  503  501  0.18112468998E+02 -0.37417443984E+02 -0.27737934829E+03  0.28047714614E+03  0.00000000000E+00 0.  1.
         21    1    1    2  504  503 -0.34386751331E+02  0.93111515978E+02 -0.24039761148E+03  0.26008309188E+03  0.00000000000E+00 0.  1.
         21    1    1    2  505  504 -0.96675449530E+01  0.47196911476E+02 -0.39874888835E+02  0.62538121477E+02  0.00000000000E+00 0.  1.
          3    1    1    2  501    0  0.25941827286E+02 -0.10289098347E+03 -0.16311165726E+04  0.16345644088E+04  0.00000000000E+00 0. -1.
<scales pt_clust_3="36.49796" pt_clust_4="43.53321" pt_clust_5="43.53321" pt_clust_6="158.20075"></scales>
<clustering>
<clus scale="   36.498">  3  6 -1 -1</clus>
<clus scale="   43.533">  4  5 -1 -1</clus>
<clus scale="  158.201">  2  3  1 -1</clus>
<clus scale="  159.787">  1  3  2 -1</clus>
</clustering>
</event>
<event>
 6    0  0.1849053E+002  0.1346033E+03  0.7546771E-02  0.1220781E+00
         21   -1    0    0  503  502  0.00000000000E+00  0.00000000000E+00  0.21469572557E+03  0.21469572557E+03  0.00000000000E+00 0.  1.
          2   -1    0    0  504    0 -0.00000000000E+00 -0.00000000000E+00 -0.13478243339E+04  0.13478243339E+04  0.00000000000E+00 0.  1.
         21    1    1    2  503  505  0.25993610051E+02  0.24246475514E+02  0.89184971024E+02  0.96007907981E+02  0.00000000000E+00 0.  1.
         21    1    1    2  504  502 -0.10908511348E+02 -0.43060900997E+02 -0.31547160447E+03  0.31858369394E+03  0.00000000000E+00 0.  1.
         21    1    1    2  505  501 -0.15827584837E+03 -0.29588682428E+02  0.58130657646E+02  0.17118968329E+03  0.00000000000E+00 0.  1.
          2    1    1    2  501    0  0.14319074967E+03  0.48403107911E+02 -0.96497263256E+03  0.97673877431E+03  0.00000000000E+00 0.  1.
<scales pt_clust_3="35.54658" pt_clust_4="44.04093" pt_clust_5="134.60330" pt_clust_6="14000.00000"></scales>
<clustering>
<clus scale="   35.547">  1  3  2 -1</clus>
<clus scale="   44.041">  2  4  1 -1</clus>
<clus scale="  134.603">  1  5  2 -1</clus>
<clus scale="   35.547">  1  3  2 -1</clus>
</clustering>
</event>
<event>
 6    0  0.1849053E+002  0.1697198E+03  0.7546771E-02  0.1178140E+00
         21   -1    0    0  504  502  0.00000000000E+00  0.00000000000E+00  0.94810066268E+02  0.94810066268E+02  0.00000000000E+00 0. -1.
          2   -1    0    0  503    0 -0.00000000000E+00 -0.00000000000E+00 -0.13651317742E+04  0.13651317742E+04  0.00000000000E+00 0. -1.
         21    1    1    2  503  502 -0.86730279591E+02  0.61320341840E+02 -0.49780802973E+03  0.50901390962E+03  0.00000000000E+00 0. -1.
         21    1    1    2  504  505  0.86208226869E+02 -0.61192218284E+02  0.20251914023E+02  0.10764054060E+03  0.00000000000E+00 0. -1.
         21    1    1    2  505  501  0.66590567812E+02 -0.92055072167E+01 -0.23614983687E+02  0.71251052899E+02  0.00000000000E+00 0. -1.
          2    1    1    2  501    0 -0.66068515090E+02  0.90773836600E+01 -0.76915060849E+03  0.77203633730E+03  0.00000000000E+00 0. -1.
<scales pt_clust_3="158.48419" pt_clust_4="48.42364" pt_clust_5="48.42364" pt_clust_6="66.68919"></scales>
<clustering>
<clus scale="   48.424">  4  5 -1 -1</clus>
<clus scale="   66.689">  2  6  1 -1</clus>
<clus scale="  158.484">  2  3  1 -1</clus>
<clus scale="  169.720">  1  3  2 -1</clus>
</clustering>
</event>
<event>
 6    0  0.1849053E+002  0.6915474E+02  0.7546771E-02  0.1362991E+00
          2   -1    0    0  504    0 -0.00000000000E+00  0.00000000000E+00  0.14112710176E+04  0.14112710176E+04  0.00000000000E+00 0. -1.
         21   -1    0    0  503  502  0.00000000000E+00 -0.00000000000E+00 -0.24612362776E+02  0.24612362776E+02  0.00000000000E+00 0. -1.
         21    1    1    2  503  501  0.21694474619E+02 -0.53223033474E+02  0.12682802882E+03  0.13924327781E+03  0.00000000000E+00 0. -1.
         21    1    1    2  504  505  0.94766145382E+01  0.51195060910E+02  0.72298347127E+03  0.72485573752E+03  0.00000000000E+00 0. -1.
         21    1    1    2  505  502 -0.89991067396E+02  0.28610608409E+02  0.13477422474E+03  0.16456321211E+03  0.00000000000E+00 0. -1.
          2    1    1    2  501    0  0.58819978239E+02 -0.26582635844E+02  0.40207293003E+03  0.40722115297E+03  0.00000000000E+00 0. -1.
<scales pt_clust_3="49.29227" pt_clust_4="52.06477" pt_clust_5="69.15474" pt_clust_6="14000.00000"></scales>
<clustering>
<clus scale="   52.065">  1  4  2 -1</clus>
<clus scale="   49.292">  2  3  1 -1</clus>
<clus scale="   69.155">  2  5  1 -1</clus>
<clus scale="   49.292">  2  3  1 -1</clus>
</clustering>
</event>
<event>
 6    0  0.1849053E+002  0.3674009E+03  0.7546771E-02  0.1055691E+00
         21   -1    0    0  501  502  0.00000000000E+00  0.00000000000E+00  0.70301241135E+03  0.70301241135E+03  0.00000000000E+00 0. -1.
          2   -1    0    0  504    0 -0.00000000000E+00 -0.00000000000E+00 -0.17931975238E+03  0.17931975238E+03  0.00000000000E+00 0. -1.
         21    1    1    2  503  505  0.91794584051E+02 -0.19147140654E+03  0.17745019314E+03  0.27672389891E+03  0.00000000000E+00 0. -1.
         21    1    1    2  504  503 -0.12284690107E+02 -0.46897698243E+02  0.25502793818E+02  0.54778647337E+02  0.00000000000E+00 0.  1.
         21    1    1    2  505  502  0.83978448622E+02 -0.62830169917E+02  0.67825468456E+02  0.12490117796E+03  0.00000000000E+00 0. -1.
          2    1    1    2  501    0 -0.16348834257E+03  0.30119927470E+03  0.25291420355E+03  0.42592843952E+03  0.00000000000E+00 0. -1.
<scales pt_clust_3="63.60802" pt_clust_4="35.63666" pt_clust_5="63.60802" pt_clust_6="342.70897"></scales>
<clustering>
<clus scale="   35.637">  3  4 -1 -1</clus>
<clus scale="   63.608">  3  5 -1 -1</clus>
<clus scale="  342.709">  1  6  2 -1</clus>
<clus scale="  342.709">  1  3  2 -1</clus>
</clustering>
</event>
<event>
 6    0  0.1849053E+002  0.9954135E+02  0.7546771E-02  0.1281263E+00
         -1   -1    0    0    0  501 -0.00000000000E+00  0.00000000000E+00  0.26729613228E+03  0.26729613228E+03  0.00000000000E+00 0. -1.
         21   -1    0    0  505  502  0.00000000000E+00 -0.00000000000E+00 -0.22537106019E+03  0.22537106019E+03  0.00000000000E+00 0.  1.
         21    1    1    2  503  502 -0.86334033350E+02 -0.26637596211E+01 -0.16809169425E+03  0.18898539257E+03  0.00000000000E+00 0.  1.
         21    1    1    2  504  503  0.31791452766E+02 -0.29804535190E+02  0.10126901927E+03  0.11024709090E+03  0.00000000000E+00 0. -1.
         21    1    1    2  505  501 -0.26313212778E+02  0.60013324914E+02  0.16218040202E+02  0.67505623187E+02  0.00000000000E+00 0.  1.
         -1    1    1    2    0  504  0.80855793361E+02 -0.27545030103E+02  0.92529706860E+02  0.12592908582E+03  0.00000000000E+00 0. -1.
<scales pt_clust_3="87.55349" pt_clust_4="33.82644" pt_clust_5="65.52850" pt_clust_6="33.82644"></scales>
<clustering>
<clus scale="   33.826">  4  6 -1 -1</clus>
<clus scale="   65.529">  1  5  2 -1</clus>
<clus scale="   87.553">  2  3  1 -1</clus>
<clus scale="   87.553">  2  3  1 -1</clus>
</clustering>
</event>
<event>
 6    0  0.1849053E+002  0.1406994E+03  0.7546771E-02  0.1212391E+00
         21   -1    0    0  503  502  0.00000000000E+00  0.00000000000E+00  0.69917535171E+02  0.69917535171E+02  0.00000000000E+00 0.  1.
          2   -1    0    0  505    0 -0.00000000000E+00 -0.00000000000E+00 -0.10077535657E+04  0.10077535657E+04  0.00000000000E+00 0.  1.
         21    1    1    2  503  501 -0.37309198473E+02  0.17550634832E+02 -0.67535550745E+02  0.79126807645E+02  0.00000000000E+00 0. -1.
         21    1    1    2  504  502 -0.57290968853E+02  0.11351405286E+03 -0.22488589713E+02  0.12912564415E+03  0.00000000000E+00 0.  1.
         21    1    1    2  505  504  0.66588380998E+02 -0.45059267092E+02 -0.20380887181E+03  0.21909451446E+03  0.00000000000E+00 0. -1.
          2    1    1    2  501    0  0.28011786328E+02 -0.86005420602E+02 -0.64400301828E+03  0.65032413464E+03  0.00000000000E+00 0.  1.
<scales pt_clust_3="41.23107" pt_clust_4="140.69941" pt_clust_5="75.54966" pt_clust_6="14000.00000"></scales>
<clustering>
<clus scale="   41.231">  1  3  2 -1</clus>
<clus scale="   75.550">  2  5  1 -1</clus>
<clus scale="  140.699">  1  4  2 -1</clus>
<clus scale="   41.231">  1  3  2 -1</clus>
</clustering>
</event>
<event>
 6    0  0.1849053E+002  0.1626721E+03  0.7546771E-02  0.1185713E+00
          2   -1    0    0  503    0 -0.00000000000E+00  0.00000000000E+00  0.12062023101E+04  0.12062023101E+04  0.00000000000E+00 0.  1.
         21   -1    0    0  504  502  0.00000000000E+00 -0.00000000000E+00 -0.15630959875E+03  0.15630959875E+03  0.00000000000E+00 0.  1.
         21    1    1    2  503  505 -0.87265843106E+01 -0.38814638197E+02  0.55375791853E+02  0.68185099072E+02  0.00000000000E+00 0.  1.
         21    1    1    2  504  501 -0.41965618587E+02  0.23696784037E+02  0.17515313564E+03  0.18166252129E+03  0.00000000000E+00 0.  1.
         21    1    1    2  505  502  0.14717786516E+03 -0.72465808142E+01 -0.10631305771E+03  0.18170388869E+03  0.00000000000E+00 0.  1.
          2    1    1    2  501    0 -0.96485662257E+02  0.22364434974E+02  0.92567684160E+03  0.93096039983E+03  0.00000000000E+00 0.  1.
<scales pt_clust_3="39.78353" pt_clust_4="46.53604" pt_clust_5="147.13760" pt_clust_6="46.53604"></scales>
<clustering>
<clus scale="   39.784">  1  3  2 -1</clus>
<clus scale="   46.536">  4  6 -1 -1</clus>
<clus scale="  147.138">  2  5  1 -1</clus>
<clus scale="  147.138">  2  3  1 -1</clus>
</clustering>
</event>
<event>
 6    0  0.1849053E+002  0.8897701E+02  0.7546771E-02  0.1305348E+00
         21   -1    0    0  504  502  0.00000000000E+00  0.00000000000E+00  0.73356628253E+03  0.73356628253E+03  0.00000000000E+00 0.  1.
          1   -1    0    0  505    0 -0.00000000000E+00 -0.00000000000E+00 -0.19022531571E+03  0.19022531571E+03  0.00000000000E+00 0. -1.
         21    1    1    2  503  502  0.57787738086E+02  0.34432002699E+01  0.25441561108E+03  0.26091872578E+03  0.00000000000E+00 0.  1.
         21    1    1    2  504  501 -0.50870329132E+02 -0.17529485866E+02  0.63394819454E+02  0.83150324079E+02  0.00000000000E+00 0.  1.
         21    1    1    2  505  503 -0.79082222775E+02  0.65457502856E+02  0.38437517993E+03  0.39784791263E+03  0.00000000000E+00 0.  1.
          1    1    1    2  501    0  0.72164813821E+02 -0.51371217260E+02 -0.15884464364E+03  0.18187463576E+03  0.00000000000E+00 0. -1.
<scales pt_clust_3="38.08837" pt_clust_4="53.80589" pt_clust_5="14000.00000" pt_clust_6="88.97701"></scales>
<clustering>
<clus scale="   53.806">  1  4  2 -1</clus>
<clus scale="   38.088">  1  3  2 -1</clus>
<clus scale="   88.977">  2  6  1 -1</clus>
<clus scale="   53.806">  1  3  2 -1</clus>
</clustering>
</event>
<event>
 6    0  0.1849053E+002  0.3037388E+03  0.7546771E-02  0.1083386E+00
         21   -1    0    0  505  502  0.00000000000E+00  0.00000000000E+00  0.64220648651E+03  0.64220648651E+03  0.00000000000E+00 0.  1.
          2   -1    0    0  503    0 -0.00000000000E+00 -0.00000000000E+00 -0.76039447511E+03  0.76039447511E+03  0.00000000000E+00 0. -1.
         21    1    1    2  503  504  0.94201541223E+02 -0.18834486993E+02 -0.51184452389E+02  0.10885089083E+03  0.00000000000E+00 0.  1.
         21    1    1    2  504  502 -0.28353902712E+03  0.20582771801E+03  0.47428128550E+03  0.58966275715E+03  0.00000000000E+00 0.  1.
         21    1    1    2  505  501  0.25137005252E+02 -0.39224192376E+02  0.52709532171E+02  0.70347004786E+02  0.00000000000E+00 0. -1.
          2    1    1    2  501    0  0.16420048064E+03 -0.14776903864E+03 -0.59399435387E+03  0.63374030885E+03  0.00000000000E+00 0. -1.
<scales pt_clust_3="97.68594" pt_clust_4="14000.00000" pt_clust_5="46.58762" pt_clust_6="303.73878"></scales>
<clustering>
<clus scale="   46.588">  1  5  2 -1</clus>
<clus scale="   97.686">  2  3  1 -1</clus>
<clus scale="  303.739">  2  6  1 -1</clus>
<clus scale="   46.588">  1  3  2 -1</clus>
</clustering>
</event>
<event>
 6    0  0.1849053E+002  0.1501864E+03  0.7546771E-02  0.1200244E+00
         21   -1    0    0  503  502  0.00000000000E+00  0.00000000000E+00  0.18218763311E+03  0.18218763311E+03  0.00000000000E+00 0.  1.
         -2   -1    0    0    0  501 -0.00000000000E+00 -0.00000000000E+00 -0.42296059903E+03  0.42296059903E+03  0.00000000000E+00 0.  1.
         21    1    1    2  503  505 -0.31512643520E+02 -0.52091468389E+02  0.56682067776E+02  0.83183078736E+02  0.00000000000E+00 0.  1.
         21    1    1    2  504  502  0.67773606861E+02  0.50479204939E+02 -0.67914186102E+02  0.10841470653E+03  0.00000000000E+00 0.  1.
         21    1    1    2  505  501  0.49864978996E+02 -0.12794952420E+03 -0.12991073734E+01  0.13732911036E+03  0.00000000000E+00 0.  1.
         -2    1    1    2    0  504 -0.86125942337E+02  0.12956178765E+03 -0.22824174022E+03  0.27622133651E+03  0.00000000000E+00 0.  1.
<scales pt_clust_3="60.88159" pt_clust_4="74.44980" pt_clust_5="14000.00000" pt_clust_6="150.18640"></scales>
<clustering>
<clus scale="   60.882">  1  3  2 -1</clus>
<clus scale="   74.450">  1  4  2 -1</clus>
<clus scale="  150.186">  2  6  1 -1</clus>
<clus scale="   60.882">  1  3  2 -1</clus>
</clustering>
</event>
<event>
 6    0  0.1849053E+002  0.8059063E+02  0.7546771E-02  0.1327384E+00
          2   -1    0    0  505    0 -0.00000000000E+00  0.00000000000E+00  0.44433555683E+03  0.44433555683E+03  0.00000000000E+00 0.  1.
         21   -1    0    0  504  502  0.00000000000E+00 -0.00000000000E+00 -0.23651493001E+04  0.23651493001E+04  0.00000000000E+00 0.  1.
         21    1    1    2  503  502  0.34811081253E+02  0.32359242924E+02 -0.58757553462E+02  0.75573686357E+02  0.00000000000E+00 0. -1.
         21    1    1    2  504  501 -0.63351881453E+02 -0.10728118180E+03 -0.22605655168E+04  0.22639962828E+04  0.00000000000E+00 0.  1.
         21    1    1    2  505  503 -0.69302512447E+02  0.38252233769E+02  0.26448433852E+02  0.83460117858E+02  0.00000000000E+00 0. -1.
          2    1    1    2  501    0  0.97843312646E+02  0.36669705106E+02  0.37206089305E+03  0.38645476998E+03  0.00000000000E+00 0.  1.
<scales pt_clust_3="47.52822" pt_clust_4="80.59063" pt_clust_5="78.97643" pt_clust_6="14000.00000"></scales>
<clustering>
<clus scale="   47.528">  2  3  1 -1</clus>
<clus scale="   78.976">  1  5  2 -1</clus>
<clus scale="   80.591">  2  4  1 -1</clus>
<clus scale="   47.528">  2  3  1 -1</clus>
</clustering>
</event>
<event>
 6    0  0.1849053E+002  0.1066388E+03  0.7546771E-02  0.1266924E+00
          2   -1    0    0  505    0 -0.00000000000E+00  0.00000000000E+00  0.42971970359E+03  0.42971970359E+03  0.00000000000E+00 0.  1.
         21   -1    0    0  504  502  0.00000000000E+00 -0.00000000000E+00 -0.10358673275E+04  0.10358673275E+04  0.00000000000E+00 0.  1.
         21    1    1    2  503  501  0.75748803580E+02 -0.77098129830E+02  0.27578142875E+03  0.29620499542E+03  0.00000000000E+00 0. -1.
         21    1    1    2  504  503 -0.62473118416E+02 -0.50275451890E+01 -0.93328576729E+03  0.93538788220E+03  0.00000000000E+00 0.  1.
         21    1    1    2  505  502 -0.38866724521E+02  0.41925637511E+02 -0.77673810456E+02  0.96444814202E+02  0.00000000000E+00 0.  1.
          2    1    1    2  501    0  0.25591039357E+02  0.40200037507E+02  0.12903052512E+03  0.13754933924E+03  0.00000000000E+00 0.  1.
<scales pt_clust_3="14000.00000" pt_clust_4="106.63875" pt_clust_5="57.57083" pt_clust_6="47.65443"></scales>
<clustering>
<clus scale="   47.654">  1  6  2 -1</clus>
<clus scale="   57.571">  2  5  1 -1</clus>
<clus scale="  106.639">  2  4  1 -1</clus>
<clus scale="   57.571">  2  3  1 -1</clus>
</clustering>
</event>
<event>
 6    0  0.1849053E+002  0.1424204E+03  0.7546771E-02  0.1210109E+00
          1   -1    0    0  503    0 -0.00000000000E+00  0.00000000000E+00  0.19922890132E+04  0.19922890132E+04  0.00000000000E+00 0. -1.
         21   -1    0    0  505  502  0.00000000000E+00 -0.00000000000E+00 -0.23022359912E+03  0.23022359912E+03  0.00000000000E+00 0.  1.
         21    1    1    2  503  504  0.30641354218E+02 -0.65043684267E+00  0.12610565176E+03  0.12977654281E+03  0.00000000000E+00 0.  1.
         21    1    1    2  504  502  0.29806647322E+02 -0.21417112407E+02 -0.19659280574E+02  0.41636717463E+02  0.00000000000E+00 0. -1.
         21    1    1    2  505  501 -0.16951966624E+03 -0.71026193709E+01 -0.15926465755E+03  0.23270710257E+03  0.00000000000E+00 0.  1.
          1    1    1    2  501    0  0.10907166470E+03  0.29170168621E+02  0.18148837005E+04  0.18183922495E+04  0.00000000000E+00 0. -1.
<scales pt_clust_3="30.64826" pt_clust_4="36.85230" pt_clust_5="142.42039" pt_clust_6="14000.00000"></scales>
<clustering>
<clus scale="   30.648">  1  3  2 -1</clus>
<clus scale="   36.852">  2  4  1 -1</clus>
<clus scale="  142.420">  2  5  1 -1</clus>
<clus scale="   36.852">  2  3  1 -1</clus>
</clustering>
</event>
<event>
 6    0  0.1849053E+002  0.7148568E+02  0.7546771E-02  0.1355113E+00
         21   -1    0    0  505  502  0.00000000000E+00  0.00000000000E+00  0.17586866622E+03  0.17586866622E+03  0.00000000000E+00 0.  1.
          1   -1    0    0  503    0 -0.00000000000E+00 -0.00000000000E+00 -0.88187598535E+03  0.88187598535E+03  0.00000000000E+00 0.  1.
         21    1    1    2  503  504 -0.34956412891E+01  0.49950472597E+02 -0.26462300710E+03  0.26931877971E+03  0.00000000000E+00 0.  1.
         21    1    1    2  504  502  0.44173380306E+02 -0.34092033519E+02 -0.86049127599E+00  0.55805866379E+02  0.00000000000E+00 0.  1.
         21    1    1    2  505  501 -0.95894967235E+02 -0.18038611020E+02  0.12826011000E+03  0.16115797233E+03  0.00000000000E+00 0.  1.
          1    1    1    2  501    0  0.55217228218E+02  0.21801719422E+01 -0.56878393075E+03  0.57146203314E+03  0.00000000000E+00 0.  1.
<scales pt_clust_3="50.07264" pt_clust_4="54.29287" pt_clust_5="71.48568" pt_clust_6="14000.00000"></scales>
<clustering>
<clus scale="   50.073">  2  3  1 -1</clus>
<clus scale="   54.293">  1  4  2 -1</clus>
<clus scale="   71.486">  1  5  2 -1</clus>
<clus scale="   54.293">  1  3  2 -1</clus>
</clustering>
</event>
<event>
 6    0  0.1849053E+002  0.1265868E+03  0.7546771E-02  0.1232610E+00
         21   -1    0    0  504  502  0.00000000000E+00  0.00000000000E+00  0.23213625458E+03  0.23213625458E+03  0.00000000000E+00 0. -1.
         -1   -1    0    0    0  501 -0.00000000000E+00 -0.00000000000E+00 -0.69038804339E+03  0.69038804339E+03  0.00000000000E+00 0. -1.
         21    1    1    2  503  501 -0.64010797263E+02 -0.18436740855E+03 -0.25800970917E+02  0.19686140709E+03  0.00000000000E+00 0. -1.
         21    1    1    2  504  503  0.12705163570E+02  0.41884015116E+02  0.11179974955E+03  0.12006196693E+03  0.00000000000E+00 0. -1.
         21    1    1    2  505  502  0.25322960149E+02  0.23870765295E+02  0.11568699628E+02  0.36672885863E+02  0.00000000000E+00 0. -1.
         -1    1    1    2    0  505  0.25982673545E+02  0.11861262814E+03 -0.55581926707E+03  0.56892803809E+03  0.00000000000E+00 0. -1.
<scales pt_clust_3="126.58683" pt_clust_4="61.35867" pt_clust_5="34.80037" pt_clust_6="14000.00000"></scales>
<clustering>
<clus scale="   34.800">  1  5  2 -1</clus>
<clus scale="   61.359">  1  4  2 -1</clus>
<clus scale="  126.587">  1  3  2 -1</clus>
<clus scale="   34.800">  1  3  2 -1</clus>
</clustering>
</event>
<event>
 6    0  0.1849053E+002  0.9367374E+02  0.7546771E-02  0.1294191E+00
          1   -1    0    0  505    0 -0.00000000000E+00  0.00000000000E+00  0.64164746892E+03  0.64164746892E+03  0.00000000000E+00 0.  1.
         21   -1    0    0  503  502  0.00000000000E+00 -0.00000000000E+00 -0.97367367625E+03  0.97367367625E+03  0.00000000000E+00 0.  1.
         21    1    1    2  503  501  0.17666830612E+02  0.29131218514E+02 -0.88592382886E+02  0.94917622712E+02  0.00000000000E+00 0.  1.
         21    1    1    2  504  502 -0.28634319957E+02 -0.12232427081E+03 -0.87106465460E+03  0.88007771475E+03  0.00000000000E+00 0.  1.
         21    1    1    2  505  504  0.90656485173E+01  0.35830064335E+02  0.64981943486E+02  0.74757156664E+02  0.00000000000E+00 0.  1.
          1    1    1    2  501    0  0.19018408276E+01  0.57362987964E+02  0.56264888666E+03  0.56556865104E+03  0.00000000000E+00 0.  1.
<scales pt_clust_3="34.06970" pt_clust_4="14000.00000" pt_clust_5="37.13973" pt_clust_6="93.67374"></scales>
<clustering>
<clus scale="   34.070">  2  3  1 -1</clus>
<clus scale="   37.140">  1  5  2 -1</clus>
<clus scale="   93.674">  1  6  2 -1</clus>
<clus scale="   34.070">  2  3  1 -1</clus>
</clustering>
</event>
<event>
 6    0  0.1849053E+002  0.1058641E+03  0.7546771E-02  0.1268426E+00
         21   -1    0    0  504  502  0.00000000000E+00  0.00000000000E+00  0.23933927179E+03  0.23933927179E+03  0.00000000000E+00 0. -1.
          2   -1    0    0  505    0 -0.00000000000E+00 -0.00000000000E+00 -0.33625751028E+03  0.33625751028E+03  0.00000000000E+00 0. -1.
         21    1    1    2  503  502  0.80150502059E+02 -0.41215288316E+02  0.14595369364E+03  0.17153799479E+03  0.00000000000E+00 0. -1.
         21    1    1    2  504  501 -0.36741016538E+02  0.29344780543E+02  0.28141548587E+02  0.54799317497E+02  0.00000000000E+00 0. -1.
         21    1    1    2  505  503  0.83815370180E+02 -0.25626440565E+02 -0.10536531683E+03  0.13705320399E+03  0.00000000000E+00 0. -1.
          2    1    1    2  501    0 -0.12722485570E+03  0.37496948338E+02 -0.16564816388E+03  0.21220626579E+03  0.00000000000E+00 0. -1.
<scales pt_clust_3="53.66725" pt_clust_4="47.02147" pt_clust_5="105.86410" pt_clust_6="14000.00000"></scales>
<clustering>
<clus scale="   47.021">  1  4  2 -1</clus>
<clus scale="   53.667">  1  3  2 -1</clus>
<clus scale="  105.864">  2  5  1 -1</clus>
<clus scale="   47.021">  1  3  2 -1</clus>
</clustering>
</event>
<event>
 6    0  0.1849053E+002  0.1037288E+03  0.7546771E-02  0.1272645E+00
          3   -1    0    0  503    0 -0.00000000000E+00  0.00000000000E+00  0.16841829058E+04  0.16841829058E+04  0.00000000000E+00 0.  1.
         21   -1    0    0  504  502  0.00000000000E+00 -0.00000000000E+00 -0.40703330337E+03  0.40703330337E+03  0.00000000000E+00 0. -1.
         21    1    1    2  503  505 -0.44336682248E+02  0.52270584283E+02  0.22385812109E+03  0.23411623983E+03  0.00000000000E+00 0. -1.
         21    1    1    2  504  501  0.44865543175E+02 -0.10220107383E+03 -0.35895715101E+03  0.37590984653E+03  0.00000000000E+00 0. -1.
         21    1    1    2  505  502 -0.76800086513E+02  0.26514596469E+02  0.16180159417E+02  0.82843676120E+02  0.00000000000E+00 0. -1.
          3    1    1    2  501    0  0.76271225587E+02  0.23415893080E+02  0.13960684730E+04  0.13983464467E+04  0.00000000000E+00 0.  1.
<scales pt_clust_3="68.54163" pt_clust_4="103.72875" pt_clust_5="14000.00000" pt_clust_6="80.95221"></scales>
<clustering>
<clus scale="   68.542">  1  3  2 -1</clus>
<clus scale="   80.952">  1  6  2 -1</clus>
<clus scale="  103.729">  2  4  1 -1</clus>
<clus scale="  103.729">  2  3  1 -1</clus>
</clustering>
</event>
<event>
 6    0  0.1849053E+002  0.1889767E+03  0.7546771E-02  0.1159388E+00
         21   -1    0    0  505  502  0.00000000000E+00  0.00000000000E+00  0.81861359264E+02  0.81861359264E+02  0.00000000000E+00 0.  1.
         -2   -1    0    0    0  501 -0.00000000000E+00 -0.00000000000E+00 -0.95611341101E+03  0.95611341101E+03  0.00000000000E+00 0.  1.
         21    1    1    2  503  502  0.49490977083E+02 -0.58885610925E+02 -0.33437364694E+02  0.83874485658E+02  0.00000000000E+00 0.  1.
         21    1    1    2  504  503  0.10923553389E+03  0.73374908442E+02 -0.36735736635E+03  0.39021495828E+03  0.00000000000E+00 0.  1.
         21    1    1    2  505  501 -0.19341315367E+03 -0.35941848625E+02 -0.17698469148E+03  0.26462056895E+03  0.00000000000E+00 0.  1.
         -2    1    1    2    0  504  0.34686642697E+02  0.21452551109E+02 -0.29647262923E+03  0.29926475738E+03  0.00000000000E+00 0.  1.
<scales pt_clust_3="76.92121" pt_clust_4="39.39009" pt_clust_5="175.23133" pt_clust_6="39.39009"></scales>
<clustering>
<clus scale="   39.390">  4  6 -1 -1</clus>
<clus scale="   76.921">  1  3  2 -1</clus>
<clus scale="  175.231">  1  5  2 -1</clus>
<clus scale="   76.921">  1  3  2 -1</clus>
</clustering>
</event>
<event>
 6    0  0.1849053E+002  0.1697851E+03  0.7546771E-02  0.1178072E+00
         21   -1    0    0  505  502  0.00000000000E+00  0.00000000000E+00  0.20524113471E+03  0.20524113471E+03  0.00000000000E+00 0.  1.
          2   -1    0    0  504    0 -0.00000000000E+00 -0.00000000000E+00 -0.19062436921E+04  0.19062436921E+04  0.00000000000E+00 0. -1.
         21    1    1    2  503  501  0.26652232016E+02 -0.13902749180E+03 -0.15016552232E+04  0.15083127641E+04  0.00000000000E+00 0. -1.
         21    1    1    2  504  502  0.30780075347E+02  0.41466260743E+02 -0.54083258912E+02  0.74778758434E+02  0.00000000000E+00 0.  1.
         21    1    1    2  505  503 -0.98418771561E+02  0.11741914506E+03  0.15896213021E+03  0.22077696679E+03  0.00000000000E+00 0.  1.
          2    1    1    2  501    0  0.40986464197E+02 -0.19857914010E+02 -0.30422620547E+03  0.30761633749E+03  0.00000000000E+00 0. -1.
<scales pt_clust_3="169.78513" pt_clust_4="52.01448" pt_clust_5="14000.00000" pt_clust_6="45.54368"></scales>
<clustering>
<clus scale="   45.544">  2  6  1 -1</clus>
<clus scale="   52.014">  1  4  2 -1</clus>
<clus scale="  169.785">  2  3  1 -1</clus>
<clus scale="   52.014">  1  3  2 -1</clus>
</clustering>
</event>
<event>
 6    0  0.1849053E+002  0.1463247E+03  0.7546771E-02  0.1205063E+00
         21   -1    0    0  501  502  0.00000000000E+00  0.00000000000E+00  0.49844069733E+02  0.49844069733E+02  0.00000000000E+00 0. -1.
          2   -1    0    0  505    0 -0.00000000000E+00 -0.00000000000E+00 -0.30269276914E+04  0.30269276914E+04  0.00000000000E+00 0.  1.
         21    1    1    2  503  502  0.27703178874E+01  0.92439234276E+02 -0.17774629514E+02  0.94173372824E+02  0.00000000000E+00 0. -1.
         21    1    1    2  504  503  0.15845542244E+02  0.43959024923E+02 -0.50236736752E+02  0.68609086867E+02  0.00000000000E+00 0. -1.
         21    1    1    2  505  504 -0.23633710528E+01 -0.40469343744E+02 -0.26092921079E+03  0.26405947503E+03  0.00000000000E+00 0. -1.
          2    1    1    2  501    0 -0.16252489079E+02 -0.95928915456E+02 -0.26481430446E+04  0.26499298264E+04  0.00000000000E+00 0.  1.
<scales pt_clust_3="38.42094" pt_clust_4="38.42094" pt_clust_5="40.53829" pt_clust_6="135.97567"></scales>
<clustering>
<clus scale="   38.421">  3  4 -1 -1</clus>
<clus scale="   40.538">  2  5  1 -1</clus>
<clus scale="  135.976">  2  6  1 -1</clus>
<clus scale="  146.325">  1  3  2 -1</clus>
</clustering>
</event>
<event>
 6    0  0.1849053E+002  0.2525818E+03  0.7546771E-02  0.1111684E+00
         21   -1    0    0  504  502  0.00000000000E+00  0.00000000000E+00  0.46278041972E+02  0.46278041972E+02  0.00000000000E+00 0. -1.
         -3   -1    0    0    0  501 -0.00000000000E+00 -0.00000000000E+00 -0.20557850025E+04  0.20557850025E+04  0.00000000000E+00 0. -1.
         21    1    1    2  503  501  0.12862456246E+03 -0.18953141696E+03 -0.57586386183E+03  0.61974641866E+03  0.00000000000E+00 0. -1.
         21    1    1    2  504  503  0.34604478081E+02 -0.15557126986E+02 -0.17664058355E+02  0.41851081956E+02  0.00000000000E+00 0. -1.
         21    1    1    2  505  502 -0.81748295042E+02  0.97431493738E+02 -0.59306395572E+03  0.60654804862E+03  0.00000000000E+00 0. -1.
         -3    1    1    2    0  505 -0.81480745499E+02  0.10765705021E+03 -0.82291508458E+03  0.83391749518E+03  0.00000000000E+00 0. -1.
<scales pt_clust_3="250.11645" pt_clust_4="37.94067" pt_clust_5="34.16756" pt_clust_6="34.16756"></scales>
<clustering>
<clus scale="   34.168">  5  6 -1 -1</clus>
<clus scale="   37.941">  1  4  2 -1</clus>
<clus scale="  250.116">  1  3  2 -1</clus>
<clus scale="   37.941">  1  3  2 -1</clus>
</clustering>
</event>
<event>
 6    0  0.1849053E+002  0.1137729E+03  0.7546771E-02  0.1253738E+00
         21   -1    0    0  505  502  0.00000000000E+00  0.00000000000E+00  0.21069895952E+03  0.21069895952E+03  0.00000000000E+00 0.  1.
          1   -1    0    0  504    0 -0.00000000000E+00 -0.00000000000E+00 -0.68619815160E+03  0.68619815160E+03  0.00000000000E+00 0.  1.
         21    1    1    2  503  501  0.25781650927E+02 -0.36705932157E+02  0.82923258369E+02  0.94277705523E+02  0.00000000000E+00 0.  1.
         21    1    1    2  504  502 -0.81986457504E+02  0.21719212851E+02 -0.12830182610E+03  0.15380137191E+03  0.00000000000E+00 0.  1.
         21    1    1    2  505  503 -0.75368531457E+01 -0.68530085636E+02  0.92710498095E+02  0.11553533334E+03  0.00000000000E+00 0.  1.
          1    1    1    2  501    0  0.63741659723E+02  0.83516804942E+02 -0.52283112245E+03  0.53328270035E+03  0.00000000000E+00 0.  1.
<scales pt_clust_3="33.90440" pt_clust_4="84.81452" pt_clust_5="33.90440" pt_clust_6="105.72357"></scales>
<clustering>
<clus scale="   33.904">  3  5 -1 -1</clus>
<clus scale="   84.815">  2  4  1 -1</clus>
<clus scale="  105.724">  2  6  1 -1</clus>
<clus scale="  113.773">  1  3  2 -1</clus>
</clustering>
</event>
<event>
 6    0  0.1849053E+002  0.1889520E+03  0.7546771E-02  0.1159410E+00
         21   -1    0    0  503  502  0.00000000000E+00  0.00000000000E+00  0.15720290949E+03  0.15720290949E+03  0.00000000000E+00 0.  1.
          3   -1    0    0  505    0 -0.00000000000E+00 -0.00000000000E+00 -0.91118863918E+03  0.91118863918E+03  0.00000000000E+00 0. -1.
         21    1    1    2  503  504  0.62191014566E+01  0.36575861035E+02  0.34121552060E+02  0.50405864226E+02  0.00000000000E+00 0.  1.
         21    1    1    2  504  501  0.10809643122E+03  0.10256569450E+03  0.48916236237E+02  0.15683544975E+03  0.00000000000E+00 0.  1.
         21    1    1    2  505  502 -0.84936685738E+02 -0.14788234618E+03 -0.67182746169E+03  0.69313459528E+03  0.00000000000E+00 0. -1.
          3    1    1    2  501    0 -0.29378846936E+02  0.87407906363E+01 -0.16519605631E+03  0.16801563941E+03  0.00000000000E+00 0. -1.
<scales pt_clust_3="30.04358" pt_clust_4="30.04358" pt_clust_5="179.10221" pt_clust_6="30.65156"></scales>
<clustering>
<clus scale="   30.044">  3  4 -1 -1</clus>
<clus scale="   30.652">  2  6  1 -1</clus>
<clus scale="  179.102">  2  5  1 -1</clus>
<clus scale="  188.952">  1  3  2 -1</clus>
</clustering>
</event>
<event>
 6    0  0.1849053E+002  0.8105245E+02  0.7546771E-02  0.1326091E+00
          2   -1    0    0  505    0 -0.00000000000E+00  0.00000000000E+00  0.50805807429E+03  0.50805807429E+03  0.00000000000E+00 0.  1.
         21   -1    0    0  504  502  0.00000000000E+00 -0.00000000000E+00 -0.31199627195E+04  0.31199627195E+04  0.00000000000E+00 0.  1.
         21    1    1    2  503  501 -0.19332246036E+02 -0.69450163416E+02 -0.73876513762E+03  0.74227420102E+03  0.00000000000E+00 0.  1.
         21    1    1    2  504  503 -0.64916136272E+01  0.86325371392E+02 -0.23385915589E+04  0.23401933018E+04  0.00000000000E+00 0.  1.
         21    1    1    2  505  502 -0.84007538242E+01  0.42458819883E+02 -0.25239829789E+02  0.50103623207E+02  0.00000000000E+00 0.  1.
          2    1    1    2  501    0  0.34224613487E+02 -0.59334027859E+02  0.49069188111E+03  0.49544966769E+03  0.00000000000E+00 0.  1.
<scales pt_clust_3="81.05245" pt_clust_4="14000.00000" pt_clust_5="43.28191" pt_clust_6="31.00516"></scales>
<clustering>
<clus scale="   43.282">  1  5  2 -1</clus>
<clus scale="   31.005">  1  6  2 -1</clus>
<clus scale="   81.052">  1  3  2 -1</clus>
<clus scale="   81.052">  2  3  1 -1</clus>
</clustering>
</event>
<event>
 6    0  0.1849053E+002  0.1037640E+03  0.7546771E-02  0.1272574E+00
          3   -1    0    0  503    0 -0.00000000000E+00  0.00000000000E+00  0.12349895369E+03  0.12349895369E+03  0.00000000000E+00 0. -1.
         21   -1    0    0  501  502  0.00000000000E+00 -0.00000000000E+00 -0.54960597470E+03  0.54960597470E+03  0.00000000000E+00 0. -1.
         21    1    1    2  503  505 -0.19202413979E+02 -0.29599152489E+02  0.78476358297E+01  0.36144542033E+02  0.00000000000E+00 0. -1.
         21    1    1    2  504  502  0.35599865447E+02 -0.10533762271E+03 -0.42147053477E+03  0.43589078547E+03  0.00000000000E+00 0. -1.
         21    1    1    2  505  504 -0.19332235552E+02  0.82802693764E+02 -0.79300731251E+02  0.11626963233E+03  0.00000000000E+00 0. -1.
          3    1    1    2  501    0  0.29347840834E+01  0.52134081439E+02  0.66816609183E+02  0.84799968560E+02  0.00000000000E+00 0. -1.
<scales pt_clust_3="35.28233" pt_clust_4="14000.00000" pt_clust_5="103.76401" pt_clust_6="32.12126"></scales>
<clustering>
<clus scale="   35.282">  1  3  2 -1</clus>
<clus scale="   32.121">  1  6  2 -1</clus>
<clus scale="  103.764">  1  5  2 -1</clus>
<clus scale="  103.764">  2  3  1 -1</clus>
</clustering>
</event>
<event>
 6    0  0.1849053E+002  0.9512169E+02  0.7546771E-02  0.1290902E+00
          4   -1    0    0  504    0 -0.00000000000E+00  0.00000000000E+00  0.26764614967E+03  0.26764614967E+03  0.00000000000E+00 0.  1.
         21   -1    0    0  505  502  0.00000000000E+00 -0.00000000000E+00 -0.12515770184E+03  0.12515770184E+03  0.00000000000E+00 0.  1.
         21    1    1    2  503  501  0.11621564686E+02 -0.11074529490E+03  0.26223446214E+02  0.11439952027E+03  0.00000000000E+00 0.  1.
         21    1    1    2  504  502 -0.25013225921E+02 -0.17139858069E+02 -0.29846654914E+02  0.42547138742E+02  0.00000000000E+00 0.  1.
         21    1    1    2  505  503 -0.33825434480E+01  0.37683873840E+02 -0.22413598209E+02  0.43975963121E+02  0.00000000000E+00 0.  1.
          4    1    1    2  501    0  0.16774204683E+02  0.90201279125E+02  0.16852525474E+03  0.19188122937E+03  0.00000000000E+00 0.  1.
<scales pt_clust_3="95.12169" pt_clust_4="30.32221" pt_clust_5="33.77358" pt_clust_6="14000.00000"></scales>
<clustering>
<clus scale="   30.322">  2  4  1 -1</clus>
<clus scale="   33.774">  2  5  1 -1</clus>
<clus scale="   95.122">  2  3  1 -1</clus>
<clus scale="   30.322">  2  3  1 -1</clus>
</clustering>
</event>
<event>
 6    0  0.1849053E+002  0.1577652E+03  0.7546771E-02  0.1191243E+00
         21   -1    0    0  504  502  0.00000000000E+00  0.00000000000E+00  0.18902372293E+03  0.18902372293E+03  0.00000000000E+00 0. -1.
          2   -1    0    0  503    0 -0.00000000000E+00 -0.00000000000E+00 -0.44776403166E+03  0.44776403166E+03  0.00000000000E+00 0.  1.
         21    1    1    2  503  502 -0.66414676527E+02 -0.10078305027E+03 -0.22632922135E+03  0.25650155733E+03  0.00000000000E+00 0.  1.
         21    1    1    2  504  505  0.76906977130E+02  0.96247433342E+02  0.11951929078E+03  0.17164822290E+03  0.00000000000E+00 0. -1.
         21    1    1    2  505  501 -0.55054490744E+01  0.35057945879E+02  0.15246732916E+02  0.38624246315E+02  0.00000000000E+00 0.  1.
          2    1    1    2  501    0 -0.49868515294E+01 -0.30522328950E+02 -0.16717711108E+03  0.17001372804E+03  0.00000000000E+00 0.  1.
<scales pt_clust_3="145.52147" pt_clust_4="32.46666" pt_clust_5="32.46666" pt_clust_6="30.92703"></scales>
<clustering>
<clus scale="   30.927">  2  6  1 -1</clus>
<clus scale="   32.467">  4  5 -1 -1</clus>
<clus scale="  145.521">  2  3  1 -1</clus>
<clus scale="  157.765">  1  3  2 -1</clus>
</clustering>
</event>
<event>
 6    0  0.1849053E+002  0.9815809E+02  0.7546771E-02  0.1284218E+00
         21   -1    0    0  501  502  0.00000000000E+00  0.00000000000E+00  0.23400068088E+02  0.23400068088E+02  0.00000000000E+00 0. -1.
          2   -1    0    0  504    0 -0.00000000000E+00 -0.00000000000E+00 -0.17620308591E+04  0.17620308591E+04  0.00000000000E+00 0. -1.
         21    1    1    2  503  505 -0.45717925834E+02  0.28505859163E+02 -0.27646557927E+03  0.28166634387E+03  0.00000000000E+00 0.  1.
         21    1    1    2  504  503  0.21215682159E+02 -0.25718857387E+02 -0.14703236691E+03  0.15076498836E+03  0.00000000000E+00 0.  1.
         21    1    1    2  505  502  0.34320997540E+02 -0.93202454069E+02 -0.12621247935E+03  0.16060578526E+03  0.00000000000E+00 0. -1.
          2    1    1    2  501    0 -0.98187538654E+01  0.90415452294E+02 -0.11889203655E+04  0.11923938097E+04  0.00000000000E+00 0. -1.
<scales pt_clust_3="48.44304" pt_clust_4="33.34014" pt_clust_5="14000.00000" pt_clust_6="98.15809"></scales>
<clustering>
<clus scale="   33.340">  2  4  1 -1</clus>
<clus scale="   48.443">  2  3  1 -1</clus>
<clus scale="   98.158">  2  6  1 -1</clus>
<clus scale="   98.158">  1  3  2 -1</clus>
</clustering>
</event>
<event>
 6    0  0.1849053E+002  0.1494153E+03  0.7546771E-02  0.1201193E+00
         21   -1    0    0  503  502  0.00000000000E+00  0.00000000000E+00  0.16931180350E+03  0.16931180350E+03  0.00000000000E+00 0.  1.
          2   -1    0    0  505    0 -0.00000000000E+00 -0.00000000000E+00 -0.60688787624E+03  0.60688787624E+03  0.00000000000E+00 0. -1.
         21    1    1    2  503  504  0.95706031701E+01  0.28852261632E+02 -0.18531707191E+02  0.35601595719E+02  0.00000000000E+00 0.  1.
         21    1    1    2  504  501  0.10985761525E+02 -0.54875086867E+02 -0.12482147904E+03  0.13679314217E+03  0.00000000000E+00 0.  1.
         21    1    1    2  505  502  0.68066899074E+01  0.10641248775E+03  0.13172536829E+03  0.16947424945E+03  0.00000000000E+00 0.  1.
          2    1    1    2  501    0 -0.27363054602E+02 -0.80389662515E+02 -0.42594825480E+03  0.43433069240E+03  0.00000000000E+00 0. -1.
<scales pt_clust_3="30.39818" pt_clust_4="52.83016" pt_clust_5="134.36723" pt_clust_6="52.83016"></scales>
<clustering>
<clus scale="   30.398">  1  3  2 -1</clus>
<clus scale="   52.830">  4  6 -1 -1</clus>
<clus scale="  134.367">  1  5  2 -1</clus>
<clus scale="   30.398">  1  3  2 -1</clus>
</clustering>
</event>
<event>
 6    0  0.1849053E+002  0.1686850E+03  0.7546771E-02  0.1179226E+00
          1   -1    0    0  504    0 -0.00000000000E+00  0.00000000000E+00  0.88345116299E+03  0.88345116299E+03  0.00000000000E+00 0. -1.
         21   -1    0    0  503  502  0.00000000000E+00 -0.00000000000E+00 -0.11343621200E+04  0.11343621200E+04  0.00000000000E+00 0. -1.
         21    1    1    2  503  501  0.82221356438E+02 -0.66105974791E+02 -0.93304118721E+03  0.93898679883E+03  0.00000000000E+00 0. -1.
         21    1    1    2  504  505 -0.32668708292E+02 -0.23925451926E+01  0.31534543553E+02  0.45468628867E+02  0.00000000000E+00 0. -1.
         21    1    1    2  505  502  0.36096403160E+02 -0.55949097073E+02 -0.17855050080E+03  0.19056110076E+03  0.00000000000E+00 0.  1.
          1    1    1    2  501    0 -0.85649051306E+02  0.12444761706E+03  0.82914618742E+03  0.84279675456E+03  0.00000000000E+00 0. -1.
<scales pt_clust_3="14000.00000" pt_clust_4="32.75620" pt_clust_5="66.47140" pt_clust_6="168.68501"></scales>
<clustering>
<clus scale="   32.756">  1  4  2 -1</clus>
<clus scale="   66.471">  2  5  1 -1</clus>
<clus scale="  168.685">  1  6  2 -1</clus>
<clus scale="   66.471">  2  3  1 -1</clus>
</clustering>
</event>
<event>
 6    0  0.1849053E+002  0.1186234E+03  0.7546771E-02  0.1245385E+00
          2   -1    0    0  503    0 -0.00000000000E+00  0.00000000000E+00  0.22501987683E+04  0.22501987683E+04  0.00000000000E+00 0.  1.
         21   -1    0    0  501  502  0.00000000000E+00 -0.00000000000E+00 -0.33187340275E+02  0.33187340275E+02  0.00000000000E+00 0.  1.
         21    1    1    2  503  504  0.31766408933E+02 -0.79409550852E+02  0.40127377507E+03  0.41028724579E+03  0.00000000000E+00 0.  1.
         21    1    1    2  504  505 -0.87426190964E+02 -0.77991370938E+00  0.33967269125E+03  0.35074418643E+03  0.00000000000E+00 0.  1.
         21    1    1    2  505  502 -0.51225980025E+02  0.11336398099E+03  0.16560441345E+03  0.20712391211E+03  0.00000000000E+00 0.  1.
          2    1    1    2  501    0  0.10688576206E+03 -0.33174516424E+02  0.13104605483E+04  0.13152307643E+04  0.00000000000E+00 0.  1.
<scales pt_clust_3="85.52767" pt_clust_4="82.96859" pt_clust_5="14000.00000" pt_clust_6="118.62344"></scales>
<clustering>
<clus scale="   85.528">  1  3  2 -1</clus>
<clus scale="   82.969">  1  4  2 -1</clus>
<clus scale="  118.623">  1  6  2 -1</clus>
<clus scale="  118.623">  2  3  1 -1</clus>
</clustering>
</event>
<event>
 6    0  0.1849053E+002  0.1586162E+03  0.7546771E-02  0.1190268E+00
          2   -1    0    0  504    0 -0.00000000000E+00  0.00000000000E+00  0.16540712492E+04  0.16540712492E+04  0.00000000000E+00 0.  1.
         21   -1    0    0  503  502  0.00000000000E+00 -0.00000000000E+00 -0.24449567418E+03  0.24449567418E+03  0.00000000000E+00 0. -1.
         21    1    1    2  503  505 -0.76216594349E+02 -0.17250506408E+02 -0.14572645986E+03  0.16535643419E+03  0.00000000000E+00 0. -1.
         21    1    1    2  504  502  0.13879252579E+02 -0.11961357188E+03 -0.42245335765E+02  0.12761155365E+03  0.00000000000E+00 0. -1.
         21    1    1    2  505  501  0.49607615863E+02  0.42986730554E+02  0.69518365316E+03  0.69827579521E+03  0.00000000000E+00 0.  1.
          2    1    1    2  501    0  0.12729725907E+02  0.93877347733E+02  0.90236371745E+03  0.90732314029E+03  0.00000000000E+00 0.  1.
<scales pt_clust_3="78.14441" pt_clust_4="148.27840" pt_clust_5="46.88553" pt_clust_6="46.88553"></scales>
<clustering>
<clus scale="   46.886">  5  6 -1 -1</clus>
<clus scale="   78.144">  2  3  1 -1</clus>
<clus scale="  148.278">  2  4  1 -1</clus>
<clus scale="   78.144">  2  3  1 -1</clus>
</clustering>
</event>
<event>
 6    0  0.1849053E+002  0.9752929E+02  0.7546771E-02  0.1285579E+00
         21   -1    0    0  501  502  0.00000000000E+00  0.00000000000E+00  0.26110085368E+02  0.26110085368E+02  0.00000000000E+00 0.  1.
          2   -1    0    0  504    0 -0.00000000000E+00 -0.00000000000E+00 -0.32478172101E+04  0.32478172101E+04  0.00000000000E+00 0. -1.
         21    1    1    2  503  505 -0.32387516276E+02 -0.30473498456E+02 -0.24218475479E+03  0.24623371169E+03  0.00000000000E+00 0.  1.
         21    1    1    2  504  503  0.42414793804E+02 -0.42301834384E+01 -0.29140050489E+03  0.29450155082E+03  0.00000000000E+00 0.  1.
         21    1    1    2  505  502  0.96617358218E+01  0.98423959320E+02 -0.88496076114E+02  0.13271089026E+03  0.00000000000E+00 0.  1.
          2    1    1    2  501    0 -0.19689013350E+02 -0.63720277425E+02 -0.25996257889E+04  0.26004811426E+04  0.00000000000E+00 0. -1.
<scales pt_clust_3="42.24025" pt_clust_4="42.62522" pt_clust_5="97.52929" pt_clust_6="14000.00000"></scales>
<clustering>
<clus scale="   42.625">  2  4  1 -1</clus>
<clus scale="   42.240">  2  3  1 -1</clus>
<clus scale="   97.529">  1  5  2 -1</clus>
<clus scale="   97.529">  1  3  2 -1</clus>
</clustering>
</event>
<event>
 6    0  0.1849053E+002  0.1130920E+03  0.7546771E-02  0.1254949E+00
         21   -1    0    0  503  502  0.00000000000E+00  0.00000000000E+00  0.99825151431E+02  0.99825151431E+02  0.00000000000E+00 0.  1.
          2   -1    0    0  505    0 -0.00000000000E+00 -0.00000000000E+00 -0.11181306140E+04  0.11181306140E+04  0.00000000000E+00 0. -1.
         21    1    1    2  503  501 -0.86752606969E+02  0.28540324812E+02  0.52492310254E+02  0.10533758870E+03  0.00000000000E+00 0.  1.
         21    1    1    2  504  502 -0.34147696780E+02 -0.33960863154E+02 -0.33657047655E+02  0.58755444671E+02  0.00000000000E+00 0.  1.
         21    1    1    2  505  504  0.75421439394E+02  0.68714171672E+02 -0.72473688936E+03  0.73188359027E+03  0.00000000000E+00 0. -1.
          2    1    1    2  501    0  0.45478864355E+02 -0.63293633330E+02 -0.31240383582E+03  0.32197914180E+03  0.00000000000E+00 0. -1.
<scales pt_clust_3="113.09196" pt_clust_4="48.16021" pt_clust_5="14000.00000" pt_clust_6="78.40176"></scales>
<clustering>
<clus scale="   48.160">  1  4  2 -1</clus>
<clus scale="   78.402">  2  6  1 -1</clus>
<clus scale="  113.092">  1  3  2 -1</clus>
<clus scale="   48.160">  1  3  2 -1</clus>
</clustering>
</event>
<event>
 6    0  0.1849053E+002  0.8734207E+02  0.7546771E-02  0.1309419E+00
          2   -1    0    0  505    0 -0.00000000000E+00  0.00000000000E+00  0.92131709712E+03  0.92131709712E+03  0.00000000000E+00 0. -1.
         21   -1    0    0  504  502  0.00000000000E+00 -0.00000000000E+00 -0.26802950516E+02  0.26802950516E+02  0.00000000000E+00 0. -1.
         21    1    1    2  503  502  0.25292912760E+02 -0.39386889099E+02  0.68055837557E+02  0.82599367397E+02  0.00000000000E+00 0. -1.
         21    1    1    2  504  501  0.65360690057E+02  0.67957187447E+02  0.14633342545E+03  0.17407949487E+03  0.00000000000E+00 0. -1.
         21    1    1    2  505  503 -0.32224161161E+02  0.19180295980E+02  0.10723294919E+03  0.11360099343E+03  0.00000000000E+00 0. -1.
          2    1    1    2  501    0 -0.58429441656E+02 -0.47750594328E+02  0.57289193441E+03  0.57784019194E+03  0.00000000000E+00 0. -1.
<scales pt_clust_3="43.71973" pt_clust_4="87.34207" pt_clust_5="37.50040" pt_clust_6="14000.00000"></scales>
<clustering>
<clus scale="   37.500">  1  5  2 -1</clus>
<clus scale="   43.720">  2  3  1 -1</clus>
<clus scale="   87.342">  2  4  1 -1</clus>
<clus scale="   43.720">  2  3  1 -1</clus>
</clustering>
</event>
<event>
 6    0  0.1849053E+002  0.2398958E+03  0.7546771E-02  0.1119862E+00
          2   -1    0    0  504    0 -0.00000000000E+00  0.00000000000E+00  0.37085854414E+03  0.37085854414E+03  0.00000000000E+00 0.  1.
         21   -1    0    0  501  502  0.00000000000E+00 -0.00000000000E+00 -0.19245389911E+04  0.19245389911E+04  0.00000000000E+00 0. -1.
         21    1    1    2  503  505 -0.50561151788E+02  0.14696539242E+03 -0.13748730714E+04  0.13836297262E+04  0.00000000000E+00 0. -1.
         21    1    1    2  504  503  0.40512763395E+02 -0.50743258517E+01  0.73787464115E+01  0.41490705939E+02  0.00000000000E+00 0. -1.
         21    1    1    2  505  502 -0.33753922308E+02  0.73695672965E+02 -0.48917546951E+03  0.49584576176E+03  0.00000000000E+00 0. -1.
          2    1    1    2  501    0  0.43802310702E+02 -0.21558673953E+03  0.30298934754E+03  0.37443134139E+03  0.00000000000E+00 0.  1.
<scales pt_clust_3="31.89717" pt_clust_4="40.82931" pt_clust_5="31.89717" pt_clust_6="235.79480"></scales>
<clustering>
<clus scale="   31.897">  3  5 -1 -1</clus>
<clus scale="   40.829">  1  4  2 -1</clus>
<clus scale="  235.795">  1  6  2 -1</clus>
<clus scale="  239.896">  2  3  1 -1</clus>
</clustering>
</event>
<event>
 6    0  0.1849053E+002  0.2463400E+03  0.7546771E-02  0.1115640E+00
         21   -1    0    0  505  502  0.00000000000E+00  0.00000000000E+00  0.95380278426E+03  0.95380278426E+03  0.00000000000E+00 0. -1.
          1   -1    0    0  503    0 -0.00000000000E+00 -0.00000000000E+00 -0.23691627000E+04  0.23691627000E+04  0.00000000000E+00 0. -1.
         21    1    1    2  503  502 -0.26362117940E+02  0.18444609554E+02  0.13123433922E+03  0.13512074850E+03  0.00000000000E+00 0. -1.
         21    1    1    2  504  501 -0.14052796416E+02  0.95018559821E+02 -0.65033147310E+03  0.65738651698E+03  0.00000000000E+00 0. -1.
         21    1    1    2  505  504  0.15074533931E+03 -0.20082972105E+03  0.79481263284E+03  0.83353695509E+03  0.00000000000E+00 0. -1.
          1    1    1    2  501    0 -0.11033042495E+03  0.87366551674E+02 -0.16910754147E+04  0.16969212637E+04  0.00000000000E+00 0. -1.
<scales pt_clust_3="32.17398" pt_clust_4="89.91504" pt_clust_5="220.99777" pt_clust_6="89.91504"></scales>
<clustering>
<clus scale="   32.174">  1  3  2 -1</clus>
<clus scale="   89.915">  4  6 -1 -1</clus>
<clus scale="  220.998">  1  5  2 -1</clus>
<clus scale="   32.174">  1  3  2 -1</clus>
</clustering>
</event>
<event>
 6    0  0.1849053E+002  0.1867545E+03  0.7546771E-02  0.1161422E+00
         21   -1    0    0  504  502  0.00000000000E+00  0.00000000000E+00  0.85339767150E+02  0.85339767150E+02  0.00000000000E+00 0. -1.
          1   -1    0    0  502    0 -0.00000000000E+00 -0.00000000000E+00 -0.58272357234E+03  0.58272357234E+03  0.00000000000E+00 0.  1.
         21    1    1    2  503  505 -0.77857155726E+02 -0.98233441609E+02 -0.26719604383E+02  0.12816194055E+03  0.00000000000E+00 0. -1.
         21    1    1    2  504  503  0.12054790677E+02 -0.57507310559E+02 -0.35676892888E+02  0.68740449752E+02  0.00000000000E+00 0.  1.
         21    1    1    2  505  501 -0.15303627592E+01  0.42471711300E+02 -0.58710428581E+02  0.72478291198E+02  0.00000000000E+00 0.  1.
          1    1    1    2  501    0  0.67332727808E+02  0.11326904087E+03 -0.37627687934E+03  0.39868265798E+03  0.00000000000E+00 0.  1.
<scales pt_clust_3="54.30921" pt_clust_4="54.30921" pt_clust_5="36.77662" pt_clust_6="181.04884"></scales>
<clustering>
<clus scale="   36.777">  5  6 -1 -1</clus>
<clus scale="   54.309">  3  4 -1 -1</clus>
<clus scale="  181.049">  2  5  1 -1</clus>
<clus scale="  186.754">  1  3  2 -1</clus>
</clustering>
</event>
<event>
 6    0  0.1849053E+002  0.1790617E+03  0.7546771E-02  0.1168714E+00
          2   -1    0    0  504    0 -0.00000000000E+00  0.00000000000E+00  0.63994844274E+03  0.63994844274E+03  0.00000000000E+00 0. -1.
         21   -1    0    0  503  502  0.00000000000E+00 -0.00000000000E+00 -0.56703139304E+03  0.56703139304E+03  0.00000000000E+00 0. -1.
         21    1    1    2  503  505 -0.14991150982E+03 -0.64869151729E+00 -0.44631835187E+03  0.47082263411E+03  0.00000000000E+00 0. -1.
         21    1    1    2  504  502 -0.13077177354E+02 -0.46164523369E+02 -0.89444166460E+02  0.10150090984E+03  0.00000000000E+00 0. -1.
         21    1    1    2  505  501  0.10425257945E+03  0.58640570579E+02  0.41900202783E+03  0.43574076716E+03  0.00000000000E+00 0. -1.
          2    1    1    2  501    0  0.58736107726E+02 -0.11827355692E+02  0.18967754020E+03  0.19891552466E+03  0.00000000000E+00 0. -1.
<scales pt_clust_3="168.88479" pt_clust_4="47.98099" pt_clust_5="42.11547" pt_clust_6="42.11547"></scales>
<clustering>
<clus scale="   42.115">  5  6 -1 -1</clus>
<clus scale="   47.981">  2  4  1 -1</clus>
<clus scale="  168.885">  2  3  1 -1</clus>
<clus scale="   47.981">  2  3  1 -1</clus>
</clustering>
</event>
<event>
 6    0  0.1849053E+002  0.9571178E+02  0.7546771E-02  0.1289581E+00
         21   -1    0    0  503  502  0.00000000000E+00  0.00000000000E+00  0.21128759873E+03  0.21128759873E+03  0.00000000000E+00 0.  1.
          2   -1    0    0  504    0 -0.00000000000E+00 -0.00000000000E+00 -0.13538261752E+03  0.13538261752E+03  0.00000000000E+00 0. -1.
         21    1    1    2  503  501 -0.30858456730E+01  0.54052851924E+02  0.53594884243E+02  0.76181656990E+02  0.00000000000E+00 0.  1.
         21    1    1    2  504  505  0.29264727757E+02  0.12157790368E+02 -0.61022821854E+01  0.32271876381E+02  0.00000000000E+00 0. -1.
         21    1    1    2  505  502 -0.96997855186E+02 -0.14007143639E+02  0.88196566745E+02  0.13184619209E+03  0.00000000000E+00 0.  1.
          2    1    1    2  501    0  0.70818973103E+02 -0.52203498653E+02 -0.59784187602E+02  0.10637049079E+03  0.00000000000E+00 0. -1.
<scales pt_clust_3="55.23503" pt_clust_4="31.68969" pt_clust_5="95.71178" pt_clust_6="14000.00000"></scales>
<clustering>
<clus scale="   31.690">  2  4  1 -1</clus>
<clus scale="   55.235">  1  3  2 -1</clus>
<clus scale="   95.712">  1  5  2 -1</clus>
<clus scale="   55.235">  1  3  2 -1</clus>
</clustering>
</event>
<event>
 6    0  0.1849053E+002  0.6529552E+02  0.7546771E-02  0.1376863E+00
          2   -1    0    0  503    0 -0.00000000000E+00  0.00000000000E+00  0.32322543153E+03  0.32322543153E+03  0.00000000000E+00 0. -1.
         21   -1    0    0  505  502  0.00000000000E+00 -0.00000000000E+00 -0.14299808917E+03  0.14299808917E+03  0.00000000000E+00 0. -1.
         21    1    1    2  503  502  0.32166071842E+02  0.31027902133E+02  0.38654605844E+02  0.59089469802E+02  0.00000000000E+00 0. -1.
         21    1    1    2  504  501 -0.73064779168E+02  0.32868009932E+02  0.12134172212E+02  0.81030896373E+02  0.00000000000E+00 0. -1.
         21    1    1    2  505  504  0.49261851018E+02  0.25516034817E+02 -0.80499435048E+02  0.97764804718E+02  0.00000000000E+00 0. -1.
          2    1    1    2  501    0 -0.83631436931E+01 -0.89411946882E+02  0.20993799935E+03  0.22833834980E+03  0.00000000000E+00 0. -1.
<scales pt_clust_3="44.69213" pt_clust_4="65.29552" pt_clust_5="56.82708" pt_clust_6="14000.00000"></scales>
<clustering>
<clus scale="   44.692">  1  3  2 -1</clus>
<clus scale="   56.827">  2  5  1 -1</clus>
<clus scale="   65.296">  2  4  1 -1</clus>
<clus scale="   56.827">  2  3  1 -1</clus>
</clustering>
</event>
<event>
 6    0  0.1849053E+002  0.9656417E+02  0.7546771E-02  0.1287692E+00
          2   -1    0    0  503    0 -0.00000000000E+00  0.00000000000E+00  0.28246917016E+04  0.28246917016E+04  0.00000000000E+00 0. -1.
         21   -1    0    0  504  502  0.00000000000E+00 -0.00000000000E+00 -0.18082608000E+03  0.18082608000E+03  0.00000000000E+00 0.  1.
         21    1    1    2  503  502  0.41545672600E+02 -0.26447344270E+02  0.27226621742E+03  0.27668465457E+03  0.00000000000E+00 0.  1.
         21    1    1    2  504  505  0.82627126412E+02 -0.57718655442E+02 -0.14363288781E+03  0.17546820700E+03  0.00000000000E+00 0.  1.
         21    1    1    2  505  501 -0.11509763169E+02  0.91557483368E+02  0.10221155799E+03  0.13770421197E+03  0.00000000000E+00 0. -1.
          2    1    1    2  501    0 -0.11266303584E+03 -0.73914836560E+01  0.24130207340E+04  0.24156607081E+04  0.00000000000E+00 0. -1.
<scales pt_clust_3="49.24942" pt_clust_4="96.56417" pt_clust_5="14000.00000" pt_clust_6="80.18173"></scales>
<clustering>
<clus scale="   49.249">  1  3  2 -1</clus>
<clus scale="   80.182">  1  6  2 -1</clus>
<clus scale="   96.564">  2  4  1 -1</clus>
<clus scale="   96.564">  2  3  1 -1</clus>
</clustering>
</event>
<event>
 6    0  0.1849053E+002  0.1172464E+03  0.7546771E-02  0.1247710E+00
          3   -1    0    0  504    0 -0.00000000000E+00  0.00000000000E+00  0.35383829137E+03  0.35383829137E+03  0.00000000000E+00 0.  1.
         21   -1    0    0  505  502  0.00000000000E+00 -0.00000000000E+00 -0.15538977898E+04  0.15538977898E+04  0.00000000000E+00 0.  1.
         21    1    1    2  503  501 -0.67174359640E+02 -0.91886605987E+02  0.33636361202E+02  0.11868844825E+03  0.00000000000E+00 0.  1.
         21    1    1    2  504  502  0.11782000977E+02  0.41543441810E+02 -0.15883662272E+03  0.16460177952E+03  0.00000000000E+00 0.  1.
         21    1    1    2  505  503  0.11325439649E+01  0.77867696837E+02 -0.13451447521E+04  0.13473971445E+04  0.00000000000E+00 0.  1.
          3    1    1    2  501    0  0.54259814697E+02 -0.27524532660E+02  0.27028551519E+03  0.27704870891E+03  0.00000000000E+00 0.  1.
<scales pt_clust_3="117.24638" pt_clust_4="43.18186" pt_clust_5="14000.00000" pt_clust_6="60.82178"></scales>
<clustering>
<clus scale="   43.182">  2  4  1 -1</clus>
<clus scale="   60.822">  1  6  2 -1</clus>
<clus scale="  117.246">  1  3  2 -1</clus>
<clus scale="   43.182">  2  3  1 -1</clus>
</clustering>
</event>
<event>
 6    0  0.1988359E+002  0.1361090E+03  0.7546771E-02  0.1218663E+00
          1   -1    0    0  502    0 -0.00000000000E+00  0.00000000000E+00  0.19365045055E+04  0.19365045055E+04  0.00000000000E+00 0.  1.
         21   -1    0    0  504  502  0.00000000000E+00 -0.00000000000E+00 -0.14192177400E+03  0.14192177400E+03  0.00000000000E+00 0. -1.
         21    1    1    2  503  501  0.45662444366E+02 -0.11581913157E+02  0.74012586188E+02  0.87732904045E+02  0.00000000000E+00 0. -1.
         21    1    1    2  504  505  0.26953815587E+02 -0.30120979308E+02 -0.10981363807E+03  0.11701630945E+03  0.00000000000E+00 0. -1.
         21    1    1    2  505  503  0.29708658788E+02 -0.30880312872E+02  0.40525681309E+01  0.43042089151E+02  0.00000000000E+00 0. -1.
          1    1    1    2  501    0 -0.10232491874E+03  0.72583205337E+02  0.18263312153E+04  0.18306349769E+04  0.00000000000E+00 0.  1.
<scales pt_clust_3="52.65193" pt_clust_4="40.42006" pt_clust_5="52.65193" pt_clust_6="122.48086"></scales>
<clustering>
<clus scale="   40.420">  2  4  1 -1</clus>
<clus scale="   52.652">  3  5 -1 -1</clus>
<clus scale="  122.481">  1  6  2 -1</clus>
<clus scale="   40.420">  2  3  1 -1</clus>
</clustering>
</event>
<event>
 6    0  0.1849053E+002  0.6413486E+02  0.7546771E-02  0.1381256E+00
          2   -1    0    0  503    0 -0.00000000000E+00  0.00000000000E+00  0.36062946284E+03  0.36062946284E+03  0.00000000000E+00 0. -1.
         21   -1    0    0  505  502  0.00000000000E+00 -0.00000000000E+00 -0.18075110241E+04  0.18075110241E+04  0.00000000000E+00 0.  1.
         21    1    1    2  503  502  0.88640682634E+02  0.10167935464E+01 -0.16689984312E+04  0.16713509409E+04  0.00000000000E+00 0.  1.
         21    1    1    2  504  501 -0.22225498525E+02  0.63842673220E+02  0.74440994404E+02  0.10055506629E+03  0.00000000000E+00 0. -1.
         21    1    1    2  505  504 -0.53863483771E+02 -0.83183075881E+00 -0.11424529642E+03  0.12630896476E+03  0.00000000000E+00 0.  1.
          2    1    1    2  501    0 -0.12551700338E+02 -0.64027636008E+02  0.26192117190E+03  0.26992551499E+03  0.00000000000E+00 0. -1.
<scales pt_clust_3="35.32233" pt_clust_4="14000.00000" pt_clust_5="53.86991" pt_clust_6="64.13486"></scales>
<clustering>
<clus scale="   53.870">  2  5  1 -1</clus>
<clus scale="   35.322">  2  3  1 -1</clus>
<clus scale="   64.135">  1  6  2 -1</clus>
<clus scale="   53.870">  2  3  1 -1</clus>
</clustering>
</event>
<event>
 6    0  0.1849053E+002  0.8982471E+02  0.7546771E-02  0.1303277E+00
         21   -1    0    0  503  502  0.00000000000E+00  0.00000000000E+00  0.36205772233E+03  0.36205772233E+03  0.00000000000E+00 0.  1.
          1   -1    0    0  505    0 -0.00000000000E+00 -0.00000000000E+00 -0.28807048013E+03  0.28807048013E+03  0.00000000000E+00 0.  1.
         21    1    1    2  503  501 -0.37630984730E+02  0.80114933506E+02  0.24618360910E+03  0.26161204669E+03  0.00000000000E+00 0.  1.
         21    1    1    2  504  502  0.29843482155E+02  0.10411223371E+02  0.80687533100E+02  0.86657400128E+02  0.00000000000E+00 0.  1.
         21    1    1    2  505  504  0.40246377695E+02 -0.49776683905E+01 -0.92289268415E+01  0.41589916937E+02  0.00000000000E+00 0. -1.
          1    1    1    2  501    0 -0.32458875120E+02 -0.85548488487E+02 -0.24365497316E+03  0.26026883870E+03  0.00000000000E+00 0.  1.
<scales pt_clust_3="89.82471" pt_clust_4="31.60739" pt_clust_5="42.20806" pt_clust_6="14000.00000"></scales>
<clustering>
<clus scale="   31.607">  1  4  2 -1</clus>
<clus scale="   42.208">  2  5  1 -1</clus>
<clus scale="   89.825">  1  3  2 -1</clus>
<clus scale="   31.607">  1  3  2 -1</clus>
</clustering>
</event>
<event>
 6    0  0.1849053E+002  0.7022717E+02  0.7546771E-02  0.1359322E+00
         21   -1    0    0  505  502  0.00000000000E+00  0.00000000000E+00  0.15477855463E+03  0.15477855463E+03  0.00000000000E+00 0. -1.
          2   -1    0    0  503    0 -0.00000000000E+00 -0.00000000000E+00 -0.10775390972E+04  0.10775390972E+04  0.00000000000E+00 0.  1.
         21    1    1    2  503  504 -0.23898762290E+02 -0.50304548991E+02 -0.11551786732E+03  0.12824225575E+03  0.00000000000E+00 0. -1.
         21    1    1    2  504  502  0.16666074312E+02 -0.34989711912E+02  0.40077202203E+02  0.55751413516E+02  0.00000000000E+00 0. -1.
         21    1    1    2  505  501 -0.11844312714E+02 -0.37348216041E+02  0.92441249581E+02  0.10040200003E+03  0.00000000000E+00 0. -1.
          2    1    1    2  501    0  0.19077000692E+02  0.12264247694E+03 -0.93976112705E+03  0.94792198256E+03  0.00000000000E+00 0.  1.
<scales pt_clust_3="57.17672" pt_clust_4="38.75613" pt_clust_5="70.22717" pt_clust_6="14000.00000"></scales>
<clustering>
<clus scale="   38.756">  1  4  2 -1</clus>
<clus scale="   57.177">  2  3  1 -1</clus>
<clus scale="   70.227">  1  5  2 -1</clus>
<clus scale="   38.756">  1  3  2 -1</clus>
</clustering>
</event>
<event>
 6    0  0.1849053E+002  0.1181668E+03  0.7546771E-02  0.1246152E+00
         -1   -1    0    0    0  501 -0.00000000000E+00  0.00000000000E+00  0.10206428561E+03  0.10206428561E+03  0.00000000000E+00 0. -1.
         21   -1    0    0  504  502  0.00000000000E+00 -0.00000000000E+00 -0.88819729728E+03  0.88819729728E+03  0.00000000000E+00 0.  1.
         21    1    1    2  503  505  0.88564082598E+02 -0.16178320326E+02 -0.14107027482E+03  0.16735040249E+03  0.00000000000E+00 0.  1.
         21    1    1    2  504  501 -0.59211353695E+02 -0.27834240857E+01 -0.83747448383E+02  0.10260295788E+03  0.00000000000E+00 0. -1.
         21    1    1    2  505  502  0.97301654394E+02 -0.21319799639E+00 -0.58241279553E+03  0.59048481928E+03  0.00000000000E+00 0.  1.
         -1    1    1    2    0  503 -0.12665438330E+03  0.19174942408E+02  0.21097507065E+02  0.12982340324E+03  0.00000000000E+00 0. -1.
<scales pt_clust_3="14000.00000" pt_clust_4="59.27674" pt_clust_5="53.67222" pt_clust_6="118.16683"></scales>
<clustering>
<clus scale="   59.277">  2  4  1 -1</clus>
<clus scale="   53.672">  2  5  1 -1</clus>
<clus scale="  118.167">  1  6  2 -1</clus>
<clus scale="   59.277">  2  3  1 -1</clus>
</clustering>
</event>
<event>
 6    0  0.1849053E+002  0.1018027E+03  0.7546771E-02  0.1276550E+00
          2   -1    0    0  505    0 -0.00000000000E+00  0.00000000000E+00  0.87504883356E+03  0.87504883356E+03  0.00000000000E+00 0. -1.
         21   -1    0    0  501  502  0.00000000000E+00 -0.00000000000E+00 -0.83887539762E+02  0.83887539762E+02  0.00000000000E+00 0.  1.
         21    1    1    2  503  502  0.47761745809E+02  0.59751019352E+01  0.23094517548E+02  0.53387666616E+02  0.00000000000E+00 0.  1.
         21    1    1    2  504  503  0.96425435369E+01  0.77111691935E+02 -0.31157574855E+02  0.83725660044E+02  0.00000000000E+00 0.  1.
         21    1    1    2  505  504  0.13920827316E+02  0.42175964916E+02  0.25465937066E+03  0.25850337815E+03  0.00000000000E+00 0. -1.
          2    1    1    2  501    0 -0.71325116663E+02 -0.12526275879E+03  0.54456498044E+03  0.56331966851E+03  0.00000000000E+00 0. -1.
<scales pt_clust_3="49.37422" pt_clust_4="14000.00000" pt_clust_5="44.41398" pt_clust_6="101.80274"></scales>
<clustering>
<clus scale="   44.414">  1  5  2 -1</clus>
<clus scale="   49.374">  2  3  1 -1</clus>
<clus scale="  101.803">  1  6  2 -1</clus>
<clus scale="   49.374">  2  3  1 -1</clus>
</clustering>
</event>
<event>
 6    0  0.1849053E+002  0.1625539E+03  0.7546771E-02  0.1185843E+00
         21   -1    0    0  504  502  0.00000000000E+00  0.00000000000E+00  0.22846148780E+03  0.22846148780E+03  0.00000000000E+00 0. -1.
          2   -1    0    0  505    0 -0.00000000000E+00 -0.00000000000E+00 -0.70912801606E+03  0.70912801606E+03  0.00000000000E+00 0. -1.
         21    1    1    2  503  501  0.36646943868E+02 -0.14738384929E+02 -0.15487647791E+03  0.15983410742E+03  0.00000000000E+00 0. -1.
         21    1    1    2  504  503  0.46525695446E+02 -0.19331301438E+02 -0.74404005159E+01  0.50928372366E+02  0.00000000000E+00 0. -1.
         21    1    1    2  505  502 -0.19458601762E+03 -0.13434702706E+02  0.14810343857E+03  0.24490577373E+03  0.00000000000E+00 0. -1.
          2    1    1    2  501    0  0.11141337830E+03  0.47504389073E+02 -0.46645308841E+03  0.48192125035E+03  0.00000000000E+00 0. -1.
<scales pt_clust_3="30.24014" pt_clust_4="50.38194" pt_clust_5="153.68716" pt_clust_6="30.24014"></scales>
<clustering>
<clus scale="   30.240">  3  6 -1 -1</clus>
<clus scale="   50.382">  1  4  2 -1</clus>
<clus scale="  153.687">  1  5  2 -1</clus>
<clus scale="   50.382">  1  3  2 -1</clus>
</clustering>
</event>
<event>
 6    0  0.1849053E+002  0.1117422E+03  0.7546771E-02  0.1257377E+00
         21   -1    0    0  504  502  0.00000000000E+00  0.00000000000E+00  0.76918796270E+03  0.76918796270E+03  0.00000000000E+00 0.  1.
         -1   -1    0    0    0  501 -0.00000000000E+00 -0.00000000000E+00 -0.39043204599E+03  0.39043204599E+03  0.00000000000E+00 0.  1.
         21    1    1    2  503  502 -0.21272819700E+02 -0.50189412272E+02  0.50692635420E+03  0.50984883892E+03  0.00000000000E+00 0.  1.
         21    1    1    2  504  501  0.51032870534E+02  0.70811395055E+02 -0.55479061440E+02  0.10342404847E+03  0.00000000000E+00 0. -1.
         21    1    1    2  505  503 -0.50401186034E+02 -0.51616065575E+02  0.23016694872E+03  0.24120804725E+03  0.00000000000E+00 0.  1.
         -1    1    1    2    0  505  0.20641135200E+02  0.30994082792E+02 -0.30285832477E+03  0.30513907405E+03  0.00000000000E+00 0.  1.
<scales pt_clust_3="53.89307" pt_clust_4="14000.00000" pt_clust_5="111.74220" pt_clust_6="37.23828"></scales>
<clustering>
<clus scale="   37.238">  2  6  1 -1</clus>
<clus scale="   53.893">  1  3  2 -1</clus>
<clus scale="  111.742">  1  5  2 -1</clus>
<clus scale="   53.893">  1  3  2 -1</clus>
</clustering>
</event>
<event>
 6    0  0.1849053E+002  0.2053242E+03  0.7546771E-02  0.1145323E+00
         21   -1    0    0  504  502  0.00000000000E+00  0.00000000000E+00  0.67971316971E+03  0.67971316971E+03  0.00000000000E+00 0.  1.
         -1   -1    0    0    0  501 -0.00000000000E+00 -0.00000000000E+00 -0.77524751120E+03  0.77524751120E+03  0.00000000000E+00 0.  1.
         21    1    1    2  503  502  0.21055952075E+03 -0.51073261447E+02  0.61610251559E+03  0.65308965658E+03  0.00000000000E+00 0.  1.
         21    1    1    2  504  501 -0.13991170731E+02 -0.46094021704E+02 -0.18321071996E+03  0.18943753484E+03  0.00000000000E+00 0.  1.
         21    1    1    2  505  503 -0.12281331897E+03  0.54615406095E+02 -0.80898757783E+02  0.15687754113E+03  0.00000000000E+00 0.  1.
         -1    1    1    2    0  505 -0.73755031053E+02  0.42551877057E+02 -0.44752737933E+03  0.45555594837E+03  0.00000000000E+00 0.  1.
<scales pt_clust_3="14000.00000" pt_clust_4="48.17065" pt_clust_5="205.32419" pt_clust_6="84.78954"></scales>
<clustering>
<clus scale="   48.171">  2  4  1 -1</clus>
<clus scale="   84.790">  2  6  1 -1</clus>
<clus scale="  205.324">  2  5  1 -1</clus>
<clus scale="  205.324">  1  3  2 -1</clus>
</clustering>
</event>
<event>
 6    0  0.1849053E+002  0.1343372E+03  0.7546771E-02  0.1221158E+00
         21   -1    0    0  503  502  0.00000000000E+00  0.00000000000E+00  0.31778565583E+03  0.31778565583E+03  0.00000000000E+00 0.  1.
          1   -1    0    0  504    0 -0.00000000000E+00 -0.00000000000E+00 -0.14645710435E+03  0.14645710435E+03  0.00000000000E+00 0.  1.
         21    1    1    2  503  501 -0.54014130137E+02 -0.81864538580E+02  0.54172045682E+02  0.11204436382E+03  0.00000000000E+00 0. -1.
         21    1    1    2  504  505  0.21220885799E+02  0.73413253845E+02  0.53596869065E+02  0.93340538931E+02  0.00000000000E+00 0.  1.
         21    1    1    2  505  502  0.26012633943E+02  0.92014417409E+02  0.12321249889E+03  0.15596355349E+03  0.00000000000E+00 0.  1.
          1    1    1    2  501    0  0.67806103945E+01 -0.83563132675E+02 -0.59652862155E+02  0.10289430394E+03  0.00000000000E+00 0.  1.
<scales pt_clust_3="129.43276" pt_clust_4="32.15392" pt_clust_5="32.15392" pt_clust_6="83.83778"></scales>
<clustering>
<clus scale="   32.154">  4  5 -1 -1</clus>
<clus scale="   83.838">  2  6  1 -1</clus>
<clus scale="  129.433">  1  3  2 -1</clus>
<clus scale="  129.433">  1  3  2 -1</clus>
</clustering>
</event>
<event>
 6    0  0.1849053E+002  0.2416119E+03  0.7546771E-02  0.1118724E+00
          2   -1    0    0  502    0 -0.00000000000E+00  0.00000000000E+00  0.57338860546E+03  0.57338860546E+03  0.00000000000E+00 0.  1.
         21   -1    0    0  505  502  0.00000000000E+00 -0.00000000000E+00 -0.12763585595E+03  0.12763585595E+03  0.00000000000E+00 0.  1.
         21    1    1    2  503  501  0.49951327181E+02 -0.24519668360E+02  0.48101605772E+02  0.73553475115E+02  0.00000000000E+00 0. -1.
         21    1    1    2  504  503 -0.57163011785E+02 -0.90270897052E+01  0.18410158579E+02  0.60729170946E+02  0.00000000000E+00 0. -1.
         21    1    1    2  505  504 -0.15262153035E+03  0.10207010665E+03  0.43582271864E+02  0.18870890975E+03  0.00000000000E+00 0.  1.
          2    1    1    2  501    0  0.15983321496E+03 -0.68523348586E+02  0.33565871329E+03  0.37803290560E+03  0.00000000000E+00 0.  1.
<scales pt_clust_3="35.73876" pt_clust_4="42.42239" pt_clust_5="42.42239" pt_clust_6="238.02999"></scales>
<clustering>
<clus scale="   35.739">  3  6 -1 -1</clus>
<clus scale="   42.422">  4  5 -1 -1</clus>
<clus scale="  238.030">  1  3  2 -1</clus>
<clus scale="  241.612">  2  3  1 -1</clus>
</clustering>
</event>
<event>
 6    0  0.1849053E+002  0.8130177E+02  0.7546771E-02  0.1325397E+00
         21   -1    0    0  505  502  0.00000000000E+00  0.00000000000E+00  0.22356715503E+03  0.22356715503E+03  0.00000000000E+00 0. -1.
          1   -1    0    0  504    0 -0.00000000000E+00 -0.00000000000E+00 -0.23401378820E+04  0.23401378820E+04  0.00000000000E+00 0.  1.
         21    1    1    2  503  502 -0.43422867360E+02  0.56673555845E+01 -0.51206340305E+00  0.43794138169E+02  0.00000000000E+00 0. -1.
         21    1    1    2  504  503 -0.75973923513E+02 -0.18220355020E+02 -0.52170739894E+03  0.52752500272E+03  0.00000000000E+00 0.  1.
         21    1    1    2  505  501  0.10482888067E+03  0.47954165518E+02  0.18210090100E+03  0.21552130836E+03  0.00000000000E+00 0. -1.
          1    1    1    2  501    0  0.14567910202E+02 -0.35401166082E+02 -0.17764521657E+04  0.17768645878E+04  0.00000000000E+00 0.  1.
<scales pt_clust_3="43.06291" pt_clust_4="14000.00000" pt_clust_5="81.30177" pt_clust_6="38.28141"></scales>
<clustering>
<clus scale="   38.281">  2  6  1 -1</clus>
<clus scale="   43.063">  1  3  2 -1</clus>
<clus scale="   81.302">  1  5  2 -1</clus>
<clus scale="   43.063">  1  3  2 -1</clus>
</clustering>
</event>
<event>
 6    0  0.1849053E+002  0.1570609E+03  0.7546771E-02  0.1192056E+00
          2   -1    0    0  504    0 -0.00000000000E+00  0.00000000000E+00  0.12581541548E+04  0.12581541548E+04  0.00000000000E+00 0. -1.
         21   -1    0    0  501  502  0.00000000000E+00 -0.00000000000E+00 -0.23809064623E+03  0.23809064623E+03  0.00000000000E+00 0. -1.
         21    1    1    2  503  505  0.41750272209E+02  0.28795768270E+02 -0.79350681213E+02  0.94174370764E+02  0.00000000000E+00 0. -1.
         21    1    1    2  504  503 -0.41195579244E+01  0.42757317013E+02  0.22954761929E+03  0.23353215718E+03  0.00000000000E+00 0.  1.
         21    1    1    2  505  502  0.39693195510E+02  0.96691532319E+02 -0.12135996912E+03  0.16016567765E+03  0.00000000000E+00 0. -1.
          2    1    1    2  501    0 -0.77323909795E+02 -0.16824461760E+03  0.99122653963E+03  0.10083725954E+04  0.00000000000E+00 0. -1.
<scales pt_clust_3="31.33869" pt_clust_4="42.95531" pt_clust_5="31.33869" pt_clust_6="150.47964"></scales>
<clustering>
<clus scale="   31.339">  3  5 -1 -1</clus>
<clus scale="   42.955">  1  4  2 -1</clus>
<clus scale="  150.480">  1  6  2 -1</clus>
<clus scale="  157.061">  2  3  1 -1</clus>
</clustering>
</event>
<event>
 6    0  0.1849053E+002  0.1702171E+03  0.7546771E-02  0.1177622E+00
          2   -1    0    0  505    0 -0.00000000000E+00  0.00000000000E+00  0.31421476301E+04  0.31421476301E+04  0.00000000000E+00 0.  1.
         21   -1    0    0  504  502  0.00000000000E+00 -0.00000000000E+00 -0.12991772508E+03  0.12991772508E+03  0.00000000000E+00 0. -1.
         21    1    1    2  503  501  0.26874275433E+02 -0.39633768505E+02  0.40257809766E+03  0.40541606653E+03  0.00000000000E+00 0.  1.
         21    1    1    2  504  503  0.10367695281E+02 -0.55914727752E+02  0.23250828925E+03  0.23936175646E+03  0.00000000000E+00 0.  1.
         21    1    1    2  505  502  0.94653896087E+01  0.17083136642E+03 -0.65378551213E+02  0.18315923212E+03  0.00000000000E+00 0. -1.
          2    1    1    2  501    0 -0.46707360322E+02 -0.75282870161E+02  0.24425220693E+04  0.24441283000E+04  0.00000000000E+00 0.  1.
<scales pt_clust_3="39.86435" pt_clust_4="39.86435" pt_clust_5="164.58013" pt_clust_6="88.59508"></scales>
<clustering>
<clus scale="   39.864">  3  4 -1 -1</clus>
<clus scale="   88.595">  1  6  2 -1</clus>
<clus scale="  164.580">  2  5  1 -1</clus>
<clus scale="  164.580">  2  3  1 -1</clus>
</clustering>
</event>
<event>
 6    0  0.1849053E+002  0.9203004E+02  0.7546771E-02  0.1298009E+00
         21   -1    0    0  503  502  0.00000000000E+00  0.00000000000E+00  0.34640588694E+02  0.34640588694E+02  0.00000000000E+00 0.  1.
          1   -1    0    0  504    0 -0.00000000000E+00 -0.00000000000E+00 -0.21265113874E+04  0.21265113874E+04  0.00000000000E+00 0. -1.
         21    1    1    2  503  505 -0.49736812492E+02  0.71207085877E+02 -0.14972016194E+03  0.17309051530E+03  0.00000000000E+00 0.  1.
         21    1    1    2  504  502 -0.60151959480E+02 -0.90403658765E+02 -0.12144784290E+03  0.16291303905E+03  0.00000000000E+00 0.  1.
         21    1    1    2  505  501  0.59523527586E+02  0.24277974527E+02 -0.60787076301E+03  0.61126044769E+03  0.00000000000E+00 0. -1.
          1    1    1    2  501    0  0.50365244386E+02 -0.50814016383E+01 -0.12128320308E+04  0.12138879740E+04  0.00000000000E+00 0. -1.
<scales pt_clust_3="81.30679" pt_clust_4="14000.00000" pt_clust_5="92.03004" pt_clust_6="50.62093"></scales>
<clustering>
<clus scale="   50.621">  2  6  1 -1</clus>
<clus scale="   81.307">  1  3  2 -1</clus>
<clus scale="   92.030">  2  5  1 -1</clus>
<clus scale="   81.307">  1  3  2 -1</clus>
</clustering>
</event>
<event>
 6    0  0.1849053E+002  0.1901752E+03  0.7546771E-02  0.1158303E+00
          2   -1    0    0  503    0 -0.00000000000E+00  0.00000000000E+00  0.20662432793E+04  0.20662432793E+04  0.00000000000E+00 0. -1.
         21   -1    0    0  504  502  0.00000000000E+00 -0.00000000000E+00 -0.14277693308E+03  0.14277693308E+03  0.00000000000E+00 0. -1.
         21    1    1    2  503  502  0.35341340561E+02  0.39979674622E+02  0.28921608724E+03  0.29409748359E+03  0.00000000000E+00 0. -1.
         21    1    1    2  504  505 -0.34521863130E+02 -0.48700357663E+02 -0.15819911566E+02  0.61755594665E+02  0.00000000000E+00 0.  1.
         21    1    1    2  505  501 -0.29382582003E+01 -0.13170848147E+03 -0.54682373658E+02  0.14263912311E+03  0.00000000000E+00 0. -1.
          2    1    1    2  501    0  0.21187807692E+01  0.14042916451E+03  0.17047525442E+04  0.17105280110E+04  0.00000000000E+00 0. -1.
<scales pt_clust_3="53.36089" pt_clust_4="35.97397" pt_clust_5="35.97397" pt_clust_6="182.51186"></scales>
<clustering>
<clus scale="   35.974">  4  5 -1 -1</clus>
<clus scale="   53.361">  1  3  2 -1</clus>
<clus scale="  182.512">  1  6  2 -1</clus>
<clus scale="  190.175">  2  3  1 -1</clus>
</clustering>
</event>
<event>
 6    0  0.1849053E+002  0.1767130E+03  0.7546771E-02  0.1171023E+00
         21   -1    0    0  501  502  0.00000000000E+00  0.00000000000E+00  0.30182390991E+03  0.30182390991E+03  0.00000000000E+00 0.  1.
          2   -1    0    0  504    0 -0.00000000000E+00 -0.00000000000E+00 -0.80915459751E+03  0.80915459751E+03  0.00000000000E+00 0. -1.
         21    1    1    2  503  502 -0.97216271920E+02  0.64974931016E+02  0.21995335848E+03  0.24910284039E+03  0.00000000000E+00 0.  1.
         21    1    1    2  504  505 -0.21876397573E+00 -0.78571098727E+02 -0.73205794299E+02  0.10738972824E+03  0.00000000000E+00 0. -1.
         21    1    1    2  505  503 -0.34606279069E+02  0.35452351677E+02  0.29679690947E+02  0.57752470468E+02  0.00000000000E+00 0. -1.
          2    1    1    2  501    0  0.13204131496E+03 -0.21856183966E+02 -0.68375794272E+03  0.69673346831E+03  0.00000000000E+00 0. -1.
<scales pt_clust_3="43.08210" pt_clust_4="78.57140" pt_clust_5="43.08210" pt_clust_6="163.84989"></scales>
<clustering>
<clus scale="   43.082">  3  5 -1 -1</clus>
<clus scale="   78.571">  2  4  1 -1</clus>
<clus scale="  163.850">  2  6  1 -1</clus>
<clus scale="  176.713">  1  3  2 -1</clus>
</clustering>
</event>
<event>
 6    0  0.1849053E+002  0.1022035E+03  0.7546771E-02  0.1275729E+00
          2   -1    0    0  503    0 -0.00000000000E+00  0.00000000000E+00  0.37638914968E+04  0.37638914968E+04  0.00000000000E+00 0. -1.
         21   -1    0    0  504  502  0.00000000000E+00 -0.00000000000E+00 -0.12631318300E+02  0.12631318300E+02  0.00000000000E+00 0. -1.
         21    1    1    2  503  505  0.11892720928E+02  0.75716658090E+02  0.20214743978E+04  0.20229268870E+04  0.00000000000E+00 0. -1.
         21    1    1    2  504  501 -0.50920757844E+02 -0.65084613882E+01  0.50445354289E+03  0.50705883346E+03  0.00000000000E+00 0. -1.
         21    1    1    2  505  502  0.82861757663E+02 -0.50996515736E+02  0.22570281460E+03  0.24578135816E+03  0.00000000000E+00 0. -1.
          2    1    1    2  501    0 -0.43833720747E+02 -0.18211680966E+02  0.99962942313E+03  0.10007557364E+04  0.00000000000E+00 0. -1.
<scales pt_clust_3="76.64495" pt_clust_4="39.05624" pt_clust_5="93.78611" pt_clust_6="39.05624"></scales>
<clustering>
<clus scale="   39.056">  4  6 -1 -1</clus>
<clus scale="   76.645">  1  3  2 -1</clus>
<clus scale="   93.786">  2  5  1 -1</clus>
<clus scale="   93.786">  2  3  1 -1</clus>
</clustering>
</event>
<event>
 6    0  0.1849053E+002  0.1187581E+03  0.7546771E-02  0.1245160E+00
         21   -1    0    0  504  502  0.00000000000E+00  0.00000000000E+00  0.72138243387E+03  0.72138243387E+03  0.00000000000E+00 0.  1.
         -2   -1    0    0    0  501 -0.00000000000E+00 -0.00000000000E+00 -0.20851190449E+03  0.20851190449E+03  0.00000000000E+00 0.  1.
         21    1    1    2  503  505 -0.52732448431E+02 -0.10695104963E+03  0.80950109337E+02  0.14412549509E+03  0.00000000000E+00 0. -1.
         21    1    1    2  504  501 -0.79011165953E+02  0.70976656672E+02  0.46060524829E+03  0.47269191329E+03  0.00000000000E+00 0.  1.
         21    1    1    2  505  502  0.19139552479E+02  0.76669749156E+02  0.10642085780E+03  0.13255177056E+03  0.00000000000E+00 0.  1.
         -2    1    1    2    0  503  0.11260406190E+03 -0.40695356202E+02 -0.13510568606E+03  0.18052515941E+03  0.00000000000E+00 0.  1.
<scales pt_clust_3="104.85141" pt_clust_4="14000.00000" pt_clust_5="79.02261" pt_clust_6="118.75807"></scales>
<clustering>
<clus scale="   79.023">  1  5  2 -1</clus>
<clus scale="  104.851">  1  3  2 -1</clus>
<clus scale="  118.758">  2  6  1 -1</clus>
<clus scale="   79.023">  1  3  2 -1</clus>
</clustering>
</event>
<event>
 6    0  0.1849053E+002  0.2068661E+03  0.7546771E-02  0.1144072E+00
          2   -1    0    0  502    0 -0.00000000000E+00  0.00000000000E+00  0.10769064092E+04  0.10769064092E+04  0.00000000000E+00 0. -1.
         21   -1    0    0  505  502  0.00000000000E+00 -0.00000000000E+00 -0.33132774344E+03  0.33132774344E+03  0.00000000000E+00 0. -1.
         21    1    1    2  503  501  0.15923924881E+03  0.65724286910E+02  0.74700960350E+03  0.76661604991E+03  0.00000000000E+00 0. -1.
         21    1    1    2  504  503 -0.52900302513E+02 -0.24055541814E+02 -0.59898671966E+02  0.83456347879E+02  0.00000000000E+00 0. -1.
         21    1    1    2  505  504 -0.14442998245E+03  0.35914375083E+02 -0.22054790417E+03  0.26606623274E+03  0.00000000000E+00 0. -1.
          2    1    1    2  501    0  0.38091036152E+02 -0.77583120179E+02  0.27901563842E+03  0.29209552214E+03  0.00000000000E+00 0. -1.
<scales pt_clust_3="195.85118" pt_clust_4="41.61821" pt_clust_5="41.61821" pt_clust_6="86.42955"></scales>
<clustering>
<clus scale="   41.618">  4  5 -1 -1</clus>
<clus scale="   86.430">  1  6  2 -1</clus>
<clus scale="  195.851">  1  3  2 -1</clus>
<clus scale="  206.866">  2  3  1 -1</clus>
</clustering>
</event>
<event>
 6    0  0.1849053E+002  0.3437038E+03  0.7546771E-02  0.1065229E+00
         21   -1    0    0  504  502  0.00000000000E+00  0.00000000000E+00  0.35325577757E+03  0.35325577757E+03  0.00000000000E+00 0. -1.
          2   -1    0    0  503    0 -0.00000000000E+00 -0.00000000000E+00 -0.12037426023E+04  0.12037426023E+04  0.00000000000E+00 0. -1.
         21    1    1    2  503  505  0.41468727681E+02 -0.20648551681E+02  0.10581011400E+03  0.11550670235E+03  0.00000000000E+00 0. -1.
         21    1    1    2  504  501  0.31592146014E+03  0.10075903358E+03 -0.19120883478E+03  0.38277874853E+03  0.00000000000E+00 0. -1.
         21    1    1    2  505  502 -0.11608294048E+02 -0.31495984744E+02  0.11080765754E+03  0.11578033734E+03  0.00000000000E+00 0. -1.
          2    1    1    2  501    0 -0.34578189378E+03 -0.48614497159E+02 -0.87589576147E+03  0.94293259163E+03  0.00000000000E+00 0. -1.
<scales pt_clust_3="50.41298" pt_clust_4="343.70381" pt_clust_5="33.56709" pt_clust_6="14000.00000"></scales>
<clustering>
<clus scale="   33.567">  1  5  2 -1</clus>
<clus scale="   50.413">  1  3  2 -1</clus>
<clus scale="  343.704">  1  4  2 -1</clus>
<clus scale="   33.567">  1  3  2 -1</clus>
</clustering>
</event>
<event>
 6    0  0.1849053E+002  0.1009526E+03  0.7546771E-02  0.1278305E+00
          1   -1    0    0  504    0 -0.00000000000E+00  0.00000000000E+00  0.80114057785E+03  0.80114057785E+03  0.00000000000E+00 0.  1.
         21   -1    0    0  505  502  0.00000000000E+00 -0.00000000000E+00 -0.30870135542E+03  0.30870135542E+03  0.00000000000E+00 0. -1.
         21    1    1    2  503  502  0.47822262817E+02  0.16679001963E+02 -0.22812865970E+02  0.55548040300E+02  0.00000000000E+00 0.  1.
         21    1    1    2  504  503 -0.61866621158E+01 -0.42475018385E+02  0.15838826424E+03  0.16410132304E+03  0.00000000000E+00 0.  1.
         21    1    1    2  505  501 -0.52037500789E+02  0.86266730457E+02 -0.25556073694E+03  0.27470191214E+03  0.00000000000E+00 0. -1.
          1    1    1    2  501    0  0.10401900087E+02 -0.60470714035E+02  0.61242456110E+03  0.61549065778E+03  0.00000000000E+00 0.  1.
<scales pt_clust_3="50.14964" pt_clust_4="42.92321" pt_clust_5="100.95264" pt_clust_6="14000.00000"></scales>
<clustering>
<clus scale="   42.923">  1  4  2 -1</clus>
<clus scale="   50.150">  2  3  1 -1</clus>
<clus scale="  100.953">  2  5  1 -1</clus>
<clus scale="   50.150">  2  3  1 -1</clus>
</clustering>
</event>
<event>
 6    0  0.1849053E+002  0.1133575E+03  0.7546771E-02  0.1254476E+00
         21   -1    0    0  503  502  0.00000000000E+00  0.00000000000E+00  0.14674280888E+03  0.14674280888E+03  0.00000000000E+00 0. -1.
         -3   -1    0    0    0  501 -0.00000000000E+00 -0.00000000000E+00 -0.11397187717E+04  0.11397187717E+04  0.00000000000E+00 0. -1.
         21    1    1    2  503  504 -0.81739729651E+01 -0.46308638048E+02  0.90417378394E+02  0.10191470015E+03  0.00000000000E+00 0. -1.
         21    1    1    2  504  505  0.26500176702E+02 -0.70940075349E+02 -0.30084290994E+02  0.81485079741E+02  0.00000000000E+00 0. -1.
         21    1    1    2  505  501 -0.37657188008E+02 -0.75983055232E+02 -0.64917842096E+03  0.65469390614E+03  0.00000000000E+00 0. -1.
         -3    1    1    2    0  502  0.19330984271E+02  0.19323176863E+03 -0.40413062925E+03  0.44836789454E+03  0.00000000000E+00 0. -1.
<scales pt_clust_3="47.02450" pt_clust_4="14000.00000" pt_clust_5="87.26596" pt_clust_6="113.35750"></scales>
<clustering>
<clus scale="   47.025">  1  3  2 -1</clus>
<clus scale="   87.266">  2  5  1 -1</clus>
<clus scale="  113.358">  2  6  1 -1</clus>
<clus scale="   47.025">  1  3  2 -1</clus>
</clustering>
</event>
<event>
 6    0  0.1849053E+002  0.6760170E+02  0.7546771E-02  0.1368444E+00
          2   -1    0    0  505    0 -0.00000000000E+00  0.00000000000E+00  0.13114041193E+04  0.13114041193E+04  0.00000000000E+00 0.  1.
         21   -1    0    0  504  502  0.00000000000E+00 -0.00000000000E+00 -0.10981183351E+03  0.10981183351E+03  0.00000000000E+00 0.  1.
         21    1    1    2  503  502  0.56525456018E+02 -0.29760436561E+02 -0.81574779806E+02  0.10361107790E+03  0.00000000000E+00 0.  1.
         21    1    1    2  504  501 -0.68219135071E+02 -0.40843302571E+02  0.11280301888E+03  0.13800922731E+03  0.00000000000E+00 0.  1.
         21    1    1    2  505  503  0.33366398015E+02 -0.66315312258E+01  0.89314529741E+02  0.95573944911E+02  0.00000000000E+00 0.  1.
          2    1    1    2  501    0 -0.21672718962E+02  0.77235270358E+02  0.10810495170E+04  0.10840217027E+04  0.00000000000E+00 0.  1.
<scales pt_clust_3="64.17608" pt_clust_4="14000.00000" pt_clust_5="34.01902" pt_clust_6="67.60170"></scales>
<clustering>
<clus scale="   34.019">  1  5  2 -1</clus>
<clus scale="   64.176">  2  3  1 -1</clus>
<clus scale="   67.602">  1  6  2 -1</clus>
<clus scale="   64.176">  2  3  1 -1</clus>
</clustering>
</event>
<event>
 6    0  0.1849053E+002  0.1613714E+03  0.7546771E-02  0.1187157E+00
          2   -1    0    0  505    0 -0.00000000000E+00  0.00000000000E+00  0.34101634772E+03  0.34101634772E+03  0.00000000000E+00 0.  1.
         21   -1    0    0  504  502  0.00000000000E+00 -0.00000000000E+00 -0.14103959768E+03  0.14103959768E+03  0.00000000000E+00 0.  1.
         21    1    1    2  503  501  0.91363339005E+02 -0.34603713852E+02 -0.39803276125E+02  0.10549396910E+03  0.00000000000E+00 0.  1.
         21    1    1    2  504  503  0.71138922278E+02 -0.18569369872E+02  0.82270966264E+01  0.73981436045E+02  0.00000000000E+00 0.  1.
         21    1    1    2  505  502 -0.68289991877E+02 -0.14441837186E+02  0.45413786431E+02  0.83273655197E+02  0.00000000000E+00 0. -1.
          2    1    1    2  501    0 -0.94212269407E+02  0.67614920910E+02  0.18613914311E+03  0.21930688506E+03  0.00000000000E+00 0.  1.
<scales pt_clust_3="38.60140" pt_clust_4="38.60140" pt_clust_5="69.80036" pt_clust_6="155.11518"></scales>
<clustering>
<clus scale="   38.601">  3  4 -1 -1</clus>
<clus scale="   69.800">  1  5  2 -1</clus>
<clus scale="  155.115">  1  6  2 -1</clus>
<clus scale="  161.371">  2  3  1 -1</clus>
</clustering>
</event>
<event>
 6    0  0.1849053E+002  0.7441069E+02  0.7546771E-02  0.1345706E+00
          2   -1    0    0  504    0 -0.00000000000E+00  0.00000000000E+00  0.89902247247E+03  0.89902247247E+03  0.00000000000E+00 0.  1.
         21   -1    0    0  505  502  0.00000000000E+00 -0.00000000000E+00 -0.56045422974E+03  0.56045422974E+03  0.00000000000E+00 0.  1.
         21    1    1    2  503  502 -0.29791808023E+02 -0.66213613089E+02 -0.15576391118E+03  0.17185514368E+03  0.00000000000E+00 0. -1.
         21    1    1    2  504  503  0.21827114062E+02  0.36263713236E+02  0.12784255367E+03  0.13466699051E+03  0.00000000000E+00 0. -1.
         21    1    1    2  505  501  0.68383655110E+02  0.41277476130E+02 -0.38791315887E+03  0.39605147790E+03  0.00000000000E+00 0.  1.
          2    1    1    2  501    0 -0.60418961149E+02 -0.11327576277E+02  0.75440275912E+03  0.75690309011E+03  0.00000000000E+00 0.  1.
<scales pt_clust_3="74.41069" pt_clust_4="42.32588" pt_clust_5="14000.00000" pt_clust_6="45.93074"></scales>
<clustering>
<clus scale="   42.326">  1  4  2 -1</clus>
<clus scale="   45.931">  1  6  2 -1</clus>
<clus scale="   74.411">  1  3  2 -1</clus>
<clus scale="   74.411">  2  3  1 -1</clus>
</clustering>
</event>
<event>
 6    0  0.1849053E+002  0.1312491E+03  0.7546771E-02  0.1225614E+00
         -2   -1    0    0    0  501 -0.00000000000E+00  0.00000000000E+00  0.82145418443E+02  0.82145418443E+02  0.00000000000E+00 0. -1.
         21   -1    0    0  503  502  0.00000000000E+00 -0.00000000000E+00 -0.61250002331E+03  0.61250002331E+03  0.00000000000E+00 0.  1.
         21    1    1    2  503  504  0.28678032731E+02  0.52293242074E+02 -0.18539076044E+03  0.19474790573E+03  0.00000000000E+00 0.  1.
         21    1    1    2  504  501  0.82420912148E+02  0.49999636188E+02 -0.13112498974E+03  0.16274806700E+03  0.00000000000E+00 0.  1.
         21    1    1    2  505  502 -0.69170561684E+02 -0.64763716695E+02 -0.25195493226E+03  0.26918431138E+03  0.00000000000E+00 0.  1.
         -2    1    1    2    0  505 -0.41928383195E+02 -0.37529161567E+02  0.38116077568E+02  0.67965157650E+02  0.00000000000E+00 0. -1.
<scales pt_clust_3="54.57564" pt_clust_4="54.57564" pt_clust_5="111.40911" pt_clust_6="56.27102"></scales>
<clustering>
<clus scale="   54.576">  3  4 -1 -1</clus>
<clus scale="   56.271">  1  6  2 -1</clus>
<clus scale="  111.409">  2  5  1 -1</clus>
<clus scale="  111.409">  2  3  1 -1</clus>
</clustering>
</event>
<event>
 6    0  0.1849053E+002  0.2307120E+03  0.7546771E-02  0.1126140E+00
         21   -1    0    0  504  502  0.00000000000E+00  0.00000000000E+00  0.37764905737E+03  0.37764905737E+03  0.00000000000E+00 0.  1.
          2   -1    0    0  505    0 -0.00000000000E+00 -0.00000000000E+00 -0.18635688094E+04  0.18635688094E+04  0.00000000000E+00 0. -1.
         21    1    1    2  503  501 -0.61165246964E+02  0.67515940770E+02  0.11377259597E+03  0.14575250697E+03  0.00000000000E+00 0.  1.
         21    1    1    2  504  503 -0.39549515509E+02  0.13677097467E+03  0.21722148820E+03  0.25972223360E+03  0.00000000000E+00 0.  1.
         21    1    1    2  505  502 -0.48213100012E+01 -0.12580737979E+03 -0.71393639182E+03  0.72495235251E+03  0.00000000000E+00 0. -1.
          2    1    1    2  501    0  0.10553607247E+03 -0.78479535648E+02 -0.11029774444E+04  0.11107907737E+04  0.00000000000E+00 0. -1.
<scales pt_clust_3="43.63853" pt_clust_4="43.63853" pt_clust_5="125.89973" pt_clust_6="224.16942"></scales>
<clustering>
<clus scale="   43.639">  3  4 -1 -1</clus>
<clus scale="  125.900">  2  5  1 -1</clus>
<clus scale="  224.169">  2  6  1 -1</clus>
<clus scale="  230.712">  1  3  2 -1</clus>
</clustering>
</event>
<event>
 6    0  0.1849053E+002  0.1640206E+03  0.7546771E-02  0.1184231E+00
          1   -1    0    0  503    0 -0.00000000000E+00  0.00000000000E+00  0.15197013635E+04  0.15197013635E+04  0.00000000000E+00 0.  1.
         21   -1    0    0  505  502  0.00000000000E+00 -0.00000000000E+00 -0.50798496712E+02  0.50798496712E+02  0.00000000000E+00 0.  1.
         21    1    1    2  503  502  0.12869147059E+03 -0.74208071094E+01  0.15360124722E+03  0.20052407868E+03  0.00000000000E+00 0.  1.
         21    1    1    2  504  501  0.44687593505E+02 -0.53028021199E+02  0.20958646925E+03  0.22076104761E+03  0.00000000000E+00 0.  1.
         21    1    1    2  505  504  0.16094912234E+01  0.68654849770E+02  0.67391353521E+02  0.96216804085E+02  0.00000000000E+00 0.  1.
          1    1    1    2  501    0 -0.17498855532E+03 -0.82060214611E+01  0.10383237967E+04  0.10529979298E+04  0.00000000000E+00 0.  1.
<scales pt_clust_3="164.02057" pt_clust_4="61.83976" pt_clust_5="68.67371" pt_clust_6="14000.00000"></scales>
<clustering>
<clus scale="   68.674">  2  5  1 -1</clus>
<clus scale="   61.840">  2  4  1 -1</clus>
<clus scale="  164.021">  2  3  1 -1</clus>
<clus scale="   68.674">  2  3  1 -1</clus>
</clustering>
</event>
<event>
 6    0  0.1849053E+002  0.1792969E+03  0.7546771E-02  0.1168485E+00
          3   -1    0    0  503    0 -0.00000000000E+00  0.00000000000E+00  0.28511571831E+02  0.28511571831E+02  0.00000000000E+00 0.  1.
         21   -1    0    0  504  502  0.00000000000E+00 -0.00000000000E+00 -0.43363906897E+04  0.43363906897E+04  0.00000000000E+00 0.  1.
         21    1    1    2  503  505  0.11833214101E+03  0.10451859917E+02 -0.10787681278E+04  0.10852890908E+04  0.00000000000E+00 0.  1.
         21    1    1    2  504  501 -0.51743847789E+02  0.16498696466E+02 -0.16430853468E+03  0.17305180536E+03  0.00000000000E+00 0.  1.
         21    1    1    2  505  502  0.69568311728E+02 -0.48933135981E+02 -0.28501523852E+04  0.28514211931E+04  0.00000000000E+00 0.  1.
          3    1    1    2  501    0 -0.13615660494E+03  0.21982579598E+02 -0.21465007017E+03  0.25514017226E+03  0.00000000000E+00 0.  1.
<scales pt_clust_3="170.86844" pt_clust_4="34.09099" pt_clust_5="85.05411" pt_clust_6="34.09099"></scales>
<clustering>
<clus scale="   34.091">  4  6 -1 -1</clus>
<clus scale="   85.054">  2  5  1 -1</clus>
<clus scale="  170.868">  2  3  1 -1</clus>
<clus scale="   85.054">  2  3  1 -1</clus>
</clustering>
</event>
<event>
 6    0  0.1849053E+002  0.1032067E+03  0.7546771E-02  0.1273694E+00
         21   -1    0    0  505  502  0.00000000000E+00  0.00000000000E+00  0.75824480599E+02  0.75824480599E+02  0.00000000000E+00 0. -1.
         -4   -1    0    0    0  501 -0.00000000000E+00 -0.00000000000E+00 -0.16140359106E+04  0.16140359106E+04  0.00000000000E+00 0. -1.
         21    1    1    2  503  502 -0.13478001685E+03  0.44083836914E+02 -0.44574657657E+02  0.14864702393E+03  0.00000000000E+00 0. -1.
         21    1    1    2  504  503  0.59828953992E+02 -0.70397627315E+02 -0.24636488672E+03  0.26311781977E+03  0.00000000000E+00 0. -1.
         21    1    1    2  505  501  0.27095945528E+02 -0.40837845196E+02 -0.28817024949E+02  0.56853678783E+02  0.00000000000E+00 0. -1.
         -4    1    1    2    0  504  0.47855117330E+02  0.67151635597E+02 -0.12184548607E+04  0.12212418688E+04  0.00000000000E+00 0. -1.
<scales pt_clust_3="14000.00000" pt_clust_4="103.20667" pt_clust_5="49.00939" pt_clust_6="82.07001"></scales>
<clustering>
<clus scale="   49.009">  1  5  2 -1</clus>
<clus scale="   82.070">  2  6  1 -1</clus>
<clus scale="  103.207">  2  4  1 -1</clus>
<clus scale="   49.009">  1  3  2 -1</clus>
</clustering>
</event>
<event>
 6    0  0.1849053E+002  0.1638012E+03  0.7546771E-02  0.1184471E+00
         21   -1    0    0  503  502  0.00000000000E+00  0.00000000000E+00  0.11304347559E+03  0.11304347559E+03  0.00000000000E+00 0. -1.
         -1   -1    0    0    0  501 -0.00000000000E+00 -0.00000000000E+00 -0.66274072707E+03  0.66274072707E+03  0.00000000000E+00 0.  1.
         21    1    1    2  503  505  0.49044665276E+02  0.14114634280E+03  0.27609196211E+02  0.15195373307E+03  0.00000000000E+00 0. -1.
         21    1    1    2  504  502 -0.15443663805E+02 -0.44747956816E+02 -0.74288890634E+02  0.88089305041E+02  0.00000000000E+00 0.  1.
         21    1    1    2  505  501  0.35283443756E+02  0.16443906896E+02 -0.47430256047E+02  0.61359210115E+02  0.00000000000E+00 0.  1.
         -1    1    1    2    0  504 -0.68884445227E+02 -0.11284229288E+03 -0.45558730101E+03  0.47438195444E+03  0.00000000000E+00 0.  1.
<scales pt_clust_3="152.22223" pt_clust_4="36.19709" pt_clust_5="38.92716" pt_clust_6="36.19709"></scales>
<clustering>
<clus scale="   36.197">  4  6 -1 -1</clus>
<clus scale="   38.927">  2  5  1 -1</clus>
<clus scale="  152.222">  1  3  2 -1</clus>
<clus scale="  152.222">  1  3  2 -1</clus>
</clustering>
</event>
<event>
 6    0  0.1849053E+002  0.2554321E+03  0.7546771E-02  0.1109919E+00
          2   -1    0    0  502    0 -0.00000000000E+00  0.00000000000E+00  0.56735491928E+03  0.56735491928E+03  0.00000000000E+00 0. -1.
         21   -1    0    0  503  502  0.00000000000E+00 -0.00000000000E+00 -0.25247791970E+03  0.25247791970E+03  0.00000000000E+00 0. -1.
         21    1    1    2  503  505 -0.68611409362E+02 -0.39398881088E+02 -0.12358406516E+02  0.80078258830E+02  0.00000000000E+00 0. -1.
         21    1    1    2  504  501  0.57790668067E+02  0.29348322796E+02  0.56445190526E+02  0.85948501442E+02  0.00000000000E+00 0. -1.
         21    1    1    2  505  504 -0.16378261875E+03  0.30821028203E+02 -0.13311044503E+03  0.21329105128E+03  0.00000000000E+00 0. -1.
          2    1    1    2  501    0  0.17460336004E+03 -0.20770469911E+02  0.40390066059E+03  0.44051502742E+03  0.00000000000E+00 0. -1.
<scales pt_clust_3="71.68325" pt_clust_4="64.15306" pt_clust_5="254.76335" pt_clust_6="64.15306"></scales>
<clustering>
<clus scale="   64.153">  4  6 -1 -1</clus>
<clus scale="   71.683">  3  5 -1 -1</clus>
<clus scale="  254.763">  2  3  1 -1</clus>
<clus scale="  254.763">  2  3  1 -1</clus>
</clustering>
</event>
<event>
 6    0  0.1849053E+002  0.9524810E+02  0.7546771E-02  0.1290618E+00
         -1   -1    0    0    0  501 -0.00000000000E+00  0.00000000000E+00  0.49766788137E+03  0.49766788137E+03  0.00000000000E+00 0. -1.
         21   -1    0    0  505  502  0.00000000000E+00 -0.00000000000E+00 -0.15488517380E+03  0.15488517380E+03  0.00000000000E+00 0. -1.
         21    1    1    2  503  502 -0.75813921520E+02 -0.44348740362E+02 -0.80312800301E+02  0.11901557612E+03  0.00000000000E+00 0. -1.
         21    1    1    2  504  501 -0.58398135350E+01  0.48213174814E+02  0.46504082523E+02  0.67240191397E+02  0.00000000000E+00 0. -1.
         21    1    1    2  505  504  0.19024890765E+02 -0.38364014818E+02 -0.30755599088E+02  0.52722395401E+02  0.00000000000E+00 0. -1.
         -1    1    1    2    0  503  0.62628844290E+02  0.34499580366E+02  0.40734702444E+03  0.41357489225E+03  0.00000000000E+00 0. -1.
<scales pt_clust_3="95.24810" pt_clust_4="44.88505" pt_clust_5="42.82224" pt_clust_6="14000.00000"></scales>
<clustering>
<clus scale="   42.822">  2  5  1 -1</clus>
<clus scale="   44.885">  1  4  2 -1</clus>
<clus scale="   95.248">  2  3  1 -1</clus>
<clus scale="   42.822">  2  3  1 -1</clus>
</clustering>
</event>
<event>
 6    0  0.1849053E+002  0.1157101E+03  0.7546771E-02  0.1250347E+00
          2   -1    0    0  505    0 -0.00000000000E+00  0.00000000000E+00  0.10163422446E+04  0.10163422446E+04  0.00000000000E+00 0. -1.
         21   -1    0    0  501  502  0.00000000000E+00 -0.00000000000E+00 -0.45627259992E+02  0.45627259992E+02  0.00000000000E+00 0. -1.
         21    1    1    2  503  502 -0.11265252316E+02  0.38777266346E+02  0.37019401211E+02  0.54781551284E+02  0.00000000000E+00 0.  1.
         21    1    1    2  504  503 -0.11292229649E+03  0.17992013152E+02  0.12299327835E+03  0.16793601192E+03  0.00000000000E+00 0. -1.
         21    1    1    2  505  504  0.62563459249E+02  0.54173370254E+02  0.43186018756E+03  0.43971827580E+03  0.00000000000E+00 0. -1.
          2    1    1    2  501    0  0.61624089555E+02 -0.11094264975E+03  0.37884211748E+03  0.39953366557E+03  0.00000000000E+00 0. -1.
<scales pt_clust_3="40.38047" pt_clust_4="115.71006" pt_clust_5="84.65278" pt_clust_6="14000.00000"></scales>
<clustering>
<clus scale="   40.380">  2  3  1 -1</clus>
<clus scale="   84.653">  1  5  2 -1</clus>
<clus scale="  115.710">  2  4  1 -1</clus>
<clus scale="   40.380">  2  3  1 -1</clus>
</clustering>
</event>
<event>
 6    0  0.1849053E+002  0.1832301E+03  0.7546771E-02  0.1164713E+00
          2   -1    0    0  503    0 -0.00000000000E+00  0.00000000000E+00  0.17434468164E+04  0.17434468164E+04  0.00000000000E+00 0.  1.
         21   -1    0    0  504  502  0.00000000000E+00 -0.00000000000E+00 -0.29142612981E+03  0.29142612981E+03  0.00000000000E+00 0.  1.
         21    1    1    2  503  502 -0.44817365261E+02 -0.78799214152E+02  0.27123881400E+03  0.28598672451E+03  0.00000000000E+00 0.  1.
         21    1    1    2  504  505  0.11329522575E+03  0.79994034795E+02 -0.23394398816E+03  0.27196441565E+03  0.00000000000E+00 0.  1.
         21    1    1    2  505  501  0.18110615271E+02  0.31647303511E+02 -0.18375477218E+02  0.40831413985E+02  0.00000000000E+00 0.  1.
          2    1    1    2  501    0 -0.86588475758E+02 -0.32842124154E+02  0.14331013380E+04  0.14360903921E+04  0.00000000000E+00 0.  1.
<scales pt_clust_3="90.65270" pt_clust_4="34.18468" pt_clust_5="34.18468" pt_clust_6="170.67058"></scales>
<clustering>
<clus scale="   34.185">  4  5 -1 -1</clus>
<clus scale="   90.653">  1  3  2 -1</clus>
<clus scale="  170.671">  1  6  2 -1</clus>
<clus scale="  183.230">  2  3  1 -1</clus>
</clustering>
</event>
<event>
 6    0  0.1849053E+002  0.2657696E+03  0.7546771E-02  0.1103725E+00
         21   -1    0    0  504  502  0.00000000000E+00  0.00000000000E+00  0.13965684363E+03  0.13965684363E+03  0.00000000000E+00 0.  1.
          2   -1    0    0  503    0 -0.00000000000E+00 -0.00000000000E+00 -0.10805319458E+04  0.10805319458E+04  0.00000000000E+00 0.  1.
         21    1    1    2  503  502 -0.14365646653E+03 -0.48610652876E+02 -0.23631795754E+03  0.28079592769E+03  0.00000000000E+00 0.  1.
         21    1    1    2  504  505  0.33469393002E+02 -0.15287099370E+03 -0.71459430591E+02  0.17203543589E+03  0.00000000000E+00 0.  1.
         21    1    1    2  505  501  0.10768944712E+03 -0.42331407481E+02 -0.34092667990E+02  0.12062866612E+03  0.00000000000E+00 0.  1.
          2    1    1    2  501    0  0.24976264095E+01  0.24381305406E+03 -0.59900504608E+03  0.64672875975E+03  0.00000000000E+00 0.  1.
<scales pt_clust_3="151.65809" pt_clust_4="110.39149" pt_clust_5="110.39149" pt_clust_6="232.70639"></scales>
<clustering>
<clus scale="  110.391">  4  5 -1 -1</clus>
<clus scale="  151.658">  2  3  1 -1</clus>
<clus scale="  232.706">  2  6  1 -1</clus>
<clus scale="  265.770">  1  3  2 -1</clus>
</clustering>
</event>
<event>
 6    0  0.1849053E+002  0.2596093E+03  0.7546771E-02  0.1107378E+00
          1   -1    0    0  504    0 -0.00000000000E+00  0.00000000000E+00  0.15009962393E+04  0.15009962393E+04  0.00000000000E+00 0.  1.
         21   -1    0    0  501  502  0.00000000000E+00 -0.00000000000E+00 -0.15167652639E+03  0.15167652639E+03  0.00000000000E+00 0.  1.
         21    1    1    2  503  505 -0.12233392765E+03 -0.18865294831E+03 -0.32688440970E+01  0.22486931783E+03  0.00000000000E+00 0.  1.
         21    1    1    2  504  503  0.34979204898E+02 -0.22126298633E+01  0.29848730947E+03  0.30053804155E+03  0.00000000000E+00 0. -1.
         21    1    1    2  505  502 -0.34904660543E+02 -0.59167956757E+01 -0.11147424517E+02  0.37116153788E+02  0.00000000000E+00 0.  1.
          1    1    1    2  501    0  0.12225938329E+03  0.19678237385E+03  0.10652486721E+04  0.10901492525E+04  0.00000000000E+00 0.  1.
<scales pt_clust_3="30.34236" pt_clust_4="35.04912" pt_clust_5="30.34236" pt_clust_6="248.09232"></scales>
<clustering>
<clus scale="   30.342">  3  5 -1 -1</clus>
<clus scale="   35.049">  1  4  2 -1</clus>
<clus scale="  248.092">  1  6  2 -1</clus>
<clus scale="  259.609">  2  3  1 -1</clus>
</clustering>
</event>
<event>
 6    0  0.1849053E+002  0.2269421E+03  0.7546771E-02  0.1128811E+00
         21   -1    0    0  505  502  0.00000000000E+00  0.00000000000E+00  0.33127281627E+03  0.33127281627E+03  0.00000000000E+00 0.  1.
          1   -1    0    0  503    0 -0.00000000000E+00 -0.00000000000E+00 -0.59458664572E+03  0.59458664572E+03  0.00000000000E+00 0. -1.
         21    1    1    2  503  502 -0.29912688011E+02 -0.55836011842E+01  0.12312580722E+03  0.12683024051E+03  0.00000000000E+00 0.  1.
         21    1    1    2  504  501 -0.49400920551E+02 -0.12106264117E+01 -0.53108248513E+02  0.72542419506E+02  0.00000000000E+00 0. -1.
         21    1    1    2  505  504  0.21451098763E+03 -0.83686468247E+02  0.10931812160E+03  0.25488985953E+03  0.00000000000E+00 0.  1.
          1    1    1    2  501    0 -0.13519737907E+03  0.90480695843E+02 -0.44264950976E+03  0.47159694244E+03  0.00000000000E+00 0. -1.
<scales pt_clust_3="30.42935" pt_clust_4="50.58406" pt_clust_5="207.93395" pt_clust_6="50.58406"></scales>
<clustering>
<clus scale="   30.429">  1  3  2 -1</clus>
<clus scale="   50.584">  4  6 -1 -1</clus>
<clus scale="  207.934">  1  5  2 -1</clus>
<clus scale="   30.429">  1  3  2 -1</clus>
</clustering>
</event>
<event>
 6    0  0.1849053E+002  0.2459826E+03  0.7546771E-02  0.1115870E+00
          2   -1    0    0  505    0 -0.00000000000E+00  0.00000000000E+00  0.12811506940E+04  0.12811506940E+04  0.00000000000E+00 0. -1.
         21   -1    0    0  503  502  0.00000000000E+00 -0.00000000000E+00 -0.10685594012E+04  0.10685594012E+04  0.00000000000E+00 0. -1.
         21    1    1    2  503  504 -0.60729660757E+02 -0.31531326280E+02 -0.43120503191E+03  0.43660061358E+03  0.00000000000E+00 0. -1.
         21    1    1    2  504  501 -0.10394604965E+03 -0.13483061786E+03 -0.60565641494E+03  0.62912937438E+03  0.00000000000E+00 0. -1.
         21    1    1    2  505  502  0.18257531646E+02  0.31575258870E+02  0.26862294361E+02  0.45298093700E+02  0.00000000000E+00 0.  1.
          2    1    1    2  501    0  0.14641817876E+03  0.13478668527E+03  0.12225904454E+04  0.12386820136E+04  0.00000000000E+00 0. -1.
<scales pt_clust_3="48.73998" pt_clust_4="48.73998" pt_clust_5="36.47375" pt_clust_6="233.67297"></scales>
<clustering>
<clus scale="   36.474">  1  5  2 -1</clus>
<clus scale="   48.740">  3  4 -1 -1</clus>
<clus scale="  233.673">  1  6  2 -1</clus>
<clus scale="  245.983">  2  3  1 -1</clus>
</clustering>
</event>
<event>
 6    0  0.1849053E+002  0.1817214E+03  0.7546771E-02  0.1166147E+00
          1   -1    0    0  504    0 -0.00000000000E+00  0.00000000000E+00  0.17210459712E+04  0.17210459712E+04  0.00000000000E+00 0.  1.
         21   -1    0    0  505  502  0.00000000000E+00 -0.00000000000E+00 -0.85844891817E+02  0.85844891817E+02  0.00000000000E+00 0. -1.
         21    1    1    2  503  502 -0.15036475133E+02  0.90686626671E+02  0.63750733869E+02  0.11186740325E+03  0.00000000000E+00 0. -1.
         21    1    1    2  504  503 -0.75451084674E+02  0.67121787694E+02 -0.10740208862E+02  0.10155566281E+03  0.00000000000E+00 0. -1.
         21    1    1    2  505  501  0.44315028364E+02 -0.98623587559E+02  0.72800838412E+03  0.73599364203E+03  0.00000000000E+00 0.  1.
          1    1    1    2  501    0  0.46172531443E+02 -0.59184826806E+02  0.85418217026E+03  0.85747415493E+03  0.00000000000E+00 0.  1.
<scales pt_clust_3="91.92475" pt_clust_4="174.07319" pt_clust_5="43.46495" pt_clust_6="43.46495"></scales>
<clustering>
<clus scale="   43.465">  5  6 -1 -1</clus>
<clus scale="   91.925">  2  3  1 -1</clus>
<clus scale="  174.073">  2  4  1 -1</clus>
<clus scale="   91.925">  2  3  1 -1</clus>
</clustering>
</event>
<event>
 6    0  0.1849053E+002  0.2511605E+03  0.7546771E-02  0.1112574E+00
          2   -1    0    0  502    0 -0.00000000000E+00  0.00000000000E+00  0.20421738881E+04  0.20421738881E+04  0.00000000000E+00 0.  1.
         21   -1    0    0  505  502  0.00000000000E+00 -0.00000000000E+00 -0.14758469781E+03  0.14758469781E+03  0.00000000000E+00 0.  1.
         21    1    1    2  503  501  0.10135847839E+03  0.20855256277E+03  0.33054064130E+03  0.40376333183E+03  0.00000000000E+00 0.  1.
         21    1    1    2  504  503 -0.19084611768E+02  0.45408590274E+02 -0.54506652296E+02  0.73465213683E+02  0.00000000000E+00 0.  1.
         21    1    1    2  505  504 -0.36811210572E+02  0.41314173591E+00 -0.27729603479E+02  0.46088684284E+02  0.00000000000E+00 0. -1.
          2    1    1    2  501    0 -0.45462656048E+02 -0.25437429478E+03  0.16462848048E+04  0.16664413561E+04  0.00000000000E+00 0.  1.
<scales pt_clust_3="251.16051" pt_clust_4="60.93566" pt_clust_5="36.81353" pt_clust_6="14000.00000"></scales>
<clustering>
<clus scale="   36.814">  2  5  1 -1</clus>
<clus scale="   60.936">  2  4  1 -1</clus>
<clus scale="  251.161">  2  3  1 -1</clus>
<clus scale="   36.814">  2  3  1 -1</clus>
</clustering>
</event>
<event>
 6    0  0.1849053E+002  0.1430101E+03  0.7546771E-02  0.1209335E+00
         21   -1    0    0  501  502  0.00000000000E+00  0.00000000000E+00  0.83135376401E+02  0.83135376401E+02  0.00000000000E+00 0.  1.
          1   -1    0    0  503    0 -0.00000000000E+00 -0.00000000000E+00 -0.79787535288E+03  0.79787535288E+03  0.00000000000E+00 0. -1.
         21    1    1    2  503  505 -0.14938188729E+02 -0.75429346208E+02 -0.33807930839E+03  0.34671364916E+03  0.00000000000E+00 0. -1.
         21    1    1    2  504  502  0.23242778721E+02 -0.67698930761E+02 -0.97719731113E+01  0.72241701581E+02  0.00000000000E+00 0.  1.
         21    1    1    2  505  504  0.52157579888E+02 -0.33839776382E+02 -0.15618104796E+02  0.64105138661E+02  0.00000000000E+00 0.  1.
          1    1    1    2  501    0 -0.60462169881E+02  0.17696805335E+03 -0.35127059018E+03  0.39795023988E+03  0.00000000000E+00 0. -1.
<scales pt_clust_3="76.89432" pt_clust_4="41.16088" pt_clust_5="41.16088" pt_clust_6="136.01986"></scales>
<clustering>
<clus scale="   41.161">  4  5 -1 -1</clus>
<clus scale="   76.894">  2  3  1 -1</clus>
<clus scale="  136.020">  2  6  1 -1</clus>
<clus scale="  143.010">  1  3  2 -1</clus>
</clustering>
</event>
<event>
 6    0  0.1849053E+002  0.1643410E+03  0.7546771E-02  0.1183881E+00
         21   -1    0    0  504  502  0.00000000000E+00  0.00000000000E+00  0.27561169979E+03  0.27561169979E+03  0.00000000000E+00 0. -1.
          2   -1    0    0  505    0 -0.00000000000E+00 -0.00000000000E+00 -0.10940565402E+04  0.10940565402E+04  0.00000000000E+00 0. -1.
         21    1    1    2  503  501  0.18494536403E+02 -0.37867538745E+02 -0.41956162050E+03  0.42167280178E+03  0.00000000000E+00 0. -1.
         21    1    1    2  504  503 -0.94679995639E+02  0.89668452283E+02  0.22746692253E+03  0.26219445790E+03  0.00000000000E+00 0. -1.
         21    1    1    2  505  502 -0.31710437054E+02 -0.60625232579E+01  0.13728736466E+02  0.35082534278E+02  0.00000000000E+00 0.  1.
          2    1    1    2  501    0  0.10789589629E+03 -0.45738390281E+02 -0.64007887888E+03  0.65071844601E+03  0.00000000000E+00 0. -1.
<scales pt_clust_3="39.03636" pt_clust_4="150.95515" pt_clust_5="32.28476" pt_clust_6="39.03636"></scales>
<clustering>
<clus scale="   32.285">  1  5  2 -1</clus>
<clus scale="   39.036">  3  6 -1 -1</clus>
<clus scale="  150.955">  1  4  2 -1</clus>
<clus scale="   32.285">  1  3  2 -1</clus>
</clustering>
</event>
<event>
 6    0  0.1849053E+002  0.2039134E+03  0.7546771E-02  0.1146479E+00
         21   -1    0    0  503  502  0.00000000000E+00  0.00000000000E+00  0.18536243796E+04  0.18536243796E+04  0.00000000000E+00 0. -1.
         -4   -1    0    0    0  501 -0.00000000000E+00 -0.00000000000E+00 -0.46424666643E+02  0.46424666643E+02  0.00000000000E+00 0. -1.
         21    1    1    2  503  504  0.44071887239E+02 -0.11673009702E+03  0.79986151592E+03  0.80953486117E+03  0.00000000000E+00 0. -1.
         21    1    1    2  504  501  0.59094710311E+02 -0.56873182905E+02  0.64234123593E+03  0.64755618065E+03  0.00000000000E+00 0. -1.
         21    1    1    2  505  502  0.22370270241E+02  0.20976578622E+02  0.14077671696E+03  0.14407820751E+03  0.00000000000E+00 0. -1.
         -4    1    1    2    0  505 -0.12553686779E+03  0.15262670130E+03  0.22422024418E+03  0.29887979695E+03  0.00000000000E+00 0. -1.
<scales pt_clust_3="40.70801" pt_clust_4="40.70801" pt_clust_5="30.66669" pt_clust_6="197.98134"></scales>
<clustering>
<clus scale="   30.667">  1  5  2 -1</clus>
<clus scale="   40.708">  3  4 -1 -1</clus>
<clus scale="  197.981">  2  6  1 -1</clus>
<clus scale="   30.667">  1  3  2 -1</clus>
</clustering>
</event>
<event>
 6    0  0.1849053E+002  0.2147887E+03  0.7546771E-02  0.1137829E+00
         21   -1    0    0  504  502  0.00000000000E+00  0.00000000000E+00  0.25608643947E+02  0.25608643947E+02  0.00000000000E+00 0. -1.
          2   -1    0    0  505    0 -0.00000000000E+00 -0.00000000000E+00 -0.24596455749E+04  0.24596455749E+04  0.00000000000E+00 0. -1.
         21    1    1    2  503  501  0.30842424497E+01 -0.14663724062E+03 -0.78898952322E+03  0.80250636175E+03  0.00000000000E+00 0. -1.
         21    1    1    2  504  503  0.14004622321E+02  0.45341974400E+02 -0.82190852873E+02  0.94907114511E+02  0.00000000000E+00 0. -1.
         21    1    1    2  505  502  0.16514080116E+02  0.18681615807E+03 -0.97967420560E+03  0.99746405493E+03  0.00000000000E+00 0. -1.
          2    1    1    2  501    0 -0.33602944887E+02 -0.85520891854E+02 -0.58318234929E+03  0.59037668769E+03  0.00000000000E+00 0. -1.
<scales pt_clust_3="39.08747" pt_clust_4="47.45550" pt_clust_5="209.03449" pt_clust_6="39.08747"></scales>
<clustering>
<clus scale="   39.087">  3  6 -1 -1</clus>
<clus scale="   47.455">  1  4  2 -1</clus>
<clus scale="  209.034">  2  5  1 -1</clus>
<clus scale="   47.455">  1  3  2 -1</clus>
</clustering>
</event>
<event>
 6    0  0.1849053E+002  0.1192519E+03  0.7546771E-02  0.1244336E+00
         21   -1    0    0  501  502  0.00000000000E+00  0.00000000000E+00  0.37988877689E+03  0.37988877689E+03  0.00000000000E+00 0. -1.
          1   -1    0    0  504    0 -0.00000000000E+00 -0.00000000000E+00 -0.41225969399E+03  0.41225969399E+03  0.00000000000E+00 0. -1.
         21    1    1    2  503  502 -0.34522040489E+02  0.50019108082E+02  0.22341098631E+03  0.23153002236E+03  0.00000000000E+00 0. -1.
         21    1    1    2  504  505  0.35984496207E+02  0.37114636227E+02 -0.31497797774E+03  0.31919195894E+03  0.00000000000E+00 0. -1.
         21    1    1    2  505  503 -0.48592429299E+02  0.21966243222E+02  0.10200794970E+03  0.11510587226E+03  0.00000000000E+00 0. -1.
          1    1    1    2  501    0  0.47129973581E+02 -0.10909998753E+03 -0.42811875358E+02  0.12632061732E+03  0.00000000000E+00 0. -1.
<scales pt_clust_3="43.62573" pt_clust_4="51.69507" pt_clust_5="43.62573" pt_clust_6="109.78145"></scales>
<clustering>
<clus scale="   43.626">  3  5 -1 -1</clus>
<clus scale="   51.695">  2  4  1 -1</clus>
<clus scale="  109.781">  2  6  1 -1</clus>
<clus scale="  119.252">  1  3  2 -1</clus>
</clustering>
</event>
<event>
 6    0  0.1849053E+002  0.1412096E+03  0.7546771E-02  0.1211711E+00
         -1   -1    0    0    0  501 -0.00000000000E+00  0.00000000000E+00  0.58871953066E+03  0.58871953066E+03  0.00000000000E+00 0. -1.
         21   -1    0    0  505  502  0.00000000000E+00 -0.00000000000E+00 -0.15037410187E+03  0.15037410187E+03  0.00000000000E+00 0. -1.
         21    1    1    2  503  502  0.39779834477E+02 -0.97093122625E+02 -0.11065563921E+03  0.15249321356E+03  0.00000000000E+00 0. -1.
         21    1    1    2  504  503 -0.48398390253E+02  0.25014522408E+02  0.14867560038E+03  0.15834318634E+03  0.00000000000E+00 0.  1.
         21    1    1    2  505  501  0.28932807299E+02 -0.93985369457E+01  0.15055980068E+02  0.33942928140E+02  0.00000000000E+00 0. -1.
         -1    1    1    2    0  504 -0.20314251523E+02  0.81477137163E+02  0.38526948755E+03  0.39431430449E+03  0.00000000000E+00 0. -1.
<scales pt_clust_3="125.17635" pt_clust_4="52.30115" pt_clust_5="30.42104" pt_clust_6="52.30115"></scales>
<clustering>
<clus scale="   30.421">  2  5  1 -1</clus>
<clus scale="   52.301">  4  6 -1 -1</clus>
<clus scale="  125.176">  2  3  1 -1</clus>
<clus scale="   30.421">  2  3  1 -1</clus>
</clustering>
</event>
<event>
 6    0  0.1849053E+002  0.1350248E+03  0.7546771E-02  0.1220185E+00
         21   -1    0    0  501  502  0.00000000000E+00  0.00000000000E+00  0.19594034555E+03  0.19594034555E+03  0.00000000000E+00 0.  1.
          1   -1    0    0  504    0 -0.00000000000E+00 -0.00000000000E+00 -0.80260899899E+03  0.80260899899E+03  0.00000000000E+00 0. -1.
         21    1    1    2  503  505  0.69137066661E+02 -0.94376280691E+01  0.84526579809E+02  0.10960723290E+03  0.00000000000E+00 0.  1.
         21    1    1    2  504  503 -0.43353564790E+02 -0.47790012517E+02 -0.18744499382E+03  0.19823986124E+03  0.00000000000E+00 0. -1.
         21    1    1    2  505  502  0.44892027555E+02  0.50113821188E+02  0.78926638616E+02  0.10371163626E+03  0.00000000000E+00 0.  1.
          1    1    1    2  501    0 -0.70675529426E+02  0.71138193976E+01 -0.58267687805E+03  0.58699061415E+03  0.00000000000E+00 0. -1.
<scales pt_clust_3="63.11058" pt_clust_4="64.52454" pt_clust_5="63.11058" pt_clust_6="118.74722"></scales>
<clustering>
<clus scale="   63.111">  3  5 -1 -1</clus>
<clus scale="   64.525">  2  4  1 -1</clus>
<clus scale="  118.747">  2  6  1 -1</clus>
<clus scale="  135.025">  1  3  2 -1</clus>
</clustering>
</event>
<event>
 6    0  0.1849053E+002  0.9354380E+02  0.7546771E-02  0.1294490E+00
         21   -1    0    0  503  502  0.00000000000E+00  0.00000000000E+00  0.17532279314E+03  0.17532279314E+03  0.00000000000E+00 0. -1.
          3   -1    0    0  504    0 -0.00000000000E+00 -0.00000000000E+00 -0.28713385495E+03  0.28713385495E+03  0.00000000000E+00 0. -1.
         21    1    1    2  503  501 -0.10209540617E+03 -0.77444103415E+01  0.53470457752E+02  0.11550990306E+03  0.00000000000E+00 0. -1.
         21    1    1    2  504  505  0.50551716654E+02 -0.25080278600E+02 -0.35698110010E+02  0.66774632081E+02  0.00000000000E+00 0. -1.
         21    1    1    2  505  502  0.85676173962E+02  0.10448694409E+02  0.47450692917E+02  0.98494417394E+02  0.00000000000E+00 0.  1.
          3    1    1    2  501    0 -0.34132484444E+02  0.22375994533E+02 -0.17703410246E+03  0.18167769555E+03  0.00000000000E+00 0. -1.
<scales pt_clust_3="14000.00000" pt_clust_4="37.24033" pt_clust_5="93.54380" pt_clust_6="40.81313"></scales>
<clustering>
<clus scale="   40.813">  2  6  1 -1</clus>
<clus scale="   37.240">  2  4  1 -1</clus>
<clus scale="   93.544">  1  5  2 -1</clus>
<clus scale="   93.544">  1  3  2 -1</clus>
</clustering>
</event>
<event>
 6    0  0.1849053E+002  0.7461942E+02  0.7546771E-02  0.1345054E+00
         -4   -1    0    0    0  501 -0.00000000000E+00  0.00000000000E+00  0.12590306496E+03  0.12590306496E+03  0.00000000000E+00 0.  1.
         21   -1    0    0  504  502  0.00000000000E+00 -0.00000000000E+00 -0.13298026053E+03  0.13298026053E+03  0.00000000000E+00 0.  1.
         21    1    1    2  503  505  0.53217372709E+02 -0.13056771537E+02  0.16728921414E+02  0.57292450224E+02  0.00000000000E+00 0.  1.
         21    1    1    2  504  503  0.36611247066E+02  0.51395757963E+02 -0.61504056686E+01  0.63401378835E+02  0.00000000000E+00 0.  1.
         21    1    1    2  505  501 -0.34753725321E+02  0.30666401363E+02  0.61288478422E+01  0.46752672353E+02  0.00000000000E+00 0. -1.
         -4    1    1    2    0  502 -0.55074894454E+02 -0.69005387790E+02 -0.23784559154E+02  0.91436824077E+02  0.00000000000E+00 0.  1.
<scales pt_clust_3="40.31884" pt_clust_4="74.61942" pt_clust_5="46.34921" pt_clust_6="14000.00000"></scales>
<clustering>
<clus scale="   46.349">  1  5  2 -1</clus>
<clus scale="   40.319">  1  3  2 -1</clus>
<clus scale="   74.619">  2  4  1 -1</clus>
<clus scale="   74.619">  2  3  1 -1</clus>
</clustering>
</event>
<event>
 6    0  0.3375187E+002  0.1341732E+03  0.7546771E-02  0.1221392E+00
         21   -1    0    0  505  502  0.00000000000E+00  0.00000000000E+00  0.95526962844E+03  0.95526962844E+03  0.00000000000E+00 0.  1.
          1   -1    0    0  504    0 -0.00000000000E+00 -0.00000000000E+00 -0.70706952340E+03  0.70706952340E+03  0.00000000000E+00 0.  1.
         21    1    1    2  503  502  0.21569773554E+02  0.49697642969E+02 -0.56704337371E+01  0.54472604735E+02  0.00000000000E+00 0.  1.
         21    1    1    2  504  503  0.23124325234E+02 -0.25925137645E+02 -0.13928903418E+02  0.37428084774E+02  0.00000000000E+00 0.  1.
         21    1    1    2  505  501  0.15226981901E+02  0.13308692968E+03  0.90327446676E+03  0.91315319314E+03  0.00000000000E+00 0.  1.
          1    1    1    2  501    0 -0.59921080689E+02 -0.15685943500E+03 -0.63547502456E+03  0.65728526920E+03  0.00000000000E+00 0.  1.
<scales pt_clust_3="53.55151" pt_clust_4="34.73971" pt_clust_5="14000.00000" pt_clust_6="134.17320"></scales>
<clustering>
<clus scale="   34.740">  2  4  1 -1</clus>
<clus scale="   53.552">  2  3  1 -1</clus>
<clus scale="  134.173">  2  6  1 -1</clus>
<clus scale="  134.173">  1  3  2 -1</clus>
</clustering>
</event>
<event>
 6    0  0.1849053E+002  0.2475354E+03  0.7546771E-02  0.1114872E+00
         21   -1    0    0  503  502  0.00000000000E+00  0.00000000000E+00  0.33205703491E+03  0.33205703491E+03  0.00000000000E+00 0.  1.
         -1   -1    0    0    0  501 -0.00000000000E+00 -0.00000000000E+00 -0.21403657689E+04  0.21403657689E+04  0.00000000000E+00 0.  1.
         21    1    1    2  503  501 -0.92549279055E+02  0.99751664928E+01  0.17686325869E+02  0.94750615422E+02  0.00000000000E+00 0.  1.
         21    1    1    2  504  505  0.15080395851E+03 -0.31998535671E+01 -0.11020586534E+04  0.11123332902E+04  0.00000000000E+00 0.  1.
         21    1    1    2  505  502 -0.15420347981E+03 -0.16250497763E+00  0.24616840633E+03  0.29047826747E+03  0.00000000000E+00 0.  1.
         -1    1    1    2    0  504  0.95948800364E+02 -0.66128079481E+01 -0.97010481281E+03  0.97486063074E+03  0.00000000000E+00 0.  1.
<scales pt_clust_3="93.08530" pt_clust_4="31.27277" pt_clust_5="244.41754" pt_clust_6="31.27277"></scales>
<clustering>
<clus scale="   31.273">  4  6 -1 -1</clus>
<clus scale="   93.085">  1  3  2 -1</clus>
<clus scale="  244.418">  1  5  2 -1</clus>
<clus scale="   93.085">  1  3  2 -1</clus>
</clustering>
</event>
<event>
 6    0  0.1849053E+002  0.1236627E+03  0.7546771E-02  0.1237174E+00
         21   -1    0    0  504  502  0.00000000000E+00  0.00000000000E+00  0.14106267685E+02  0.14106267685E+02  0.00000000000E+00 0.  1.
         -2   -1    0    0    0  501 -0.00000000000E+00 -0.00000000000E+00 -0.50779703648E+04  0.50779703648E+04  0.00000000000E+00 0.  1.
         21    1    1    2  503  501  0.36732751813E+02  0.74233623083E+02 -0.16001288360E+04  0.16022709564E+04  0.00000000000E+00 0. -1.
         21    1    1    2  504  503  0.67294545541E+02  0.77022138945E+02 -0.24777682627E+03  0.26805656377E+03  0.00000000000E+00 0.  1.
         21    1    1    2  505  502 -0.54084485962E+02 -0.10784094195E+03 -0.16566002395E+04  0.16609874033E+04  0.00000000000E+00 0.  1.
         -2    1    1    2    0  505 -0.49942811392E+02 -0.43414820077E+02 -0.15593581953E+04  0.15607617090E+04  0.00000000000E+00 0.  1.
<scales pt_clust_3="82.82467" pt_clust_4="108.23014" pt_clust_5="44.30557" pt_clust_6="44.30557"></scales>
<clustering>
<clus scale="   44.306">  5  6 -1 -1</clus>
<clus scale="   82.825">  2  3  1 -1</clus>
<clus scale="  108.230">  1  4  2 -1</clus>
<clus scale="  108.230">  1  3  2 -1</clus>
</clustering>
</event>
<event>
 6    0  0.1849053E+002  0.1689694E+03  0.7546771E-02  0.1178927E+00
          2   -1    0    0  505    0 -0.00000000000E+00  0.00000000000E+00  0.44090142190E+03  0.44090142190E+03  0.00000000000E+00 0. -1.
         21   -1    0    0  503  502  0.00000000000E+00 -0.00000000000E+00 -0.84633331869E+02  0.84633331869E+02  0.00000000000E+00 0. -1.
         21    1    1    2  503  504  0.88834244241E+02  0.32842178729E+02  0.42600347247E+02  0.10385047539E+03  0.00000000000E+00 0. -1.
         21    1    1    2  504  501  0.81183845280E+02 -0.90682587192E+01  0.91103855084E+02  0.12236405707E+03  0.00000000000E+00 0. -1.
         21    1    1    2  505  502 -0.27691225950E+02  0.26110298219E+02  0.11213322894E+02  0.39677327002E+02  0.00000000000E+00 0. -1.
          2    1    1    2  501    0 -0.14232686357E+03 -0.49884218229E+02  0.21135056481E+03  0.25964289431E+03  0.00000000000E+00 0. -1.
<scales pt_clust_3="56.94153" pt_clust_4="56.94153" pt_clust_5="38.05984" pt_clust_6="157.24445"></scales>
<clustering>
<clus scale="   38.060">  2  5  1 -1</clus>
<clus scale="   56.942">  3  4 -1 -1</clus>
<clus scale="  157.244">  1  6  2 -1</clus>
<clus scale="   38.060">  2  3  1 -1</clus>
</clustering>
</event>
<event>
 6    0  0.1849053E+002  0.8810596E+02  0.7546771E-02  0.1307504E+00
         -4   -1    0    0    0  501 -0.00000000000E+00  0.00000000000E+00  0.24485123726E+03  0.24485123726E+03  0.00000000000E+00 0.  1.
         21   -1    0    0  505  502  0.00000000000E+00 -0.00000000000E+00 -0.32607480830E+03  0.32607480830E+03  0.00000000000E+00 0. -1.
         21    1    1    2  503  501  0.37282279509E+02  0.11884527943E+02 -0.14567745005E+03  0.15084140619E+03  0.00000000000E+00 0. -1.
         21    1    1    2  504  502 -0.10473873004E+03 -0.25882175449E+02  0.61679528846E+02  0.12427571305E+03  0.00000000000E+00 0. -1.
         21    1    1    2  505  503  0.17977439819E+02  0.43908920621E+02 -0.13676727631E+03  0.14476349513E+03  0.00000000000E+00 0. -1.
         -4    1    1    2    0  504  0.49479010712E+02 -0.29911273115E+02  0.13954162648E+03  0.15104543118E+03  0.00000000000E+00 0.  1.
<scales pt_clust_3="34.46999" pt_clust_4="79.51083" pt_clust_5="34.46999" pt_clust_6="57.81744"></scales>
<clustering>
<clus scale="   34.470">  3  5 -1 -1</clus>
<clus scale="   57.817">  1  6  2 -1</clus>
<clus scale="   79.511">  1  4  2 -1</clus>
<clus scale="   88.106">  2  3  1 -1</clus>
</clustering>
</event>
<event>
 6    0  0.1849053E+002  0.9174329E+02  0.7546771E-02  0.1298684E+00
         21   -1    0    0  501  502  0.00000000000E+00  0.00000000000E+00  0.97531366743E+02  0.97531366743E+02  0.00000000000E+00 0.  1.
          1   -1    0    0  505    0 -0.00000000000E+00 -0.00000000000E+00 -0.35237793108E+03  0.35237793108E+03  0.00000000000E+00 0.  1.
         21    1    1    2  503  504  0.46718480221E+02 -0.38146773572E+02  0.41688709071E+02  0.73319446207E+02  0.00000000000E+00 0.  1.
         21    1    1    2  504  502 -0.54268665409E+01 -0.47557677862E+02 -0.79848695159E+01  0.48527742017E+02  0.00000000000E+00 0.  1.
         21    1    1    2  505  503  0.94135672800E+01 -0.28968719334E+02 -0.49383679977E+02  0.58021976844E+02  0.00000000000E+00 0.  1.
          1    1    1    2  501    0 -0.50705180960E+02  0.11467317077E+03 -0.23916672391E+03  0.27004013276E+03  0.00000000000E+00 0.  1.
<scales pt_clust_3="14000.00000" pt_clust_4="50.50242" pt_clust_5="30.45984" pt_clust_6="91.74329"></scales>
<clustering>
<clus scale="   30.460">  2  5  1 -1</clus>
<clus scale="   50.502">  1  4  2 -1</clus>
<clus scale="   91.743">  2  6  1 -1</clus>
<clus scale="   50.502">  1  3  2 -1</clus>
</clustering>
</event>
<event>
 6    0  0.1849053E+002  0.1468531E+03  0.7546771E-02  0.1204394E+00
         21   -1    0    0  501  502  0.00000000000E+00  0.00000000000E+00  0.22108463862E+03  0.22108463862E+03  0.00000000000E+00 0. -1.
          2   -1    0    0  504    0 -0.00000000000E+00 -0.00000000000E+00 -0.20963081885E+04  0.20963081885E+04  0.00000000000E+00 0. -1.
         21    1    1    2  503  502  0.74565924721E+02 -0.12266818280E+02  0.13606824098E+03  0.15564420375E+03  0.00000000000E+00 0. -1.
         21    1    1    2  504  505  0.14485685834E+02  0.35386036818E+02 -0.19895692345E+03  0.20259778895E+03  0.00000000000E+00 0.  1.
         21    1    1    2  505  503  0.53107344255E+02 -0.38091406758E+02  0.55568536914E+02  0.85785823872E+02  0.00000000000E+00 0.  1.
          2    1    1    2  501    0 -0.14215895481E+03  0.14972188220E+02 -0.18679034043E+04  0.18733650105E+04  0.00000000000E+00 0. -1.
<scales pt_clust_3="48.52721" pt_clust_4="38.23620" pt_clust_5="48.52721" pt_clust_6="137.25319"></scales>
<clustering>
<clus scale="   38.236">  2  4  1 -1</clus>
<clus scale="   48.527">  3  5 -1 -1</clus>
<clus scale="  137.253">  2  6  1 -1</clus>
<clus scale="  146.853">  1  3  2 -1</clus>
</clustering>
</event>
<event>
 6    0  0.1849053E+002  0.8450970E+02  0.7546771E-02  0.1316720E+00
          2   -1    0    0  504    0 -0.00000000000E+00  0.00000000000E+00  0.24921983810E+03  0.24921983810E+03  0.00000000000E+00 0. -1.
         21   -1    0    0  503  502  0.00000000000E+00 -0.00000000000E+00 -0.25785318571E+03  0.25785318571E+03  0.00000000000E+00 0. -1.
         21    1    1    2  503  501  0.41090886302E+02 -0.71340008390E+02 -0.15200602703E+03  0.17286899660E+03  0.00000000000E+00 0. -1.
         21    1    1    2  504  505  0.32931180118E+02  0.22018161411E+02  0.10861880228E+03  0.11561706736E+03  0.00000000000E+00 0. -1.
         21    1    1    2  505  502  0.30488647209E+02  0.27569566777E+02 -0.62083539668E+02  0.74458072219E+02  0.00000000000E+00 0. -1.
          2    1    1    2  501    0 -0.10451071363E+03  0.21752280203E+02  0.96837416804E+02  0.14412888763E+03  0.00000000000E+00 0. -1.
<scales pt_clust_3="84.50970" pt_clust_4="39.61391" pt_clust_5="42.87476" pt_clust_6="14000.00000"></scales>
<clustering>
<clus scale="   39.614">  1  4  2 -1</clus>
<clus scale="   42.875">  2  5  1 -1</clus>
<clus scale="   84.510">  2  3  1 -1</clus>
<clus scale="   42.875">  2  3  1 -1</clus>
</clustering>
</event>
<event>
 6    0  0.1849053E+002  0.1489735E+03  0.7546771E-02  0.1201740E+00
          2   -1    0    0  503    0 -0.00000000000E+00  0.00000000000E+00  0.23817753337E+04  0.23817753337E+04  0.00000000000E+00 0. -1.
         21   -1    0    0  504  502  0.00000000000E+00 -0.00000000000E+00 -0.13932197340E+03  0.13932197340E+03  0.00000000000E+00 0. -1.
         21    1    1    2  503  505 -0.21000789869E+02  0.44177546724E+02  0.73185147907E+02  0.88027011104E+02  0.00000000000E+00 0.  1.
         21    1    1    2  504  501  0.27887774586E+02 -0.18778027526E+03 -0.50542070821E+02  0.19645269321E+03  0.00000000000E+00 0. -1.
         21    1    1    2  505  502 -0.36963993817E+02 -0.16834653110E+01  0.52469674700E+02  0.64204654485E+02  0.00000000000E+00 0. -1.
          2    1    1    2  501    0  0.30077009100E+02  0.14528619385E+03  0.21673406085E+04  0.21724129483E+04  0.00000000000E+00 0. -1.
<scales pt_clust_3="49.74920" pt_clust_4="148.97349" pt_clust_5="37.00231" pt_clust_6="14000.00000"></scales>
<clustering>
<clus scale="   37.002">  2  5  1 -1</clus>
<clus scale="   49.749">  2  3  1 -1</clus>
<clus scale="  148.973">  2  4  1 -1</clus>
<clus scale="   37.002">  2  3  1 -1</clus>
</clustering>
</event>
<event>
 6    0  0.1849053E+002  0.2633598E+03  0.7546771E-02  0.1105141E+00
         21   -1    0    0  504  502  0.00000000000E+00  0.00000000000E+00  0.25399282072E+03  0.25399282072E+03  0.00000000000E+00 0. -1.
          1   -1    0    0  505    0 -0.00000000000E+00 -0.00000000000E+00 -0.97588511410E+03  0.97588511410E+03  0.00000000000E+00 0. -1.
         21    1    1    2  503  501  0.25533824616E+02 -0.52881656250E+02 -0.96423587162E+02  0.11289798018E+03  0.00000000000E+00 0. -1.
         21    1    1    2  504  503  0.23797648011E+02  0.38245641086E+02 -0.31632437681E+02  0.55042422063E+02  0.00000000000E+00 0.  1.
         21    1    1    2  505  502 -0.58114174892E+02  0.20620417462E+03  0.17056843766E+03  0.27384486644E+03  0.00000000000E+00 0. -1.
          1    1    1    2  501    0  0.87827022645E+01 -0.19156815945E+03 -0.76440470619E+03  0.78809266614E+03  0.00000000000E+00 0. -1.
<scales pt_clust_3="54.73387" pt_clust_4="45.04506" pt_clust_5="243.99366" pt_clust_6="54.73387"></scales>
<clustering>
<clus scale="   45.045">  1  4  2 -1</clus>
<clus scale="   54.734">  3  6 -1 -1</clus>
<clus scale="  243.994">  1  5  2 -1</clus>
<clus scale="   45.045">  1  3  2 -1</clus>
</clustering>
</event>
<event>
 6    0  0.1849053E+002  0.2404572E+03  0.7546771E-02  0.1119489E+00
          1   -1    0    0  503    0 -0.00000000000E+00  0.00000000000E+00  0.13533268673E+03  0.13533268673E+03  0.00000000000E+00 0. -1.
         21   -1    0    0  505  502  0.00000000000E+00 -0.00000000000E+00 -0.88357784490E+03  0.88357784490E+03  0.00000000000E+00 0.  1.
         21    1    1    2  503  504 -0.16176957248E+03 -0.91295610206E+02 -0.64198913056E+03  0.66832202326E+03  0.00000000000E+00 0.  1.
         21    1    1    2  504  502 -0.55982963132E+02  0.13842618222E+02 -0.83486605702E+02  0.10146784501E+03  0.00000000000E+00 0.  1.
         21    1    1    2  505  501  0.58209827188E+02  0.89021548867E+00 -0.41024165431E+02  0.71219088832E+02  0.00000000000E+00 0.  1.
          1    1    1    2  501    0  0.15954270843E+03  0.76562776496E+02  0.18254743524E+02  0.17790157452E+03  0.00000000000E+00 0. -1.
<scales pt_clust_3="222.91735" pt_clust_4="57.66897" pt_clust_5="51.70852" pt_clust_6="51.70852"></scales>
<clustering>
<clus scale="   51.709">  5  6 -1 -1</clus>
<clus scale="   57.669">  2  4  1 -1</clus>
<clus scale="  222.917">  2  3  1 -1</clus>
<clus scale="   57.669">  2  3  1 -1</clus>
</clustering>
</event>
<event>
 6    0  0.1849053E+002  0.2562344E+03  0.7546771E-02  0.1109427E+00
          1   -1    0    0  504    0 -0.00000000000E+00  0.00000000000E+00  0.98253065754E+03  0.98253065754E+03  0.00000000000E+00 0.  1.
         21   -1    0    0  503  502  0.00000000000E+00 -0.00000000000E+00 -0.29473284822E+03  0.29473284822E+03  0.00000000000E+00 0.  1.
         21    1    1    2  503  505  0.14967747552E+02 -0.36483639100E+02 -0.91206959648E+01  0.40475628268E+02  0.00000000000E+00 0.  1.
         21    1    1    2  504  502  0.12095513834E+02  0.63620756393E+02  0.80329186319E+02  0.10318275182E+03  0.00000000000E+00 0.  1.
         21    1    1    2  505  501 -0.77254918726E+02 -0.20030672204E+03 -0.20237043591E+03  0.29503372466E+03  0.00000000000E+00 0.  1.
          1    1    1    2  501    0  0.50191657339E+02  0.17316960474E+03  0.81895975487E+03  0.83857140100E+03  0.00000000000E+00 0.  1.
<scales pt_clust_3="38.06591" pt_clust_4="64.76034" pt_clust_5="38.06591" pt_clust_6="240.34850"></scales>
<clustering>
<clus scale="   38.066">  3  5 -1 -1</clus>
<clus scale="   64.760">  1  4  2 -1</clus>
<clus scale="  240.349">  1  6  2 -1</clus>
<clus scale="  256.234">  2  3  1 -1</clus>
</clustering>
</event>
<event>
 6    0  0.1849053E+002  0.1383184E+03  0.7546771E-02  0.1215610E+00
         -1   -1    0    0    0  501 -0.00000000000E+00  0.00000000000E+00  0.28225969527E+03  0.28225969527E+03  0.00000000000E+00 0. -1.
         21   -1    0    0  504  502  0.00000000000E+00 -0.00000000000E+00 -0.49395375449E+03  0.49395375449E+03  0.00000000000E+00 0.  1.
         21    1    1    2  503  502 -0.81120393321E+02 -0.50951939905E+02 -0.15836620092E+03  0.18508503988E+03  0.00000000000E+00 0.  1.
         21    1    1    2  504  505  0.10851951366E+03 -0.91386203893E+02 -0.26764025184E+03  0.30291785605E+03  0.00000000000E+00 0.  1.
         21    1    1    2  505  501  0.48481861972E+02  0.35890615264E+02  0.50776016866E+02  0.78846883851E+02  0.00000000000E+00 0. -1.
         -1    1    1    2    0  503 -0.75880982312E+02  0.10644752853E+03  0.16353637668E+03  0.20936366997E+03  0.00000000000E+00 0. -1.
<scales pt_clust_3="92.09996" pt_clust_4="138.31837" pt_clust_5="60.32103" pt_clust_6="14000.00000"></scales>
<clustering>
<clus scale="   60.321">  1  5  2 -1</clus>
<clus scale="   92.100">  2  3  1 -1</clus>
<clus scale="  138.318">  2  4  1 -1</clus>
<clus scale="   92.100">  2  3  1 -1</clus>
</clustering>
</event>
<event>
 6    0  0.1849053E+002  0.1028991E+03  0.7546771E-02  0.1274315E+00
         21   -1    0    0  503  502  0.00000000000E+00  0.00000000000E+00  0.16640131892E+03  0.16640131892E+03  0.00000000000E+00 0. -1.
          2   -1    0    0  505    0 -0.00000000000E+00 -0.00000000000E+00 -0.12854662167E+04  0.12854662167E+04  0.00000000000E+00 0. -1.
         21    1    1    2  503  501 -0.62866738934E+02  0.41364555014E+02  0.10582946647E+03  0.12985811199E+03  0.00000000000E+00 0.  1.
         21    1    1    2  504  502 -0.47017613967E+02 -0.60982571960E+02  0.11258858375E+02  0.77822181914E+02  0.00000000000E+00 0. -1.
         21    1    1    2  505  504  0.43787201844E+02  0.28282195492E+02 -0.23021844640E+03  0.23604604358E+03  0.00000000000E+00 0.  1.
          2    1    1    2  501    0  0.66097151057E+02 -0.86641785466E+01 -0.10059347763E+04  0.10081411982E+04  0.00000000000E+00 0. -1.
<scales pt_clust_3="75.01643" pt_clust_4="14000.00000" pt_clust_5="52.12678" pt_clust_6="102.89911"></scales>
<clustering>
<clus scale="   52.127">  2  5  1 -1</clus>
<clus scale="   75.016">  1  3  2 -1</clus>
<clus scale="  102.899">  2  6  1 -1</clus>
<clus scale="   75.016">  1  3  2 -1</clus>
</clustering>
</event>
<event>
 6    0  0.1849053E+002  0.8464911E+02  0.7546771E-02  0.1316353E+00
         21   -1    0    0  504  502  0.00000000000E+00  0.00000000000E+00  0.53592676426E+02  0.53592676426E+02  0.00000000000E+00 0.  1.
          2   -1    0    0  503    0 -0.00000000000E+00 -0.00000000000E+00 -0.14236111841E+04  0.14236111841E+04  0.00000000000E+00 0.  1.
         21    1    1    2  503  502  0.57563689967E+02 -0.49202195699E+01 -0.86707969280E+02  0.10419241287E+03  0.00000000000E+00 0.  1.
         21    1    1    2  504  505 -0.12542098551E+03 -0.25862171893E+02 -0.50917247287E+02  0.13781089077E+03  0.00000000000E+00 0.  1.
         21    1    1    2  505  501  0.29181566267E+02  0.23178937834E+02 -0.36152247902E+03  0.36343820631E+03  0.00000000000E+00 0.  1.
          2    1    1    2  501    0  0.38675729279E+02  0.76034536291E+01 -0.87087081204E+03  0.87176235053E+03  0.00000000000E+00 0.  1.
<scales pt_clust_3="57.77358" pt_clust_4="76.09499" pt_clust_5="36.05625" pt_clust_6="36.05625"></scales>
<clustering>
<clus scale="   36.056">  5  6 -1 -1</clus>
<clus scale="   57.774">  1  3  2 -1</clus>
<clus scale="   76.095">  1  4  2 -1</clus>
<clus scale="   57.774">  1  3  2 -1</clus>
</clustering>
</event>
<event>
 6    0  0.1849053E+002  0.2188112E+03  0.7546771E-02  0.1134772E+00
         21   -1    0    0  503  502  0.00000000000E+00  0.00000000000E+00  0.41744623608E+03  0.41744623608E+03  0.00000000000E+00 0. -1.
          1   -1    0    0  504    0 -0.00000000000E+00 -0.00000000000E+00 -0.98624610514E+03  0.98624610514E+03  0.00000000000E+00 0. -1.
         21    1    1    2  503  501 -0.56861432227E+02 -0.17687908557E+03  0.32117834898E+03  0.37104577243E+03  0.00000000000E+00 0. -1.
         21    1    1    2  504  505  0.75769712028E+02  0.67227833621E+02 -0.15988934732E+03  0.18927555114E+03  0.00000000000E+00 0.  1.
         21    1    1    2  505  502 -0.49157701200E+02 -0.24030270282E+02  0.35752266541E+02  0.65361747528E+02  0.00000000000E+00 0. -1.
          1    1    1    2  501    0  0.30249421398E+02  0.13368152223E+03 -0.76584113725E+03  0.77800927012E+03  0.00000000000E+00 0. -1.
<scales pt_clust_3="218.81115" pt_clust_4="99.18522" pt_clust_5="54.71685" pt_clust_6="14000.00000"></scales>
<clustering>
<clus scale="   54.717">  1  5  2 -1</clus>
<clus scale="   99.185">  2  4  1 -1</clus>
<clus scale="  218.811">  1  3  2 -1</clus>
<clus scale="   54.717">  1  3  2 -1</clus>
</clustering>
</event>
<event>
 6    0  0.1849053E+002  0.9884271E+02  0.7546771E-02  0.1282749E+00
         -2   -1    0    0    0  501 -0.00000000000E+00  0.00000000000E+00  0.10643046357E+03  0.10643046357E+03  0.00000000000E+00 0. -1.
         21   -1    0    0  505  502  0.00000000000E+00 -0.00000000000E+00 -0.51549199281E+03  0.51549199281E+03  0.00000000000E+00 0. -1.
         21    1    1    2  503  502 -0.53758973772E+02  0.34860085957E+02 -0.94433430911E+02  0.11411803419E+03  0.00000000000E+00 0. -1.
         21    1    1    2  504  501  0.10468518813E+03  0.13979879003E+02 -0.32762562294E+03  0.34422808490E+03  0.00000000000E+00 0. -1.
         21    1    1    2  505  504  0.48374535479E+01  0.35826804118E+02 -0.35962219190E+02  0.50992568666E+02  0.00000000000E+00 0. -1.
         -2    1    1    2    0  503 -0.55763667904E+02 -0.84666769078E+02  0.48959743794E+02  0.11258376862E+03  0.00000000000E+00 0. -1.
<scales pt_clust_3="67.86717" pt_clust_4="98.84271" pt_clust_5="36.15191" pt_clust_6="14000.00000"></scales>
<clustering>
<clus scale="   36.152">  2  5  1 -1</clus>
<clus scale="   67.867">  2  3  1 -1</clus>
<clus scale="   98.843">  2  4  1 -1</clus>
<clus scale="   36.152">  2  3  1 -1</clus>
</clustering>
</event>
<event>
 6    0  0.1849053E+002  0.1657134E+03  0.7546771E-02  0.1182393E+00
         21   -1    0    0  504  502  0.00000000000E+00  0.00000000000E+00  0.81632530733E+03  0.81632530733E+03  0.00000000000E+00 0. -1.
          2   -1    0    0  503    0 -0.00000000000E+00 -0.00000000000E+00 -0.11737976701E+04  0.11737976701E+04  0.00000000000E+00 0. -1.
         21    1    1    2  503  502  0.18663859136E+02  0.13454628693E+03  0.57083148229E+03  0.58677050381E+03  0.00000000000E+00 0. -1.
         21    1    1    2  504  505 -0.37114800210E+02  0.21061405120E+02  0.22964276889E+03  0.23357416913E+03  0.00000000000E+00 0. -1.
         21    1    1    2  505  501 -0.25168625606E+01 -0.46152716411E+02 -0.19494827639E+03  0.20035278460E+03  0.00000000000E+00 0.  1.
          2    1    1    2  501    0  0.20967803634E+02 -0.10945497564E+03 -0.96299833753E+03  0.96942551986E+03  0.00000000000E+00 0. -1.
<scales pt_clust_3="156.44234" pt_clust_4="42.67424" pt_clust_5="35.19559" pt_clust_6="35.19559"></scales>
<clustering>
<clus scale="   35.196">  5  6 -1 -1</clus>
<clus scale="   42.674">  1  4  2 -1</clus>
<clus scale="  156.442">  1  3  2 -1</clus>
<clus scale="   42.674">  1  3  2 -1</clus>
</clustering>
</event>
<event>
 6    0  0.1849053E+002  0.1065622E+03  0.7546771E-02  0.1267072E+00
         21   -1    0    0  503  502  0.00000000000E+00  0.00000000000E+00  0.58019685673E+02  0.58019685673E+02  0.00000000000E+00 0.  1.
          1   -1    0    0  505    0 -0.00000000000E+00 -0.00000000000E+00 -0.81568430459E+03  0.81568430459E+03  0.00000000000E+00 0.  1.
         21    1    1    2  503  504  0.10945370824E+02  0.31016713651E+02  0.12508357645E+00  0.32891538640E+02  0.00000000000E+00 0.  1.
         21    1    1    2  504  501  0.35620005805E+02 -0.49296626648E+02 -0.13249264126E+03  0.14578491760E+03  0.00000000000E+00 0.  1.
         21    1    1    2  505  502 -0.14418786513E+03  0.36117261421E+02 -0.15649251406E+03  0.21583443650E+03  0.00000000000E+00 0.  1.
          1    1    1    2  501    0  0.97622488500E+02 -0.17837348425E+02 -0.46880454717E+03  0.47919309752E+03  0.00000000000E+00 0.  1.
<scales pt_clust_3="32.89130" pt_clust_4="57.98198" pt_clust_5="106.56223" pt_clust_6="14000.00000"></scales>
<clustering>
<clus scale="   32.891">  1  3  2 -1</clus>
<clus scale="   57.982">  1  4  2 -1</clus>
<clus scale="  106.562">  1  5  2 -1</clus>
<clus scale="   32.891">  1  3  2 -1</clus>
</clustering>
</event>
<event>
 6    0  0.1849053E+002  0.1418516E+03  0.7546771E-02  0.1210859E+00
          2   -1    0    0  504    0 -0.00000000000E+00  0.00000000000E+00  0.93923052207E+03  0.93923052207E+03  0.00000000000E+00 0.  1.
         21   -1    0    0  505  502  0.00000000000E+00 -0.00000000000E+00 -0.16658597894E+04  0.16658597894E+04  0.00000000000E+00 0.  1.
         21    1    1    2  503  501  0.70907859140E+02 -0.10031026985E+02  0.59338427839E+03  0.59769009347E+03  0.00000000000E+00 0.  1.
         21    1    1    2  504  502  0.14569674294E+01 -0.82382494144E+02 -0.72453942677E+02  0.10972042611E+03  0.00000000000E+00 0. -1.
         21    1    1    2  505  503 -0.13716508720E+03  0.83304912163E+02 -0.15651815102E+04  0.15733871518E+04  0.00000000000E+00 0.  1.
          2    1    1    2  501    0  0.64800260632E+02  0.91086089655E+01  0.31762190715E+03  0.32429264012E+03  0.00000000000E+00 0.  1.
<scales pt_clust_3="39.44011" pt_clust_4="82.39538" pt_clust_5="135.71859" pt_clust_6="39.44011"></scales>
<clustering>
<clus scale="   39.440">  3  6 -1 -1</clus>
<clus scale="   82.395">  2  4  1 -1</clus>
<clus scale="  135.719">  2  5  1 -1</clus>
<clus scale="   82.395">  2  3  1 -1</clus>
</clustering>
</event>
<event>
 6    0  0.1849053E+002  0.1286549E+03  0.7546771E-02  0.1229465E+00
          1   -1    0    0  504    0 -0.00000000000E+00  0.00000000000E+00  0.14581268067E+04  0.14581268067E+04  0.00000000000E+00 0. -1.
         21   -1    0    0  503  502  0.00000000000E+00 -0.00000000000E+00 -0.33825103346E+03  0.33825103346E+03  0.00000000000E+00 0. -1.
         21    1    1    2  503  501 -0.62611362812E+02 -0.11177518971E+03 -0.27607435088E+03  0.30435328650E+03  0.00000000000E+00 0. -1.
         21    1    1    2  504  505  0.90097596160E+02 -0.12182468870E+02  0.47956481007E+03  0.48810695185E+03  0.00000000000E+00 0. -1.
         21    1    1    2  505  502 -0.12585240254E+03 -0.54510698040E+01  0.74221660630E+02  0.14621011009E+03  0.00000000000E+00 0. -1.
          1    1    1    2  501    0  0.98366169189E+02  0.12940872839E+03  0.84216365346E+03  0.85770749176E+03  0.00000000000E+00 0. -1.
<scales pt_clust_3="128.65486" pt_clust_4="90.91749" pt_clust_5="115.86162" pt_clust_6="14000.00000"></scales>
<clustering>
<clus scale="   90.917">  1  4  2 -1</clus>
<clus scale="  115.862">  1  5  2 -1</clus>
<clus scale="  128.655">  2  3  1 -1</clus>
<clus scale="  128.655">  2  3  1 -1</clus>
</clustering>
</event>
<event>
 6    0  0.1849053E+002  0.1353946E+03  0.7546771E-02  0.1219664E+00
         21   -1    0    0  503  502  0.00000000000E+00  0.00000000000E+00  0.54933622111E+02  0.54933622111E+02  0.00000000000E+00 0. -1.
          2   -1    0    0  504    0 -0.00000000000E+00 -0.00000000000E+00 -0.33123173302E+04  0.33123173302E+04  0.00000000000E+00 0.  1.
         21    1    1    2  503  501 -0.52805591306E+02 -0.89396439180E+02 -0.23690723714E+02  0.10649602904E+03  0.00000000000E+00 0. -1.
         21    1    1    2  504  505 -0.44363881162E+02 -0.10584884197E+02 -0.23456553537E+03  0.23895854057E+03  0.00000000000E+00 0. -1.
         21    1    1    2  505  502 -0.47397107553E+02 -0.38950201250E+01 -0.56763918630E+02  0.74052680198E+02  0.00000000000E+00 0. -1.
          2    1    1    2  501    0  0.14456658002E+03  0.10387634350E+03 -0.29423635304E+04  0.29477437025E+04  0.00000000000E+00 0.  1.
<scales pt_clust_3="135.39464" pt_clust_4="45.60914" pt_clust_5="48.51587" pt_clust_6="14000.00000"></scales>
<clustering>
<clus scale="   45.609">  2  4  1 -1</clus>
<clus scale="   48.516">  1  5  2 -1</clus>
<clus scale="  135.395">  1  3  2 -1</clus>
<clus scale="   48.516">  1  3  2 -1</clus>
</clustering>
</event>
<event>
 6    0  0.1849053E+002  0.2126283E+03  0.7546771E-02  0.1139501E+00
          1   -1    0    0  502    0 -0.00000000000E+00  0.00000000000E+00  0.10876296622E+04  0.10876296622E+04  0.00000000000E+00 0.  1.
         21   -1    0    0  504  502  0.00000000000E+00 -0.00000000000E+00 -0.64830303886E+03  0.64830303886E+03  0.00000000000E+00 0.  1.
         21    1    1    2  503  501 -0.11750358375E+02 -0.52649516333E+02  0.24796896133E+03  0.25376888752E+03  0.00000000000E+00 0. -1.
         21    1    1    2  504  505 -0.31890064915E+01  0.63538356847E+02 -0.40519191870E+03  0.41015580397E+03  0.00000000000E+00 0.  1.
         21    1    1    2  505  503  0.15242273681E+03  0.71478031537E+02 -0.19889507279E+03  0.26057829854E+03  0.00000000000E+00 0.  1.
          1    1    1    2  501    0 -0.13748337195E+03 -0.82366872051E+02  0.79544465345E+03  0.81142971099E+03  0.00000000000E+00 0.  1.
<scales pt_clust_3="42.77486" pt_clust_4="63.61834" pt_clust_5="199.43633" pt_clust_6="42.77486"></scales>
<clustering>
<clus scale="   42.775">  3  6 -1 -1</clus>
<clus scale="   63.618">  2  4  1 -1</clus>
<clus scale="  199.436">  2  5  1 -1</clus>
<clus scale="   63.618">  2  3  1 -1</clus>
</clustering>
</event>
<event>
 6    0  0.1849053E+002  0.1231679E+03  0.7546771E-02  0.1237961E+00
         21   -1    0    0  505  502  0.00000000000E+00  0.00000000000E+00  0.19683274122E+02  0.19683274122E+02  0.00000000000E+00 0. -1.
          2   -1    0    0  503    0 -0.00000000000E+00 -0.00000000000E+00 -0.25402627870E+04  0.25402627870E+04  0.00000000000E+00 0. -1.
         21    1    1    2  503  502  0.23765696470E+02 -0.42815392845E+02 -0.18915247265E+03  0.19538839296E+03  0.00000000000E+00 0.  1.
         21    1    1    2  504  501 -0.29188316827E+02 -0.12915046920E+02 -0.39879731719E+03  0.40007256401E+03  0.00000000000E+00 0.  1.
         21    1    1    2  505  504  0.87168250852E+02  0.13395299338E+02 -0.11696119995E+03  0.14648433464E+03  0.00000000000E+00 0. -1.
          2    1    1    2  501    0 -0.81745630495E+02  0.42335140428E+02 -0.18156685231E+04  0.18180007695E+04  0.00000000000E+00 0. -1.
<scales pt_clust_3="48.96903" pt_clust_4="31.26040" pt_clust_5="111.13890" pt_clust_6="31.26040"></scales>
<clustering>
<clus scale="   31.260">  4  6 -1 -1</clus>
<clus scale="   48.969">  1  3  2 -1</clus>
<clus scale="  111.139">  1  5  2 -1</clus>
<clus scale="   48.969">  1  3  2 -1</clus>
</clustering>
</event>
<event>
 6    0  0.1849053E+002  0.8123798E+02  0.7546771E-02  0.1325574E+00
         21   -1    0    0  503  502  0.00000000000E+00  0.00000000000E+00  0.52949164784E+03  0.52949164784E+03  0.00000000000E+00 0. -1.
          2   -1    0    0  505    0 -0.00000000000E+00 -0.00000000000E+00 -0.10291761109E+04  0.10291761109E+04  0.00000000000E+00 0.  1.
         21    1    1    2  503  501  0.48333741251E+01  0.80628363432E+02  0.44893934625E+03  0.45614781717E+03  0.00000000000E+00 0. -1.
         21    1    1    2  504  502 -0.58474193507E+02 -0.80983219546E+02  0.32225567361E+02  0.10495713576E+03  0.00000000000E+00 0. -1.
         21    1    1    2  505  504  0.67073347379E+01 -0.53683823861E+02 -0.99038876725E+02  0.11285229456E+03  0.00000000000E+00 0. -1.
          2    1    1    2  501    0  0.46933484644E+02  0.54038679975E+02 -0.88181049999E+03  0.88471051130E+03  0.00000000000E+00 0.  1.
<scales pt_clust_3="14000.00000" pt_clust_4="81.23798" pt_clust_5="54.10121" pt_clust_6="53.41766"></scales>
<clustering>
<clus scale="   54.101">  2  5  1 -1</clus>
<clus scale="   53.418">  2  6  1 -1</clus>
<clus scale="   81.238">  2  4  1 -1</clus>
<clus scale="   81.238">  1  3  2 -1</clus>
</clustering>
</event>
<event>
 6    0  0.1849053E+002  0.9681594E+02  0.7546771E-02  0.1287138E+00
          2   -1    0    0  505    0 -0.00000000000E+00  0.00000000000E+00  0.23777513754E+04  0.23777513754E+04  0.00000000000E+00 0. -1.
         21   -1    0    0  503  502  0.00000000000E+00 -0.00000000000E+00 -0.44458177901E+02  0.44458177901E+02  0.00000000000E+00 0. -1.
         21    1    1    2  503  501 -0.73489403614E+02 -0.79578634543E+02  0.14283381709E+03  0.17926224038E+03  0.00000000000E+00 0. -1.
         21    1    1    2  504  502 -0.97874676297E+01  0.41669836325E+02  0.24312252815E+01  0.42872842666E+02  0.00000000000E+00 0. -1.
         21    1    1    2  505  504  0.84802191143E+01 -0.34601696140E+02  0.17292751561E+04  0.17296420893E+04  0.00000000000E+00 0. -1.
          2    1    1    2  501    0  0.74796652130E+02  0.72510494359E+02  0.45875299901E+03  0.47043238097E+03  0.00000000000E+00 0. -1.
<scales pt_clust_3="96.81594" pt_clust_4="41.55911" pt_clust_5="35.62571" pt_clust_6="14000.00000"></scales>
<clustering>
<clus scale="   35.626">  1  5  2 -1</clus>
<clus scale="   41.559">  2  4  1 -1</clus>
<clus scale="   96.816">  2  3  1 -1</clus>
<clus scale="   41.559">  2  3  1 -1</clus>
</clustering>
</event>
<event>
 6    0  0.1849053E+002  0.1633264E+03  0.7546771E-02  0.1184992E+00
          4   -1    0    0  503    0 -0.00000000000E+00  0.00000000000E+00  0.11650107013E+04  0.11650107013E+04  0.00000000000E+00 0.  1.
         21   -1    0    0  505  502  0.00000000000E+00 -0.00000000000E+00 -0.91042989372E+02  0.91042989372E+02  0.00000000000E+00 0. -1.
         21    1    1    2  503  504  0.37602099023E+02 -0.13696715591E+03  0.30430753227E+02  0.14525821970E+03  0.00000000000E+00 0. -1.
         21    1    1    2  504  502  0.96127202722E+02  0.50081626701E+02  0.85594023449E+02  0.13811207509E+03  0.00000000000E+00 0. -1.
         21    1    1    2  505  501 -0.60193025291E+02  0.12134252024E+02  0.27784238790E+03  0.28454671476E+03  0.00000000000E+00 0.  1.
          4    1    1    2  501    0 -0.73536276454E+02  0.74751277182E+02  0.68010054733E+03  0.68813668110E+03  0.00000000000E+00 0.  1.
<scales pt_clust_3="153.78499" pt_clust_4="108.39100" pt_clust_5="42.09290" pt_clust_6="42.09290"></scales>
<clustering>
<clus scale="   42.093">  5  6 -1 -1</clus>
<clus scale="  108.391">  2  4  1 -1</clus>
<clus scale="  153.785">  2  3  1 -1</clus>
<clus scale="  108.391">  2  3  1 -1</clus>
</clustering>
</event>
<event>
 6    0  0.3404770E+002  0.1010596E+03  0.7546771E-02  0.1278083E+00
          2   -1    0    0  505    0 -0.00000000000E+00  0.00000000000E+00  0.16731212660E+04  0.16731212660E+04  0.00000000000E+00 0. -1.
         21   -1    0    0  503  502  0.00000000000E+00 -0.00000000000E+00 -0.13282442022E+04  0.13282442022E+04  0.00000000000E+00 0. -1.
         21    1    1    2  503  501  0.57241803557E+02  0.39813844369E+02 -0.50646963270E+02  0.86179354641E+02  0.00000000000E+00 0.  1.
         21    1    1    2  504  502 -0.23233323088E+02  0.59177877757E+02 -0.12558133135E+04  0.12574215232E+04  0.00000000000E+00 0. -1.
         21    1    1    2  505  504  0.11010679001E+02 -0.48332932347E+02  0.25442147807E+03  0.25920570191E+03  0.00000000000E+00 0. -1.
          2    1    1    2  501    0 -0.45019159470E+02 -0.50658789779E+02  0.13969158625E+04  0.13985588885E+04  0.00000000000E+00 0. -1.
<scales pt_clust_3="101.05964" pt_clust_4="63.54739" pt_clust_5="49.57124" pt_clust_6="14000.00000"></scales>
<clustering>
<clus scale="   49.571">  1  5  2 -1</clus>
<clus scale="   63.547">  2  4  1 -1</clus>
<clus scale="  101.060">  2  3  1 -1</clus>
<clus scale="   63.547">  2  3  1 -1</clus>
</clustering>
</event>
<event>
 6    0  0.1849053E+002  0.1104318E+03  0.7546771E-02  0.1259772E+00
         21   -1    0    0  501  502  0.00000000000E+00  0.00000000000E+00  0.75590313158E+03  0.75590313158E+03  0.00000000000E+00 0.  1.
          3   -1    0    0  505    0 -0.00000000000E+00 -0.00000000000E+00 -0.71530749196E+03  0.71530749196E+03  0.00000000000E+00 0. -1.
         21    1    1    2  503  504 -0.21971443449E+02 -0.91374693814E+02  0.62299301436E+03  0.63004156604E+03  0.00000000000E+00 0.  1.
         21    1    1    2  504  502  0.23221630850E+02 -0.19340488350E+02  0.11810338886E+03  0.12190860958E+03  0.00000000000E+00 0.  1.
         21    1    1    2  505  503 -0.36600339175E+02  0.50444664004E-01 -0.79958071815E+02  0.87936799014E+02  0.00000000000E+00 0.  1.
          3    1    1    2  501    0  0.35350151773E+02  0.11066473750E+03 -0.62054269178E+03  0.63132364892E+03  0.00000000000E+00 0. -1.
<scales pt_clust_3="14000.00000" pt_clust_4="30.22083" pt_clust_5="36.45472" pt_clust_6="110.43182"></scales>
<clustering>
<clus scale="   30.221">  1  4  2 -1</clus>
<clus scale="   36.455">  2  5  1 -1</clus>
<clus scale="  110.432">  2  6  1 -1</clus>
<clus scale="   30.221">  1  3  2 -1</clus>
</clustering>
</event>
<event>
 6    0  0.1849053E+002  0.1413169E+03  0.7546771E-02  0.1211568E+00
         21   -1    0    0  504  502  0.00000000000E+00  0.00000000000E+00  0.48192671283E+02  0.48192671283E+02  0.00000000000E+00 0.  1.
          3   -1    0    0  503    0 -0.00000000000E+00 -0.00000000000E+00 -0.76258630808E+03  0.76258630808E+03  0.00000000000E+00 0.  1.
         21    1    1    2  503  502  0.35949870715E+02  0.74272309806E+02 -0.26153978468E+02  0.86560960011E+02  0.00000000000E+00 0.  1.
         21    1    1    2  504  505  0.26106751627E+02  0.54339613562E+02 -0.10919387376E+03  0.12473034173E+03  0.00000000000E+00 0. -1.
         21    1    1    2  505  501 -0.16049207156E+01 -0.33472047601E+02 -0.63901174671E+02  0.72154791008E+02  0.00000000000E+00 0. -1.
          3    1    1    2  501    0 -0.60451701626E+02 -0.95139875768E+02 -0.51514460991E+03  0.52733288662E+03  0.00000000000E+00 0.  1.
<scales pt_clust_3="127.55810" pt_clust_4="60.28562" pt_clust_5="33.16302" pt_clust_6="33.16302"></scales>
<clustering>
<clus scale="   33.163">  5  6 -1 -1</clus>
<clus scale="   60.286">  1  4  2 -1</clus>
<clus scale="  127.558">  1  3  2 -1</clus>
<clus scale="   60.286">  1  3  2 -1</clus>
</clustering>
</event>
<event>
 6    0  0.1849053E+002  0.2147528E+03  0.7546771E-02  0.1137857E+00
          2   -1    0    0  505    0 -0.00000000000E+00  0.00000000000E+00  0.88603442901E+03  0.88603442901E+03  0.00000000000E+00 0.  1.
         21   -1    0    0  503  502  0.00000000000E+00 -0.00000000000E+00 -0.19938109943E+03  0.19938109943E+03  0.00000000000E+00 0.  1.
         21    1    1    2  503  504  0.15568095316E+02 -0.75588882486E+02 -0.72300832541E+02  0.10575185641E+03  0.00000000000E+00 0.  1.
         21    1    1    2  504  501 -0.35012272993E+02 -0.12633998377E+03 -0.36635071959E+02  0.13612413179E+03  0.00000000000E+00 0.  1.
         21    1    1    2  505  502 -0.73962753127E+02  0.21281808369E+02  0.22297424422E+03  0.23588327156E+03  0.00000000000E+00 0.  1.
          2    1    1    2  501    0  0.93406930803E+02  0.18064705788E+03  0.57261498987E+03  0.60765626868E+03  0.00000000000E+00 0.  1.
<scales pt_clust_3="56.81578" pt_clust_4="56.81578" pt_clust_5="76.96366" pt_clust_6="201.58160"></scales>
<clustering>
<clus scale="   56.816">  3  4 -1 -1</clus>
<clus scale="   76.964">  1  5  2 -1</clus>
<clus scale="  201.582">  1  6  2 -1</clus>
<clus scale="  214.753">  2  3  1 -1</clus>
</clustering>
</event>
<event>
 6    0  0.1849053E+002  0.1513290E+03  0.7546771E-02  0.1198849E+00
         21   -1    0    0  504  502  0.00000000000E+00  0.00000000000E+00  0.18144058113E+03  0.18144058113E+03  0.00000000000E+00 0.  1.
          2   -1    0    0  503    0 -0.00000000000E+00 -0.00000000000E+00 -0.10958594197E+04  0.10958594197E+04  0.00000000000E+00 0. -1.
         21    1    1    2  503  502  0.64171632782E+02 -0.39170952449E+02 -0.12882053547E+03  0.14915459205E+03  0.00000000000E+00 0.  1.
         21    1    1    2  504  505 -0.88926243004E+02  0.23989775828E+01  0.87637424753E+02  0.12487573826E+03  0.00000000000E+00 0.  1.
         21    1    1    2  505  501 -0.57308622833E+02  0.28902922617E+02  0.46871253426E+02  0.79476861945E+02  0.00000000000E+00 0.  1.
          2    1    1    2  501    0  0.82063233055E+02  0.78690522500E+01 -0.92010698123E+03  0.92379280855E+03  0.00000000000E+00 0. -1.
<scales pt_clust_3="75.18219" pt_clust_4="30.66099" pt_clust_5="30.66099" pt_clust_6="146.96092"></scales>
<clustering>
<clus scale="   30.661">  4  5 -1 -1</clus>
<clus scale="   75.182">  2  3  1 -1</clus>
<clus scale="  146.961">  2  6  1 -1</clus>
<clus scale="  151.329">  1  3  2 -1</clus>
</clustering>
</event>
<event>
 6    0  0.1849053E+002  0.1217930E+03  0.7546771E-02  0.1240168E+00
         -1   -1    0    0    0  501 -0.00000000000E+00  0.00000000000E+00  0.26667339895E+03  0.26667339895E+03  0.00000000000E+00 0.  1.
         21   -1    0    0  505  502  0.00000000000E+00 -0.00000000000E+00 -0.10885949475E+03  0.10885949475E+03  0.00000000000E+00 0.  1.
         21    1    1    2  503  501 -0.10607389386E+02 -0.29596721922E+02  0.19800074402E+02  0.37155424966E+02  0.00000000000E+00 0. -1.
         21    1    1    2  504  502  0.46503315681E+02  0.77144034354E+02  0.99066853667E+02  0.13389548873E+03  0.00000000000E+00 0.  1.
         21    1    1    2  505  503 -0.85136104235E+02 -0.66887914973E+02 -0.34798559401E+02  0.11372374049E+03  0.00000000000E+00 0.  1.
         -1    1    1    2    0  504  0.49240177939E+02  0.19340602541E+02  0.73745535536E+02  0.90758239525E+02  0.00000000000E+00 0.  1.
<scales pt_clust_3="31.44014" pt_clust_4="36.30913" pt_clust_5="112.71408" pt_clust_6="36.30913"></scales>
<clustering>
<clus scale="   31.440">  1  3  2 -1</clus>
<clus scale="   36.309">  4  6 -1 -1</clus>
<clus scale="  112.714">  2  5  1 -1</clus>
<clus scale="  112.714">  2  3  1 -1</clus>
</clustering>
</event>
<event>
 6    0  0.1849053E+002  0.1869651E+03  0.7546771E-02  0.1161227E+00
          1   -1    0    0  504    0 -0.00000000000E+00  0.00000000000E+00  0.19339195482E+04  0.19339195482E+04  0.00000000000E+00 0.  1.
         21   -1    0    0  503  502  0.00000000000E+00 -0.00000000000E+00 -0.21716133059E+03  0.21716133059E+03  0.00000000000E+00 0.  1.
         21    1    1    2  503  501 -0.24134425280E+02  0.21763410141E+02 -0.45302409171E+01  0.32812186567E+02  0.00000000000E+00 0.  1.
         21    1    1    2  504  505  0.32636404504E+02 -0.17342080738E+02  0.13495069100E+03  0.13991987588E+03  0.00000000000E+00 0.  1.
         21    1    1    2  505  502 -0.13093375791E+03 -0.12768638662E+03 -0.14803819151E+03  0.23529294174E+03  0.00000000000E+00 0.  1.
          1    1    1    2  501    0  0.12243177869E+03  0.12326505721E+03  0.17343759591E+04  0.17430558746E+04  0.00000000000E+00 0.  1.
<scales pt_clust_3="32.49795" pt_clust_4="36.56337" pt_clust_5="14000.00000" pt_clust_6="186.96513"></scales>
<clustering>
<clus scale="   32.498">  2  3  1 -1</clus>
<clus scale="   36.563">  1  4  2 -1</clus>
<clus scale="  186.965">  1  6  2 -1</clus>
<clus scale="   32.498">  2  3  1 -1</clus>
</clustering>
</event>
<event>
 6    0  0.1849053E+002  0.1078327E+03  0.7546771E-02  0.1264637E+00
          2   -1    0    0  505    0 -0.00000000000E+00  0.00000000000E+00  0.36994991643E+04  0.36994991643E+04  0.00000000000E+00 0. -1.
         21   -1    0    0  503  502  0.00000000000E+00 -0.00000000000E+00 -0.58554254973E+02  0.58554254973E+02  0.00000000000E+00 0. -1.
         21    1    1    2  503  501 -0.84673822949E+02 -0.69238960337E+02 -0.26839646132E+01  0.10941157885E+03  0.00000000000E+00 0. -1.
         21    1    1    2  504  502 -0.52980905544E+01  0.55445567661E+02  0.16036214987E+04  0.16045884805E+04  0.00000000000E+00 0. -1.
         21    1    1    2  505  504  0.31918428728E+02  0.52017211390E+00  0.16272468498E+03  0.16582635427E+03  0.00000000000E+00 0.  1.
          2    1    1    2  501    0  0.58053484776E+02  0.13273220562E+02  0.18772826903E+04  0.18782270056E+04  0.00000000000E+00 0. -1.
<scales pt_clust_3="107.83268" pt_clust_4="56.43405" pt_clust_5="31.92267" pt_clust_6="14000.00000"></scales>
<clustering>
<clus scale="   31.923">  1  5  2 -1</clus>
<clus scale="   56.434">  1  4  2 -1</clus>
<clus scale="  107.833">  2  3  1 -1</clus>
<clus scale="  107.833">  2  3  1 -1</clus>
</clustering>
</event>
<event>
 6    0  0.1849053E+002  0.1515519E+03  0.7546771E-02  0.1198579E+00
         -4   -1    0    0    0  501 -0.00000000000E+00  0.00000000000E+00  0.11096675867E+04  0.11096675867E+04  0.00000000000E+00 0.  1.
         21   -1    0    0  505  502  0.00000000000E+00 -0.00000000000E+00 -0.77112283199E+02  0.77112283199E+02  0.00000000000E+00 0. -1.
         21    1    1    2  503  504 -0.10841559067E+02  0.12507797654E+03  0.54372800142E+02  0.13681535372E+03  0.00000000000E+00 0. -1.
         21    1    1    2  504  502  0.46767888520E+02  0.55410052791E+02  0.92398832100E+02  0.11745234574E+03  0.00000000000E+00 0. -1.
         21    1    1    2  505  501  0.61131147360E+02 -0.50468826100E+02  0.88184374708E+02  0.11857741576E+03  0.00000000000E+00 0.  1.
         -4    1    1    2    0  503 -0.97057476812E+02 -0.13001920323E+03  0.79759929651E+03  0.81393475464E+03  0.00000000000E+00 0.  1.
<scales pt_clust_3="14000.00000" pt_clust_4="72.50868" pt_clust_5="81.26868" pt_clust_6="151.55186"></scales>
<clustering>
<clus scale="   72.509">  2  4  1 -1</clus>
<clus scale="   81.269">  2  5  1 -1</clus>
<clus scale="  151.552">  1  6  2 -1</clus>
<clus scale="   72.509">  2  3  1 -1</clus>
</clustering>
</event>
<event>
 6    0  0.1849053E+002  0.9755151E+02  0.7546771E-02  0.1285531E+00
         21   -1    0    0  503  502  0.00000000000E+00  0.00000000000E+00  0.24335311872E+04  0.24335311872E+04  0.00000000000E+00 0.  1.
          2   -1    0    0  505    0 -0.00000000000E+00 -0.00000000000E+00 -0.53877250662E+03  0.53877250662E+03  0.00000000000E+00 0.  1.
         21    1    1    2  503  501  0.10270664081E+03  0.75812655583E+02  0.22468368130E+04  0.22504603700E+04  0.00000000000E+00 0.  1.
         21    1    1    2  504  502 -0.19286105353E+02 -0.24959428590E+02  0.17774964104E+03  0.18052662359E+03  0.00000000000E+00 0.  1.
         21    1    1    2  505  504 -0.20070104167E+02 -0.35066430406E+02 -0.12817481744E+03  0.13439214058E+03  0.00000000000E+00 0.  1.
          2    1    1    2  501    0 -0.63350431286E+02 -0.15786796588E+02 -0.40165295605E+03  0.40692455959E+03  0.00000000000E+00 0.  1.
<scales pt_clust_3="97.55151" pt_clust_4="31.54246" pt_clust_5="40.44684" pt_clust_6="14000.00000"></scales>
<clustering>
<clus scale="   31.542">  1  4  2 -1</clus>
<clus scale="   40.447">  2  5  1 -1</clus>
<clus scale="   97.552">  1  3  2 -1</clus>
<clus scale="   31.542">  1  3  2 -1</clus>
</clustering>
</event>
<event>
 6    0  0.1849053E+002  0.9340521E+02  0.7546771E-02  0.1294809E+00
          1   -1    0    0  505    0 -0.00000000000E+00  0.00000000000E+00  0.65676083092E+02  0.65676083092E+02  0.00000000000E+00 0.  1.
         21   -1    0    0  503  502  0.00000000000E+00 -0.00000000000E+00 -0.53512004829E+03  0.53512004829E+03  0.00000000000E+00 0. -1.
         21    1    1    2  503  501  0.35980339377E+02 -0.70903221729E+02 -0.25990856545E+03  0.27179829666E+03  0.00000000000E+00 0. -1.
         21    1    1    2  504  502  0.40542653649E+02 -0.59258373817E+01 -0.87241371186E+02  0.96384019215E+02  0.00000000000E+00 0. -1.
         21    1    1    2  505  504 -0.34332133539E+02  0.96664951379E+02 -0.14746241838E+03  0.17963288410E+03  0.00000000000E+00 0. -1.
          1    1    1    2  501    0 -0.42190859488E+02 -0.19835892269E+02  0.25168389813E+02  0.52980931402E+02  0.00000000000E+00 0.  1.
<scales pt_clust_3="93.40521" pt_clust_4="40.97343" pt_clust_5="14000.00000" pt_clust_6="45.55482"></scales>
<clustering>
<clus scale="   40.973">  2  4  1 -1</clus>
<clus scale="   45.555">  1  6  2 -1</clus>
<clus scale="   93.405">  2  3  1 -1</clus>
<clus scale="   40.973">  2  3  1 -1</clus>
</clustering>
</event>
<event>
 6    0  0.1849053E+002  0.1345892E+03  0.7546771E-02  0.1220801E+00
         21   -1    0    0  504  502  0.00000000000E+00  0.00000000000E+00  0.30549788531E+03  0.30549788531E+03  0.00000000000E+00 0.  1.
          2   -1    0    0  503    0 -0.00000000000E+00 -0.00000000000E+00 -0.28603705970E+04  0.28603705970E+04  0.00000000000E+00 0.  1.
         21    1    1    2  503  502 -0.30104803758E+02 -0.17196306135E+02 -0.24668382163E+03  0.24910824957E+03  0.00000000000E+00 0.  1.
         21    1    1    2  504  505  0.76166308486E+02  0.44688253651E+02  0.21409488332E+03  0.23159223999E+03  0.00000000000E+00 0.  1.
         21    1    1    2  505  501  0.16416898980E+02  0.41646448043E+02  0.74391131805E+02  0.86821550885E+02  0.00000000000E+00 0.  1.
          2    1    1    2  501    0 -0.62478403708E+02 -0.69138395559E+02 -0.25966749052E+04  0.25983464419E+04  0.00000000000E+00 0.  1.
<scales pt_clust_3="34.67005" pt_clust_4="32.91980" pt_clust_5="32.91980" pt_clust_6="126.39792"></scales>
<clustering>
<clus scale="   32.920">  4  5 -1 -1</clus>
<clus scale="   34.670">  2  3  1 -1</clus>
<clus scale="  126.398">  2  6  1 -1</clus>
<clus scale="  134.589">  1  3  2 -1</clus>
</clustering>
</event>
<event>
 6    0  0.1849053E+002  0.1722134E+03  0.7546771E-02  0.1175559E+00
         21   -1    0    0  503  502  0.00000000000E+00  0.00000000000E+00  0.29098017206E+03  0.29098017206E+03  0.00000000000E+00 0.  1.
          2   -1    0    0  504    0 -0.00000000000E+00 -0.00000000000E+00 -0.73016648383E+03  0.73016648383E+03  0.00000000000E+00 0. -1.
         21    1    1    2  503  501  0.41396446459E+02 -0.14137177738E+03  0.13041184690E+03  0.19674067965E+03  0.00000000000E+00 0.  1.
         21    1    1    2  504  505 -0.22760780618E+02  0.46185985746E+02 -0.66674682119E+02  0.84241982700E+02  0.00000000000E+00 0.  1.
         21    1    1    2  505  502  0.25266061284E+02 -0.24590475970E+02  0.10927165463E+03  0.11481881321E+03  0.00000000000E+00 0.  1.
          2    1    1    2  501    0 -0.43901727124E+02  0.11977626760E+03 -0.61219513118E+03  0.62534518033E+03  0.00000000000E+00 0. -1.
<scales pt_clust_3="14000.00000" pt_clust_4="49.86212" pt_clust_5="35.25713" pt_clust_6="172.21341"></scales>
<clustering>
<clus scale="   35.257">  1  5  2 -1</clus>
<clus scale="   49.862">  2  4  1 -1</clus>
<clus scale="  172.213">  2  6  1 -1</clus>
<clus scale="   35.257">  1  3  2 -1</clus>
</clustering>
</event>
<event>
 6    0  0.1849053E+002  0.1396360E+03  0.7546771E-02  0.1213820E+00
          2   -1    0    0  504    0 -0.00000000000E+00  0.00000000000E+00  0.24478321484E+04  0.24478321484E+04  0.00000000000E+00 0. -1.
         21   -1    0    0  503  502  0.00000000000E+00 -0.00000000000E+00 -0.15432675425E+03  0.15432675425E+03  0.00000000000E+00 0.  1.
         21    1    1    2  503  501  0.14198548837E+03  0.12491887518E+02 -0.55800987910E+02  0.15306755506E+03  0.00000000000E+00 0.  1.
         21    1    1    2  504  505  0.26016914420E+02  0.29312825063E+02  0.74762855878E+02  0.84413305635E+02  0.00000000000E+00 0.  1.
         21    1    1    2  505  502 -0.12211634610E+02 -0.64852983632E+02 -0.16664291003E+02  0.68064176337E+02  0.00000000000E+00 0.  1.
          2    1    1    2  501    0 -0.15579076818E+03  0.23048271051E+02  0.22912078171E+04  0.22966138656E+04  0.00000000000E+00 0. -1.
<scales pt_clust_3="139.63603" pt_clust_4="39.19339" pt_clust_5="65.62819" pt_clust_6="14000.00000"></scales>
<clustering>
<clus scale="   39.193">  1  4  2 -1</clus>
<clus scale="   65.628">  2  5  1 -1</clus>
<clus scale="  139.636">  2  3  1 -1</clus>
<clus scale="   65.628">  2  3  1 -1</clus>
</clustering>
</event>
<event>
 6    0  0.1849053E+002  0.1910587E+03  0.7546771E-02  0.1157510E+00
         21   -1    0    0  503  502  0.00000000000E+00  0.00000000000E+00  0.39316452469E+02  0.39316452469E+02  0.00000000000E+00 0. -1.
          1   -1    0    0  505    0 -0.00000000000E+00 -0.00000000000E+00 -0.13487839966E+04  0.13487839966E+04  0.00000000000E+00 0. -1.
         21    1    1    2  503  504 -0.72853141862E+01  0.69016074857E+02 -0.16807684498E+03  0.18184092006E+03  0.00000000000E+00 0. -1.
         21    1    1    2  504  501  0.27832270541E+02 -0.19753325192E+02 -0.12798526944E+03  0.13245776056E+03  0.00000000000E+00 0. -1.
         21    1    1    2  505  502 -0.15871662584E+03 -0.11178518351E+03 -0.44478896111E+03  0.48530826749E+03  0.00000000000E+00 0. -1.
          1    1    1    2  501    0  0.13816966948E+03  0.62522433844E+02 -0.56861646857E+03  0.58849350092E+03  0.00000000000E+00 0. -1.
<scales pt_clust_3="69.39953" pt_clust_4="33.98058" pt_clust_5="177.12287" pt_clust_6="33.98058"></scales>
<clustering>
<clus scale="   33.981">  4  6 -1 -1</clus>
<clus scale="   69.400">  1  3  2 -1</clus>
<clus scale="  177.123">  1  5  2 -1</clus>
<clus scale="   69.400">  1  3  2 -1</clus>
</clustering>
</event>
<event>
 6    0  0.1849053E+002  0.1269876E+03  0.7546771E-02  0.1231995E+00
         21   -1    0    0  504  502  0.00000000000E+00  0.00000000000E+00  0.19232393586E+04  0.19232393586E+04  0.00000000000E+00 0.  1.
          1   -1    0    0  503    0 -0.00000000000E+00 -0.00000000000E+00 -0.14242763823E+04  0.14242763823E+04  0.00000000000E+00 0.  1.
         21    1    1    2  503  505  0.29147514376E+02 -0.11356542392E+03 -0.49294282214E+02  0.12718730032E+03  0.00000000000E+00 0. -1.
         21    1    1    2  504  501  0.29864547719E+02 -0.10914834795E+02  0.47088542148E+03  0.47195773645E+03  0.00000000000E+00 0.  1.
         21    1    1    2  505  502  0.30440720568E+02  0.31663179600E+02  0.14094177610E+04  0.14101019890E+04  0.00000000000E+00 0.  1.
          1    1    1    2  501    0 -0.89452782663E+02  0.92817079117E+02 -0.13320459239E+04  0.13382687152E+04  0.00000000000E+00 0.  1.
<scales pt_clust_3="14000.00000" pt_clust_4="31.79662" pt_clust_5="63.06221" pt_clust_6="126.98761"></scales>
<clustering>
<clus scale="   31.797">  1  4  2 -1</clus>
<clus scale="   63.062">  1  5  2 -1</clus>
<clus scale="  126.988">  2  6  1 -1</clus>
<clus scale="   31.797">  1  3  2 -1</clus>
</clustering>
</event>
<event>
 6    0  0.1849053E+002  0.1207765E+03  0.7546771E-02  0.1241821E+00
         21   -1    0    0  503  502  0.00000000000E+00  0.00000000000E+00  0.96187218638E+03  0.96187218638E+03  0.00000000000E+00 0.  1.
         -1   -1    0    0    0  501 -0.00000000000E+00 -0.00000000000E+00 -0.69443770017E+03  0.69443770017E+03  0.00000000000E+00 0. -1.
         21    1    1    2  503  504 -0.84845506012E+02  0.85280756332E+02  0.91690124162E+03  0.92475913306E+03  0.00000000000E+00 0.  1.
         21    1    1    2  504  505 -0.35349039203E+02  0.33263771720E+02 -0.88118492175E+02  0.10060269253E+03  0.00000000000E+00 0. -1.
         21    1    1    2  505  501 -0.36864275264E+02 -0.52216851264E+01 -0.10969813427E+00  0.37232416252E+02  0.00000000000E+00 0.  1.
         -1    1    1    2    0  502  0.15705882048E+03 -0.11332284293E+03 -0.56123856510E+03  0.59371564471E+03  0.00000000000E+00 0. -1.
<scales pt_clust_3="120.77653" pt_clust_4="51.94686" pt_clust_5="37.23225" pt_clust_6="14000.00000"></scales>
<clustering>
<clus scale="   37.232">  2  5  1 -1</clus>
<clus scale="   51.947">  2  4  1 -1</clus>
<clus scale="  120.777">  1  3  2 -1</clus>
<clus scale="  120.777">  1  3  2 -1</clus>
</clustering>
</event>
<event>
 6    0  0.1849053E+002  0.1305217E+03  0.7546771E-02  0.1226684E+00
         21   -1    0    0  504  502  0.00000000000E+00  0.00000000000E+00  0.56324218641E+03  0.56324218641E+03  0.00000000000E+00 0. -1.
         -1   -1    0    0    0  501 -0.00000000000E+00 -0.00000000000E+00 -0.73059884811E+03  0.73059884811E+03  0.00000000000E+00 0.  1.
         21    1    1    2  503  502 -0.34610858038E+02 -0.39374318773E+02  0.17925402657E+03  0.18676256187E+03  0.00000000000E+00 0. -1.
         21    1    1    2  504  505 -0.97089535198E+02  0.22239577060E+02  0.36378714684E+03  0.37717643728E+03  0.00000000000E+00 0. -1.
         21    1    1    2  505  501  0.49780783434E+02 -0.23838706229E+02 -0.11568876399E+03  0.12818073344E+03  0.00000000000E+00 0. -1.
         -1    1    1    2    0  503  0.81919609802E+02  0.40973447942E+02 -0.59470907113E+03  0.60172130192E+03  0.00000000000E+00 0.  1.
<scales pt_clust_3="52.42374" pt_clust_4="130.52172" pt_clust_5="54.96712" pt_clust_6="14000.00000"></scales>
<clustering>
<clus scale="   52.424">  1  3  2 -1</clus>
<clus scale="   54.967">  2  5  1 -1</clus>
<clus scale="  130.522">  1  4  2 -1</clus>
<clus scale="   52.424">  1  3  2 -1</clus>
</clustering>
</event>
<event>
 6    0  0.1849053E+002  0.1584386E+03  0.7546771E-02  0.1190471E+00
          2   -1    0    0  504    0 -0.00000000000E+00  0.00000000000E+00  0.17238470767E+03  0.17238470767E+03  0.00000000000E+00 0. -1.
         21   -1    0    0  501  502  0.00000000000E+00 -0.00000000000E+00 -0.82972843172E+03  0.82972843172E+03  0.00000000000E+00 0.  1.
         21    1    1    2  503  505 -0.72972036765E+02 -0.24155715606E+01 -0.42994531040E+03  0.43610058825E+03  0.00000000000E+00 0.  1.
         21    1    1    2  504  503  0.33830527724E+02 -0.18271486357E+02  0.21216250647E+01  0.38507831836E+02  0.00000000000E+00 0.  1.
         21    1    1    2  505  502 -0.81590572479E+02 -0.21978282054E+02 -0.34492519644E+03  0.35512456623E+03  0.00000000000E+00 0.  1.
          2    1    1    2  501    0  0.12073208152E+03  0.42665339971E+02  0.11540515773E+03  0.17238015307E+03  0.00000000000E+00 0. -1.
<scales pt_clust_3="31.22342" pt_clust_4="38.44934" pt_clust_5="31.22342" pt_clust_6="154.83706"></scales>
<clustering>
<clus scale="   31.223">  3  5 -1 -1</clus>
<clus scale="   38.449">  1  4  2 -1</clus>
<clus scale="  154.837">  1  6  2 -1</clus>
<clus scale="  158.439">  2  3  1 -1</clus>
</clustering>
</event>
<event>
 6    0  0.1849053E+002  0.8732061E+02  0.7546771E-02  0.1309473E+00
         21   -1    0    0  505  502  0.00000000000E+00  0.00000000000E+00  0.15840181748E+04  0.15840181748E+04  0.00000000000E+00 0. -1.
          2   -1    0    0  504    0 -0.00000000000E+00 -0.00000000000E+00 -0.35791659181E+03  0.35791659181E+03  0.00000000000E+00 0.  1.
         21    1    1    2  503  501 -0.43842663665E+01 -0.76605620681E+02 -0.18460765393E+03  0.19991905562E+03  0.00000000000E+00 0.  1.
         21    1    1    2  504  502  0.41368619944E+01 -0.44942839093E+02  0.59220229575E+02  0.74458095623E+02  0.00000000000E+00 0.  1.
         21    1    1    2  505  503  0.44712291385E+02  0.11818844820E+03  0.15036740088E+04  0.15089742287E+04  0.00000000000E+00 0. -1.
          2    1    1    2  501    0 -0.44464887013E+02  0.33600115778E+01 -0.15218500144E+03  0.15858338664E+03  0.00000000000E+00 0.  1.
<scales pt_clust_3="87.32061" pt_clust_4="44.88413" pt_clust_5="14000.00000" pt_clust_6="44.59166"></scales>
<clustering>
<clus scale="   44.592">  2  6  1 -1</clus>
<clus scale="   44.884">  1  4  2 -1</clus>
<clus scale="   87.321">  2  3  1 -1</clus>
<clus scale="   44.884">  1  3  2 -1</clus>
</clustering>
</event>
<event>
 6    0  0.1849053E+002  0.2571251E+03  0.7546771E-02  0.1108883E+00
         -1   -1    0    0    0  501 -0.00000000000E+00  0.00000000000E+00  0.90927606634E+03  0.90927606634E+03  0.00000000000E+00 0. -1.
         21   -1    0    0  504  502  0.00000000000E+00 -0.00000000000E+00 -0.19249731874E+03  0.19249731874E+03  0.00000000000E+00 0.  1.
         21    1    1    2  503  502 -0.87946830882E+02  0.16607496427E+02  0.73411484550E+02  0.11575707349E+03  0.00000000000E+00 0. -1.
         21    1    1    2  504  505  0.17641025027E+02  0.12638775429E+03 -0.41500825729E+02  0.13419161201E+03  0.00000000000E+00 0.  1.
         21    1    1    2  505  501  0.22518092237E+02  0.11172760626E+03 -0.58109220237E+01  0.11412225591E+03  0.00000000000E+00 0.  1.
         -1    1    1    2    0  503  0.47787713617E+02 -0.25472285698E+03  0.69067901080E+03  0.73770244367E+03  0.00000000000E+00 0. -1.
<scales pt_clust_3="89.50114" pt_clust_4="31.48168" pt_clust_5="31.48168" pt_clust_6="254.95810"></scales>
<clustering>
<clus scale="   31.482">  4  5 -1 -1</clus>
<clus scale="   89.501">  2  3  1 -1</clus>
<clus scale="  254.958">  1  6  2 -1</clus>
<clus scale="   89.501">  2  3  1 -1</clus>
</clustering>
</event>
<event>
 6    0  0.1849053E+002  0.1207212E+03  0.7546771E-02  0.1241912E+00
          4   -1    0    0  505    0 -0.00000000000E+00  0.00000000000E+00  0.11894414175E+04  0.11894414175E+04  0.00000000000E+00 0. -1.
         21   -1    0    0  503  502  0.00000000000E+00 -0.00000000000E+00 -0.14499840938E+03  0.14499840938E+03  0.00000000000E+00 0.  1.
         21    1    1    2  503  501  0.82489232256E+02 -0.32008614467E+02 -0.74885537066E+02  0.11591750731E+03  0.00000000000E+00 0.  1.
         21    1    1    2  504  502 -0.64896282747E+00 -0.62370702446E+02 -0.23475029218E+02  0.66645349974E+02  0.00000000000E+00 0.  1.
         21    1    1    2  505  504 -0.12923771893E+02  0.33567454869E+02  0.12915995074E+03  0.13407494465E+03  0.00000000000E+00 0. -1.
          4    1    1    2  501    0 -0.68916497535E+02  0.60811862045E+02  0.10136436236E+04  0.10178020249E+04  0.00000000000E+00 0. -1.
<scales pt_clust_3="120.72121" pt_clust_4="61.69250" pt_clust_5="35.96940" pt_clust_6="14000.00000"></scales>
<clustering>
<clus scale="   35.969">  1  5  2 -1</clus>
<clus scale="   61.693">  2  4  1 -1</clus>
<clus scale="  120.721">  2  3  1 -1</clus>
<clus scale="   61.693">  2  3  1 -1</clus>
</clustering>
</event>
<event>
 6    0  0.1849053E+002  0.1284675E+03  0.7546771E-02  0.1229748E+00
         21   -1    0    0  504  502  0.00000000000E+00  0.00000000000E+00  0.62236170223E+03  0.62236170223E+03  0.00000000000E+00 0.  1.
          2   -1    0    0  505    0 -0.00000000000E+00 -0.00000000000E+00 -0.53534240601E+03  0.53534240601E+03  0.00000000000E+00 0. -1.
         21    1    1    2  503  502 -0.60938919238E+02 -0.96241628721E+02  0.74472919215E+02  0.13609635805E+03  0.00000000000E+00 0. -1.
         21    1    1    2  504  501  0.64730471082E+02  0.11575155216E+03  0.49601657343E+03  0.51344025634E+03  0.00000000000E+00 0.  1.
         21    1    1    2  505  503 -0.30609971639E+02 -0.46170039550E+02 -0.55102909787E+02  0.78134330373E+02  0.00000000000E+00 0. -1.
          2    1    1    2  501    0  0.26818419795E+02  0.26660116109E+02 -0.42836728664E+03  0.43003316348E+03  0.00000000000E+00 0. -1.
<scales pt_clust_3="14000.00000" pt_clust_4="128.46749" pt_clust_5="32.50193" pt_clust_6="37.81520"></scales>
<clustering>
<clus scale="   37.815">  2  6  1 -1</clus>
<clus scale="   32.502">  2  5  1 -1</clus>
<clus scale="  128.467">  1  4  2 -1</clus>
<clus scale="  128.467">  1  3  2 -1</clus>
</clustering>
</event>
<event>
 6    0  0.1849053E+002  0.1043188E+03  0.7546771E-02  0.1271468E+00
         21   -1    0    0  503  502  0.00000000000E+00  0.00000000000E+00  0.10471291239E+04  0.10471291239E+04  0.00000000000E+00 0.  1.
          4   -1    0    0  504    0 -0.00000000000E+00 -0.00000000000E+00 -0.51253353659E+02  0.51253353659E+02  0.00000000000E+00 0.  1.
         21    1    1    2  503  501 -0.52757371030E+02 -0.58503204863E+02  0.27694764341E+03  0.28793395487E+03  0.00000000000E+00 0.  1.
         21    1    1    2  504  505  0.22861097866E+02  0.23367261678E+02  0.28502925260E+02  0.43371366849E+02  0.00000000000E+00 0. -1.
         21    1    1    2  505  502  0.77497351430E+02 -0.52107932668E+02  0.65491376928E+03  0.66153845037E+03  0.00000000000E+00 0.  1.
          4    1    1    2  501    0 -0.47601078266E+02  0.87243875854E+02  0.35511432273E+02  0.10553870545E+03  0.00000000000E+00 0.  1.
<scales pt_clust_3="74.68347" pt_clust_4="32.69035" pt_clust_5="104.31875" pt_clust_6="14000.00000"></scales>
<clustering>
<clus scale="   32.690">  2  4  1 -1</clus>
<clus scale="   74.683">  1  3  2 -1</clus>
<clus scale="  104.319">  1  5  2 -1</clus>
<clus scale="   74.683">  1  3  2 -1</clus>
</clustering>
</event>
<event>
 6    0  0.1849053E+002  0.7565094E+02  0.7546771E-02  0.1341867E+00
         21   -1    0    0  504  502  0.00000000000E+00  0.00000000000E+00  0.17526062747E+03  0.17526062747E+03  0.00000000000E+00 0. -1.
          2   -1    0    0  505    0 -0.00000000000E+00 -0.00000000000E+00 -0.10810537638E+04  0.10810537638E+04  0.00000000000E+00 0. -1.
         21    1    1    2  503  502 -0.56747451728E+02 -0.36175325890E+02  0.75752239681E+02  0.10132783081E+03  0.00000000000E+00 0. -1.
         21    1    1    2  504  501  0.99806869616E+02  0.14080066887E+02  0.54911970346E+02  0.11478233311E+03  0.00000000000E+00 0. -1.
         21    1    1    2  505  503 -0.18253627074E+02 -0.26142778762E+02 -0.49866686864E+03  0.49968518656E+03  0.00000000000E+00 0. -1.
          2    1    1    2  501    0 -0.24805790814E+02  0.48238037766E+02 -0.53779047769E+03  0.54051904078E+03  0.00000000000E+00 0. -1.
<scales pt_clust_3="75.65094" pt_clust_4="14000.00000" pt_clust_5="31.88479" pt_clust_6="48.13728"></scales>
<clustering>
<clus scale="   31.885">  2  5  1 -1</clus>
<clus scale="   48.137">  2  6  1 -1</clus>
<clus scale="   75.651">  1  3  2 -1</clus>
<clus scale="   75.651">  1  3  2 -1</clus>
</clustering>
</event>
<event>
 6    0  0.1849053E+002  0.1747828E+03  0.7546771E-02  0.1172950E+00
          2   -1    0    0  503    0 -0.00000000000E+00  0.00000000000E+00  0.15150421720E+04  0.15150421720E+04  0.00000000000E+00 0.  1.
         21   -1    0    0  504  502  0.00000000000E+00 -0.00000000000E+00 -0.47876955039E+03  0.47876955039E+03  0.00000000000E+00 0. -1.
         21    1    1    2  503  505 -0.44902168218E+02  0.36375962958E+02 -0.11651558289E+03  0.13005881918E+03  0.00000000000E+00 0. -1.
         21    1    1    2  504  501  0.44618251667E+02 -0.10613549387E+02  0.23777884718E+03  0.24216154934E+03  0.00000000000E+00 0. -1.
         21    1    1    2  505  502 -0.11445648984E+03  0.23170299683E+01 -0.34117278786E+03  0.35986737539E+03  0.00000000000E+00 0. -1.
          2    1    1    2  501    0  0.11474040639E+03 -0.28079443539E+02  0.12561821451E+04  0.12617239784E+04  0.00000000000E+00 0.  1.
<scales pt_clust_3="42.96331" pt_clust_4="33.32229" pt_clust_5="42.96331" pt_clust_6="172.48836"></scales>
<clustering>
<clus scale="   33.322">  4  6 -1 -1</clus>
<clus scale="   42.963">  3  5 -1 -1</clus>
<clus scale="  172.488">  1  4  2 -1</clus>
<clus scale="  174.783">  2  3  1 -1</clus>
</clustering>
</event>
<event>
 6    0  0.1849053E+002  0.8841155E+02  0.7546771E-02  0.1306745E+00
          2   -1    0    0  505    0 -0.00000000000E+00  0.00000000000E+00  0.18568440676E+04  0.18568440676E+04  0.00000000000E+00 0.  1.
         21   -1    0    0  504  502  0.00000000000E+00 -0.00000000000E+00 -0.10601591416E+03  0.10601591416E+03  0.00000000000E+00 0.  1.
         21    1    1    2  503  501 -0.71954502385E+02  0.35089721613E+02  0.32631444223E+03  0.33599085431E+03  0.00000000000E+00 0. -1.
         21    1    1    2  504  503  0.74911827191E+01 -0.89096782082E+02  0.29499533944E+02  0.94151882078E+02  0.00000000000E+00 0.  1.
         21    1    1    2  505  502  0.45279427444E+02  0.72286530307E+01 -0.60729594860E+02  0.76095753273E+02  0.00000000000E+00 0.  1.
          2    1    1    2  501    0  0.19183892222E+02  0.46778407438E+02  0.14557437722E+04  0.14566214921E+04  0.00000000000E+00 0.  1.
<scales pt_clust_3="14000.00000" pt_clust_4="88.41155" pt_clust_5="45.85281" pt_clust_6="50.83990"></scales>
<clustering>
<clus scale="   45.853">  2  5  1 -1</clus>
<clus scale="   50.840">  1  6  2 -1</clus>
<clus scale="   88.412">  2  4  1 -1</clus>
<clus scale="   45.853">  2  3  1 -1</clus>
</clustering>
</event>
<event>
 6    0  0.1849053E+002  0.1336577E+03  0.7546771E-02  0.1222127E+00
         -2   -1    0    0    0  501 -0.00000000000E+00  0.00000000000E+00  0.45966725024E+02  0.45966725024E+02  0.00000000000E+00 0.  1.
         21   -1    0    0  505  502  0.00000000000E+00 -0.00000000000E+00 -0.17452014694E+04  0.17452014694E+04  0.00000000000E+00 0. -1.
         21    1    1    2  503  504  0.52632524347E+02 -0.27137596876E+02 -0.47562102074E+03  0.47929321626E+03  0.00000000000E+00 0. -1.
         21    1    1    2  504  501 -0.88187055071E+02  0.63360658355E+02 -0.15499579303E+03  0.18924910982E+03  0.00000000000E+00 0. -1.
         21    1    1    2  505  503  0.71504526619E+02 -0.71983967345E+01 -0.10737366110E+04  0.10761389427E+04  0.00000000000E+00 0. -1.
         -2    1    1    2    0  502 -0.35949995895E+02 -0.29024664744E+02  0.51186803621E+01  0.46486925657E+02  0.00000000000E+00 0.  1.
<scales pt_clust_3="43.25985" pt_clust_4="124.87276" pt_clust_5="43.25985" pt_clust_6="46.20426"></scales>
<clustering>
<clus scale="   43.260">  3  5 -1 -1</clus>
<clus scale="   46.204">  1  6  2 -1</clus>
<clus scale="  124.873">  1  4  2 -1</clus>
<clus scale="  133.658">  2  3  1 -1</clus>
</clustering>
</event>
<event>
 6    0  0.1849053E+002  0.7720580E+02  0.7546771E-02  0.1337173E+00
          2   -1    0    0  504    0 -0.00000000000E+00  0.00000000000E+00  0.15115761455E+04  0.15115761455E+04  0.00000000000E+00 0. -1.
         21   -1    0    0  503  502  0.00000000000E+00 -0.00000000000E+00 -0.33962500195E+03  0.33962500195E+03  0.00000000000E+00 0. -1.
         21    1    1    2  503  501 -0.22337885902E+02  0.62530783017E+02 -0.16586697557E+03  0.17866430409E+03  0.00000000000E+00 0. -1.
         21    1    1    2  504  505 -0.30617853948E+02  0.24771251452E+02  0.12441336899E+03  0.13049810061E+03  0.00000000000E+00 0. -1.
         21    1    1    2  505  502  0.67190567110E+01 -0.11286340094E+03 -0.14429309411E+03  0.18331336558E+03  0.00000000000E+00 0. -1.
          2    1    1    2  501    0  0.46236683139E+02  0.25561366466E+02  0.13576978443E+04  0.13587253772E+04  0.00000000000E+00 0. -1.
<scales pt_clust_3="77.20580" pt_clust_4="39.38360" pt_clust_5="14000.00000" pt_clust_6="52.43176"></scales>
<clustering>
<clus scale="   39.384">  1  4  2 -1</clus>
<clus scale="   52.432">  1  6  2 -1</clus>
<clus scale="   77.206">  2  3  1 -1</clus>
<clus scale="   77.206">  2  3  1 -1</clus>
</clustering>
</event>
<event>
 6    0  0.1849053E+002  0.1048614E+03  0.7546771E-02  0.1270393E+00
         21   -1    0    0  505  502  0.00000000000E+00  0.00000000000E+00  0.14298337567E+02  0.14298337567E+02  0.00000000000E+00 0.  1.
          1   -1    0    0  503    0 -0.00000000000E+00 -0.00000000000E+00 -0.14519447055E+04  0.14519447055E+04  0.00000000000E+00 0.  1.
         21    1    1    2  503  502 -0.71678176750E+02  0.99645926085E+01 -0.37627586924E+03  0.38317174205E+03  0.00000000000E+00 0.  1.
         21    1    1    2  504  501  0.33645005798E+02 -0.39796452738E+02 -0.22157899345E+03  0.22762467881E+03  0.00000000000E+00 0.  1.
         21    1    1    2  505  504 -0.34225465333E+02  0.58481253969E+02 -0.20487717342E+03  0.21579178792E+03  0.00000000000E+00 0.  1.
          1    1    1    2  501    0  0.72258636286E+02 -0.28649393840E+02 -0.63491433182E+03  0.63965483429E+03  0.00000000000E+00 0.  1.
<scales pt_clust_3="91.12294" pt_clust_4="42.48689" pt_clust_5="67.76016" pt_clust_6="42.48689"></scales>
<clustering>
<clus scale="   42.487">  4  6 -1 -1</clus>
<clus scale="   67.760">  1  5  2 -1</clus>
<clus scale="   91.123">  2  3  1 -1</clus>
<clus scale="   67.760">  1  3  2 -1</clus>
</clustering>
</event>
<event>
 6    0  0.2274887E+002  0.9902163E+02  0.7546771E-02  0.1282367E+00
          1   -1    0    0  505    0 -0.00000000000E+00  0.00000000000E+00  0.11689097963E+04  0.11689097963E+04  0.00000000000E+00 0.  1.
         21   -1    0    0  504  502  0.00000000000E+00 -0.00000000000E+00 -0.31768540240E+03  0.31768540240E+03  0.00000000000E+00 0.  1.
         21    1    1    2  503  502  0.89158367498E+02  0.58248414501E+02 -0.27189200791E+03  0.29200574695E+03  0.00000000000E+00 0.  1.
         21    1    1    2  504  501 -0.25052515089E+02  0.17498270387E+02 -0.19588900398E+02  0.36297975118E+02  0.00000000000E+00 0.  1.
         21    1    1    2  505  503  0.60166124240E+01 -0.29763313992E+02  0.30880259976E+02  0.43308716687E+02  0.00000000000E+00 0. -1.
          1    1    1    2  501    0 -0.70122464833E+02 -0.45983370896E+02  0.11118250422E+04  0.11149827600E+04  0.00000000000E+00 0.  1.
<scales pt_clust_3="99.02163" pt_clust_4="30.39662" pt_clust_5="30.36535" pt_clust_6="14000.00000"></scales>
<clustering>
<clus scale="   30.365">  1  5  2 -1</clus>
<clus scale="   30.397">  2  4  1 -1</clus>
<clus scale="   99.022">  2  3  1 -1</clus>
<clus scale="   30.397">  2  3  1 -1</clus>
</clustering>
</event>
<event>
 6    0  0.1849053E+002  0.7918753E+02  0.7546771E-02  0.1331373E+00
         21   -1    0    0  501  502  0.00000000000E+00  0.00000000000E+00  0.58806135591E+02  0.58806135591E+02  0.00000000000E+00 0. -1.
          1   -1    0    0  505    0 -0.00000000000E+00 -0.00000000000E+00 -0.54248997624E+03  0.54248997624E+03  0.00000000000E+00 0.  1.
         21    1    1    2  503  502  0.13452770413E+02  0.28748697756E+02 -0.41701158745E+02  0.52406595913E+02  0.00000000000E+00 0. -1.
         21    1    1    2  504  503 -0.53042808786E+02 -0.13009857668E+02 -0.70049737730E+02  0.88824330656E+02  0.00000000000E+00 0.  1.
         21    1    1    2  505  504  0.18603483153E+02 -0.91520247232E+02 -0.15019087524E+02  0.94591850753E+02  0.00000000000E+00 0. -1.
          1    1    1    2  501    0  0.20986555219E+02  0.75781407144E+02 -0.35691385665E+03  0.36547333451E+03  0.00000000000E+00 0.  1.
<scales pt_clust_3="31.74058" pt_clust_4="51.30176" pt_clust_5="14000.00000" pt_clust_6="79.18753"></scales>
<clustering>
<clus scale="   31.741">  1  3  2 -1</clus>
<clus scale="   51.302">  1  4  2 -1</clus>
<clus scale="   79.188">  2  6  1 -1</clus>
<clus scale="   31.741">  1  3  2 -1</clus>
</clustering>
</event>
<event>
 6    0  0.1849053E+002  0.1705605E+03  0.7546771E-02  0.1177265E+00
         21   -1    0    0  505  502  0.00000000000E+00  0.00000000000E+00  0.78806244975E+03  0.78806244975E+03  0.00000000000E+00 0.  1.
         -2   -1    0    0    0  501 -0.00000000000E+00 -0.00000000000E+00 -0.73335448040E+02  0.73335448040E+02  0.00000000000E+00 0.  1.
         21    1    1    2  503  501  0.33359375030E+02  0.24275078693E+02  0.13053155474E+02  0.43272534196E+02  0.00000000000E+00 0.  1.
         21    1    1    2  504  503  0.15434620704E+02 -0.42246444639E+02  0.13658785766E+02  0.47005872288E+02  0.00000000000E+00 0.  1.
         21    1    1    2  505  504  0.14182817939E+03  0.58283053286E+02  0.30951085057E+03  0.34541151311E+03  0.00000000000E+00 0.  1.
         -2    1    1    2    0  502 -0.19062217513E+03 -0.40311687339E+02  0.37850420990E+03  0.42570797820E+03  0.00000000000E+00 0.  1.
<scales pt_clust_3="41.25685" pt_clust_4="43.24477" pt_clust_5="14000.00000" pt_clust_6="170.56051"></scales>
<clustering>
<clus scale="   41.257">  2  3  1 -1</clus>
<clus scale="   43.245">  2  4  1 -1</clus>
<clus scale="  170.561">  2  6  1 -1</clus>
<clus scale="  170.561">  1  3  2 -1</clus>
</clustering>
</event>
<event>
 6    0  0.1849053E+002  0.1692654E+03  0.7546771E-02  0.1178616E+00
         -2   -1    0    0    0  501 -0.00000000000E+00  0.00000000000E+00  0.57986240421E+02  0.57986240421E+02  0.00000000000E+00 0.  1.
         21   -1    0    0  505  502  0.00000000000E+00 -0.00000000000E+00 -0.14407679013E+04  0.14407679013E+04  0.00000000000E+00 0.  1.
         21    1    1    2  503  502 -0.13284481755E+02 -0.13176184735E+03 -0.66662788467E+03  0.67965461706E+03  0.00000000000E+00 0.  1.
         21    1    1    2  504  503  0.41351133497E+02  0.67562332737E+02 -0.35797383287E+02  0.86925472081E+02  0.00000000000E+00 0.  1.
         21    1    1    2  505  501 -0.28443699677E+02 -0.31544578715E+02 -0.61450127701E+03  0.61596746987E+03  0.00000000000E+00 0.  1.
         -2    1    1    2    0  504  0.37704793486E+00  0.95744093323E+02 -0.65855115902E+02  0.11620658270E+03  0.00000000000E+00 0.  1.
<scales pt_clust_3="161.65275" pt_clust_4="45.57590" pt_clust_5="42.47475" pt_clust_6="45.57590"></scales>
<clustering>
<clus scale="   42.475">  2  5  1 -1</clus>
<clus scale="   45.576">  4  6 -1 -1</clus>
<clus scale="  161.653">  2  3  1 -1</clus>
<clus scale="   42.475">  2  3  1 -1</clus>
</clustering>
</event>
<event>
 6    0  0.1849053E+002  0.1476946E+03  0.7546771E-02  0.1203335E+00
          1   -1    0    0  503    0 -0.00000000000E+00  0.00000000000E+00  0.13300770828E+03  0.13300770828E+03  0.00000000000E+00 0.  1.
         21   -1    0    0  504  502  0.00000000000E+00 -0.00000000000E+00 -0.11975592882E+04  0.11975592882E+04  0.00000000000E+00 0. -1.
         21    1    1    2  503  505 -0.96538103180E+01  0.52921434321E+02  0.50083857975E+01  0.54027383728E+02  0.00000000000E+00 0.  1.
         21    1    1    2  504  501 -0.50203336601E+01 -0.30291732645E+02 -0.13886338346E+03  0.14221755195E+03  0.00000000000E+00 0. -1.
         21    1    1    2  505  502  0.14061347898E+03 -0.34738724890E+02 -0.98575627705E+03  0.99634048759E+03  0.00000000000E+00 0. -1.
          1    1    1    2  501    0 -0.12593933500E+03  0.12109023214E+02  0.55059694826E+02  0.13798157318E+03  0.00000000000E+00 0.  1.
<scales pt_clust_3="53.12519" pt_clust_4="30.70493" pt_clust_5="147.69461" pt_clust_6="14000.00000"></scales>
<clustering>
<clus scale="   30.705">  2  4  1 -1</clus>
<clus scale="   53.125">  1  3  2 -1</clus>
<clus scale="  147.695">  2  5  1 -1</clus>
<clus scale="   30.705">  2  3  1 -1</clus>
</clustering>
</event>
<event>
 6    0  0.1849053E+002  0.1059708E+03  0.7546771E-02  0.1268219E+00
         21   -1    0    0  501  502  0.00000000000E+00  0.00000000000E+00  0.19991871083E+03  0.19991871083E+03  0.00000000000E+00 0.  1.
          2   -1    0    0  503    0 -0.00000000000E+00 -0.00000000000E+00 -0.18515593462E+04  0.18515593462E+04  0.00000000000E+00 0.  1.
         21    1    1    2  503  505  0.51158202821E+02 -0.42972884564E+02 -0.77401371258E+03  0.77689192157E+03  0.00000000000E+00 0.  1.
         21    1    1    2  504  502  0.36394284866E+02  0.40154633922E+02  0.11627922081E+03  0.12828794093E+03  0.00000000000E+00 0.  1.
         21    1    1    2  505  504  0.13906984012E+02  0.47607632026E+02  0.64909898646E+02  0.81689569553E+02  0.00000000000E+00 0. -1.
          2    1    1    2  501    0 -0.10145947170E+03 -0.44789381384E+02 -0.10588160423E+04  0.10646086250E+04  0.00000000000E+00 0.  1.
<scales pt_clust_3="66.81190" pt_clust_4="30.68201" pt_clust_5="30.68201" pt_clust_6="101.00089"></scales>
<clustering>
<clus scale="   30.682">  4  5 -1 -1</clus>
<clus scale="   66.812">  2  3  1 -1</clus>
<clus scale="  101.001">  2  6  1 -1</clus>
<clus scale="  105.971">  1  3  2 -1</clus>
</clustering>
</event>
<event>
 6    0  0.1849053E+002  0.8724409E+02  0.7546771E-02  0.1309666E+00
          2   -1    0    0  504    0 -0.00000000000E+00  0.00000000000E+00  0.27685146743E+04  0.27685146743E+04  0.00000000000E+00 0. -1.
         21   -1    0    0  503  502  0.00000000000E+00 -0.00000000000E+00 -0.64130687442E+02  0.64130687442E+02  0.00000000000E+00 0. -1.
         21    1    1    2  503  501 -0.31728654163E+02 -0.84231543381E+02  0.17123217012E+03  0.19344796840E+03  0.00000000000E+00 0. -1.
         21    1    1    2  504  505  0.36279927102E+02  0.69100683193E+02  0.64887006080E+03  0.65354685626E+03  0.00000000000E+00 0. -1.
         21    1    1    2  505  502  0.44540595412E+02 -0.11476287578E+02 -0.39760265466E+02  0.60798425359E+02  0.00000000000E+00 0. -1.
          2    1    1    2  501    0 -0.49091868350E+02  0.26607147766E+02  0.19240420215E+04  0.19248521118E+04  0.00000000000E+00 0. -1.
<scales pt_clust_3="14000.00000" pt_clust_4="87.24409" pt_clust_5="45.99532" pt_clust_6="54.53459"></scales>
<clustering>
<clus scale="   45.995">  2  5  1 -1</clus>
<clus scale="   54.535">  1  6  2 -1</clus>
<clus scale="   87.244">  1  4  2 -1</clus>
<clus scale="   45.995">  2  3  1 -1</clus>
</clustering>
</event>
<event>
 6    0  0.1849053E+002  0.1641566E+03  0.7546771E-02  0.1184082E+00
         21   -1    0    0  505  502  0.00000000000E+00  0.00000000000E+00  0.11182301881E+03  0.11182301881E+03  0.00000000000E+00 0.  1.
         -2   -1    0    0    0  501 -0.00000000000E+00 -0.00000000000E+00 -0.38067349292E+03  0.38067349292E+03  0.00000000000E+00 0.  1.
         21    1    1    2  503  504 -0.48591706897E+02  0.52113714400E+02 -0.46974496642E+02  0.85343989492E+02  0.00000000000E+00 0.  1.
         21    1    1    2  504  502 -0.33872986360E+02  0.10211741924E+03 -0.16412070159E+02  0.10883337064E+03  0.00000000000E+00 0.  1.
         21    1    1    2  505  501 -0.29778707961E+02 -0.56444529874E+02 -0.38086521505E+02  0.74319173306E+02  0.00000000000E+00 0.  1.
         -2    1    1    2    0  503  0.11224340122E+03 -0.97786603771E+02 -0.16737738581E+03  0.22399997829E+03  0.00000000000E+00 0.  1.
<scales pt_clust_3="45.30556" pt_clust_4="45.30556" pt_clust_5="63.81815" pt_clust_6="154.42816"></scales>
<clustering>
<clus scale="   45.306">  3  4 -1 -1</clus>
<clus scale="   63.818">  1  5  2 -1</clus>
<clus scale="  154.428">  2  6  1 -1</clus>
<clus scale="   63.818">  1  3  2 -1</clus>
</clustering>
</event>
<event>
 6    0  0.1849053E+002  0.1315532E+03  0.7546771E-02  0.1225169E+00
         21   -1    0    0  505  502  0.00000000000E+00  0.00000000000E+00  0.10940775575E+03  0.10940775575E+03  0.00000000000E+00 0. -1.
          1   -1    0    0  504    0 -0.00000000000E+00 -0.00000000000E+00 -0.89929850030E+03  0.89929850030E+03  0.00000000000E+00 0.  1.
         21    1    1    2  503  502 -0.15742081903E+03 -0.76891308670E+01 -0.10705094982E+02  0.15797163054E+03  0.00000000000E+00 0. -1.
         21    1    1    2  504  503  0.47557165208E+02  0.18174715631E+02 -0.18203425131E+03  0.18901976854E+03  0.00000000000E+00 0. -1.
         21    1    1    2  505  501  0.10062467618E+03  0.34052276411E+02 -0.58746677491E+02  0.12139215420E+03  0.00000000000E+00 0. -1.
          1    1    1    2  501    0  0.92389776434E+01 -0.44537861175E+02 -0.53840472076E+03  0.54032270277E+03  0.00000000000E+00 0.  1.
<scales pt_clust_3="131.55315" pt_clust_4="52.53746" pt_clust_5="14000.00000" pt_clust_6="45.48604"></scales>
<clustering>
<clus scale="   45.486">  2  6  1 -1</clus>
<clus scale="   52.537">  2  4  1 -1</clus>
<clus scale="  131.553">  1  3  2 -1</clus>
<clus scale="  131.553">  1  3  2 -1</clus>
</clustering>
</event>
<event>
 6    0  0.1849053E+002  0.9618133E+02  0.7546771E-02  0.1288537E+00
          1   -1    0    0  503    0 -0.00000000000E+00  0.00000000000E+00  0.79510675752E+03  0.79510675752E+03  0.00000000000E+00 0.  1.
         21   -1    0    0  504  502  0.00000000000E+00 -0.00000000000E+00 -0.39685538259E+02  0.39685538259E+02  0.00000000000E+00 0.  1.
         21    1    1    2  503  505  0.49178779106E+02  0.66833132817E+02  0.10958743931E+03  0.13745772736E+03  0.00000000000E+00 0.  1.
         21    1    1    2  504  501 -0.21985815783E+02  0.64156907973E+02  0.58759040210E+02  0.89733548591E+02  0.00000000000E+00 0.  1.
         21    1    1    2  505  502 -0.69528241949E+01 -0.30196886738E+02  0.38230451489E+02  0.49211392523E+02  0.00000000000E+00 0.  1.
          1    1    1    2  501    0 -0.20240139127E+02 -0.10079315405E+03  0.54884428825E+03  0.55838962731E+03  0.00000000000E+00 0.  1.
<scales pt_clust_3="14000.00000" pt_clust_4="56.39181" pt_clust_5="30.98699" pt_clust_6="96.18133"></scales>
<clustering>
<clus scale="   30.987">  2  5  1 -1</clus>
<clus scale="   56.392">  2  4  1 -1</clus>
<clus scale="   96.181">  1  6  2 -1</clus>
<clus scale="   30.987">  2  3  1 -1</clus>
</clustering>
</event>
<event>
 6    0  0.1849053E+002  0.1687642E+03  0.7546771E-02  0.1179143E+00
          1   -1    0    0  505    0 -0.00000000000E+00  0.00000000000E+00  0.13432677011E+03  0.13432677011E+03  0.00000000000E+00 0. -1.
         21   -1    0    0  501  502  0.00000000000E+00 -0.00000000000E+00 -0.11447141759E+04  0.11447141759E+04  0.00000000000E+00 0. -1.
         21    1    1    2  503  504 -0.63090645898E+02 -0.81526357985E+02 -0.69611686144E+03  0.70370850601E+03  0.00000000000E+00 0. -1.
         21    1    1    2  504  502  0.26473049163E+01 -0.66570334819E+02 -0.37947408257E+03  0.38527807755E+03  0.00000000000E+00 0. -1.
         21    1    1    2  505  503  0.37895196668E+02  0.14079111094E+02  0.28354042579E+01  0.40525384847E+02  0.00000000000E+00 0.  1.
          1    1    1    2  501    0  0.22548144313E+02  0.13401758171E+03  0.62368133941E+02  0.14952897763E+03  0.00000000000E+00 0. -1.
<scales pt_clust_3="47.09668" pt_clust_4="47.09668" pt_clust_5="40.42607" pt_clust_6="158.33974"></scales>
<clustering>
<clus scale="   40.426">  1  5  2 -1</clus>
<clus scale="   47.097">  3  4 -1 -1</clus>
<clus scale="  158.340">  1  6  2 -1</clus>
<clus scale="  168.764">  2  3  1 -1</clus>
</clustering>
</event>
<event>
 6    0  0.1849053E+002  0.1073597E+03  0.7546771E-02  0.1265539E+00
          1   -1    0    0  504    0 -0.00000000000E+00  0.00000000000E+00  0.35360979701E+04  0.35360979701E+04  0.00000000000E+00 0. -1.
         21   -1    0    0  503  502  0.00000000000E+00 -0.00000000000E+00 -0.12803797174E+02  0.12803797174E+02  0.00000000000E+00 0. -1.
         21    1    1    2  503  501 -0.84737521716E+02 -0.79635710966E+02  0.41584436884E+03  0.43179721299E+03  0.00000000000E+00 0. -1.
         21    1    1    2  504  505 -0.32170988486E+02  0.36307520047E+02  0.59393209332E+03  0.59590984216E+03  0.00000000000E+00 0.  1.
         21    1    1    2  505  502 -0.82192937184E+01  0.34456953375E+02  0.14165082221E+03  0.14601299208E+03  0.00000000000E+00 0. -1.
          1    1    1    2  501    0  0.12512780392E+03  0.88712375447E+01  0.23718668886E+04  0.23751817200E+04  0.00000000000E+00 0. -1.
<scales pt_clust_3="107.35965" pt_clust_4="51.44156" pt_clust_5="35.42370" pt_clust_6="14000.00000"></scales>
<clustering>
<clus scale="   35.424">  2  5  1 -1</clus>
<clus scale="   51.442">  1  4  2 -1</clus>
<clus scale="  107.360">  2  3  1 -1</clus>
<clus scale="   35.424">  2  3  1 -1</clus>
</clustering>
</event>
<event>
 6    0  0.6147984E+002  0.7483779E+02  0.7546771E-02  0.1344374E+00
         21   -1    0    0  505  502  0.00000000000E+00  0.00000000000E+00  0.10717555213E+04  0.10717555213E+04  0.00000000000E+00 0. -1.
          2   -1    0    0  504    0 -0.00000000000E+00 -0.00000000000E+00 -0.16369785119E+04  0.16369785119E+04  0.00000000000E+00 0.  1.
         21    1    1    2  503  501  0.43871660855E+02  0.38249687507E+02 -0.60917137558E+01  0.58522390561E+02  0.00000000000E+00 0.  1.
         21    1    1    2  504  502 -0.15135660770E+03  0.62160484190E+01  0.10081973192E+04  0.10195142453E+04  0.00000000000E+00 0. -1.
         21    1    1    2  505  503  0.32983424665E+02 -0.38123688226E+02  0.10170535695E+02  0.51427246697E+02  0.00000000000E+00 0.  1.
          2    1    1    2  501    0  0.74501522177E+02 -0.63420477004E+01 -0.15774991317E+04  0.15792701507E+04  0.00000000000E+00 0.  1.
<scales pt_clust_3="58.21348" pt_clust_4="14000.00000" pt_clust_5="50.41153" pt_clust_6="74.83779"></scales>
<clustering>
<clus scale="   50.412">  1  5  2 -1</clus>
<clus scale="   58.213">  1  3  2 -1</clus>
<clus scale="   74.838">  2  6  1 -1</clus>
<clus scale="   50.412">  1  3  2 -1</clus>
</clustering>
</event>
<event>
 6    0  0.1849053E+002  0.1808796E+03  0.7546771E-02  0.1166954E+00
          2   -1    0    0  505    0 -0.00000000000E+00  0.00000000000E+00  0.12822315212E+04  0.12822315212E+04  0.00000000000E+00 0. -1.
         21   -1    0    0  503  502  0.00000000000E+00 -0.00000000000E+00 -0.48551027110E+02  0.48551027110E+02  0.00000000000E+00 0. -1.
         21    1    1    2  503  504 -0.84644254605E+02  0.15380285926E+03  0.21174768013E+03  0.27505826545E+03  0.00000000000E+00 0. -1.
         21    1    1    2  504  501  0.39485092930E+02 -0.15331831839E+02  0.40015180869E+03  0.40238738503E+03  0.00000000000E+00 0. -1.
         21    1    1    2  505  502 -0.37254185572E+02 -0.40904918920E+02  0.83891505869E+02  0.10049314151E+03  0.00000000000E+00 0. -1.
          2    1    1    2  501    0  0.82413347247E+02 -0.97566108498E+02  0.53788949943E+03  0.55284375635E+03  0.00000000000E+00 0. -1.
<scales pt_clust_3="166.66606" pt_clust_4="40.47628" pt_clust_5="55.32709" pt_clust_6="40.47628"></scales>
<clustering>
<clus scale="   40.476">  4  6 -1 -1</clus>
<clus scale="   55.327">  2  5  1 -1</clus>
<clus scale="  166.666">  2  3  1 -1</clus>
<clus scale="   55.327">  2  3  1 -1</clus>
</clustering>
</event>
<event>
 6    0  0.1849053E+002  0.1206085E+03  0.7546771E-02  0.1242097E+00
          2   -1    0    0  505    0 -0.00000000000E+00  0.00000000000E+00  0.32720618643E+04  0.32720618643E+04  0.00000000000E+00 0.  1.
         21   -1    0    0  504  502  0.00000000000E+00 -0.00000000000E+00 -0.47444181510E+03  0.47444181510E+03  0.00000000000E+00 0.  1.
         21    1    1    2  503  501  0.34310754699E+02  0.23525619308E+02 -0.10085611965E+03  0.10909921871E+03  0.00000000000E+00 0.  1.
         21    1    1    2  504  503  0.71769256775E+02  0.12065069746E+02 -0.35986655957E+03  0.36715164827E+03  0.00000000000E+00 0.  1.
         21    1    1    2  505  502 -0.32541371371E+02  0.80874959550E+02  0.44037197851E+03  0.44891778689E+03  0.00000000000E+00 0.  1.
          2    1    1    2  501    0 -0.73538640103E+02 -0.11646564860E+03  0.28179707499E+04  0.28213350256E+04  0.00000000000E+00 0.  1.
<scales pt_clust_3="34.06353" pt_clust_4="34.06353" pt_clust_5="87.17626" pt_clust_6="111.87749"></scales>
<clustering>
<clus scale="   34.064">  3  4 -1 -1</clus>
<clus scale="   87.176">  1  5  2 -1</clus>
<clus scale="  111.877">  1  6  2 -1</clus>
<clus scale="  120.608">  2  3  1 -1</clus>
</clustering>
</event>
<event>
 6    0  0.1849053E+002  0.1178756E+03  0.7546771E-02  0.1246643E+00
          2   -1    0    0  505    0 -0.00000000000E+00  0.00000000000E+00  0.34185426839E+04  0.34185426839E+04  0.00000000000E+00 0. -1.
         21   -1    0    0  504  502  0.00000000000E+00 -0.00000000000E+00 -0.66539309217E+03  0.66539309217E+03  0.00000000000E+00 0.  1.
         21    1    1    2  503  501 -0.10110384868E+03  0.76396928574E+02 -0.16424283582E+01  0.12673269698E+03  0.00000000000E+00 0.  1.
         21    1    1    2  504  503 -0.12651007422E+02  0.37531871969E+02 -0.60738063945E+02  0.72510701376E+02  0.00000000000E+00 0.  1.
         21    1    1    2  505  502 -0.11256767191E+01 -0.87382787291E+02 -0.52996414382E+03  0.53712104073E+03  0.00000000000E+00 0.  1.
          2    1    1    2  501    0  0.11488053282E+03 -0.26546013252E+02  0.33454942278E+04  0.33475713370E+04  0.00000000000E+00 0. -1.
<scales pt_clust_3="14000.00000" pt_clust_4="39.60668" pt_clust_5="55.34603" pt_clust_6="117.87556"></scales>
<clustering>
<clus scale="   39.607">  2  4  1 -1</clus>
<clus scale="   55.346">  2  5  1 -1</clus>
<clus scale="  117.876">  1  6  2 -1</clus>
<clus scale="   39.607">  2  3  1 -1</clus>
</clustering>
</event>
<event>
 6    0  0.1849053E+002  0.1154285E+03  0.7546771E-02  0.1250835E+00
         21   -1    0    0  505  502  0.00000000000E+00  0.00000000000E+00  0.82072281047E+03  0.82072281047E+03  0.00000000000E+00 0. -1.
          2   -1    0    0  504    0 -0.00000000000E+00 -0.00000000000E+00 -0.21918036223E+04  0.21918036223E+04  0.00000000000E+00 0.  1.
         21    1    1    2  503  502  0.39509257641E+02 -0.11880406116E+02  0.34115214979E+03  0.34363776684E+03  0.00000000000E+00 0. -1.
         21    1    1    2  504  503  0.20904026156E+02 -0.34512218964E+02  0.46522441561E+03  0.46697090749E+03  0.00000000000E+00 0. -1.
         21    1    1    2  505  501 -0.37821696125E+02 -0.75507214912E+02 -0.16235570955E+03  0.18300600161E+03  0.00000000000E+00 0.  1.
          2    1    1    2  501    0 -0.22591587672E+02  0.12189983999E+03 -0.20151016676E+04  0.20189117568E+04  0.00000000000E+00 0.  1.
<scales pt_clust_3="82.72398" pt_clust_4="31.91105" pt_clust_5="14000.00000" pt_clust_6="115.42854"></scales>
<clustering>
<clus scale="   31.911">  3  4 -1 -1</clus>
<clus scale="   82.724">  1  3  2 -1</clus>
<clus scale="  115.429">  2  6  1 -1</clus>
<clus scale="   82.724">  1  3  2 -1</clus>
</clustering>
</event>
<event>
 6    0  0.1849053E+002  0.5594168E+02  0.7546771E-02  0.1415697E+00
         21   -1    0    0  505  502  0.00000000000E+00  0.00000000000E+00  0.30526311327E+03  0.30526311327E+03  0.00000000000E+00 0.  1.
         -3   -1    0    0    0  501 -0.00000000000E+00 -0.00000000000E+00 -0.92381073156E+02  0.92381073156E+02  0.00000000000E+00 0.  1.
         21    1    1    2  503  501 -0.54113104861E+02 -0.35013765742E+02  0.92229438146E+00  0.64459619422E+02  0.00000000000E+00 0.  1.
         21    1    1    2  504  502 -0.26614664792E+02  0.37437318600E+02  0.35376899382E+02  0.57977738968E+02  0.00000000000E+00 0.  1.
         21    1    1    2  505  503  0.73905405013E+02 -0.61840562868E+02  0.19078088150E+03  0.21373724254E+03  0.00000000000E+00 0.  1.
         -3    1    1    2    0  504  0.68223646389E+01  0.59417010010E+02 -0.14198035151E+02  0.61469585487E+02  0.00000000000E+00 0.  1.
<scales pt_clust_3="14000.00000" pt_clust_4="45.93357" pt_clust_5="62.27660" pt_clust_6="55.94168"></scales>
<clustering>
<clus scale="   45.934">  1  4  2 -1</clus>
<clus scale="   62.277">  1  5  2 -1</clus>
<clus scale="   55.942">  2  6  1 -1</clus>
<clus scale="   45.934">  1  3  2 -1</clus>
</clustering>
</event>
<event>
 6    0  0.1849053E+002  0.1232576E+03  0.7546771E-02  0.1237818E+00
          2   -1    0    0  505    0 -0.00000000000E+00  0.00000000000E+00  0.36208285964E+04  0.36208285964E+04  0.00000000000E+00 0. -1.
         21   -1    0    0  503  502  0.00000000000E+00 -0.00000000000E+00 -0.52779636802E+02  0.52779636802E+02  0.00000000000E+00 0. -1.
         21    1    1    2  503  501  0.67778972837E+02  0.15374954356E+02  0.10380325625E+03  0.12492195319E+03  0.00000000000E+00 0. -1.
         21    1    1    2  504  502  0.42919714781E+01  0.91225410193E+02  0.10944768460E+02  0.91979804526E+02  0.00000000000E+00 0. -1.
         21    1    1    2  505  504 -0.24754259957E+02 -0.40242111225E+02  0.48706816821E+03  0.48935426981E+03  0.00000000000E+00 0. -1.
          2    1    1    2  501    0 -0.47316684358E+02 -0.66358253324E+02  0.29662327667E+04  0.29673522057E+04  0.00000000000E+00 0. -1.
<scales pt_clust_3="68.30574" pt_clust_4="123.25764" pt_clust_5="47.24617" pt_clust_6="14000.00000"></scales>
<clustering>
<clus scale="   47.246">  1  5  2 -1</clus>
<clus scale="   68.306">  2  3  1 -1</clus>
<clus scale="  123.258">  2  4  1 -1</clus>
<clus scale="   68.306">  2  3  1 -1</clus>
</clustering>
</event>
<event>
 6    0  0.1849053E+002  0.1288204E+03  0.7546771E-02  0.1229217E+00
         21   -1    0    0  505  502  0.00000000000E+00  0.00000000000E+00  0.34627153742E+02  0.34627153742E+02  0.00000000000E+00 0.  1.
          2   -1    0    0  504    0 -0.00000000000E+00 -0.00000000000E+00 -0.23069765952E+04  0.23069765952E+04  0.00000000000E+00 0. -1.
         21    1    1    2  503  501  0.11458503233E+03 -0.51974835186E+02 -0.12447595354E+03  0.17698976280E+03  0.00000000000E+00 0.  1.
         21    1    1    2  504  502 -0.30217304523E+02  0.19689344888E+02 -0.21473925575E+03  0.21774688002E+03  0.00000000000E+00 0.  1.
         21    1    1    2  505  503 -0.90855349218E+01 -0.29694798520E+02 -0.37334939371E+02  0.48561566097E+02  0.00000000000E+00 0.  1.
          2    1    1    2  501    0 -0.75282192880E+02  0.61980288818E+02 -0.18957992928E+04  0.18983055400E+04  0.00000000000E+00 0. -1.
<scales pt_clust_3="128.82041" pt_clust_4="35.65386" pt_clust_5="31.05363" pt_clust_6="14000.00000"></scales>
<clustering>
<clus scale="   31.054">  1  5  2 -1</clus>
<clus scale="   35.654">  2  4  1 -1</clus>
<clus scale="  128.820">  1  3  2 -1</clus>
<clus scale="   31.054">  1  3  2 -1</clus>
</clustering>
</event>
<event>
 6    0  0.1849053E+002  0.1492493E+03  0.7546771E-02  0.1201399E+00
         -3   -1    0    0    0  501 -0.00000000000E+00  0.00000000000E+00  0.21905230767E+03  0.21905230767E+03  0.00000000000E+00 0.  1.
         21   -1    0    0  503  502  0.00000000000E+00 -0.00000000000E+00 -0.14511543374E+03  0.14511543374E+03  0.00000000000E+00 0. -1.
         21    1    1    2  503  504 -0.73987499906E+01  0.43301913231E+02 -0.40096489092E+02  0.59477101715E+02  0.00000000000E+00 0. -1.
         21    1    1    2  504  501  0.38056625976E+02  0.86086447405E+02 -0.28470483500E+02  0.98334895324E+02  0.00000000000E+00 0. -1.
         21    1    1    2  505  502 -0.36273362897E+02 -0.46631209967E+02  0.29105698534E+02  0.65858699395E+02  0.00000000000E+00 0.  1.
         -3    1    1    2    0  505  0.56154869116E+01 -0.82757150670E+02  0.11339814799E+03  0.14049704498E+03  0.00000000000E+00 0.  1.
<scales pt_clust_3="34.30814" pt_clust_4="142.13795" pt_clust_5="57.20208" pt_clust_6="57.20208"></scales>
<clustering>
<clus scale="   34.308">  3  4 -1 -1</clus>
<clus scale="   57.202">  5  6 -1 -1</clus>
<clus scale="  142.138">  2  3  1 -1</clus>
<clus scale="  142.138">  2  3  1 -1</clus>
</clustering>
</event>
<event>
 6    0  0.1849053E+002  0.6490741E+02  0.7546771E-02  0.1378320E+00
         21   -1    0    0  504  502  0.00000000000E+00  0.00000000000E+00  0.27978677101E+03  0.27978677101E+03  0.00000000000E+00 0. -1.
         -2   -1    0    0    0  501 -0.00000000000E+00 -0.00000000000E+00 -0.72798725068E+03  0.72798725068E+03  0.00000000000E+00 0. -1.
         21    1    1    2  503  502  0.28296322812E+00 -0.80041089200E+02  0.14274911002E+03  0.16365807173E+03  0.00000000000E+00 0. -1.
         21    1    1    2  504  505  0.35028209883E+02  0.48480476699E+02  0.11188849201E+03  0.12687145759E+03  0.00000000000E+00 0. -1.
         21    1    1    2  505  501  0.43415536929E+02  0.34472060094E+02 -0.17530962895E+03  0.18386597776E+03  0.00000000000E+00 0. -1.
         -2    1    1    2    0  503 -0.78726710040E+02 -0.29114475933E+01 -0.52752845274E+03  0.53337851461E+03  0.00000000000E+00 0. -1.
<scales pt_clust_3="14000.00000" pt_clust_4="64.90741" pt_clust_5="55.43674" pt_clust_6="47.70087"></scales>
<clustering>
<clus scale="   55.437">  2  5  1 -1</clus>
<clus scale="   47.701">  2  6  1 -1</clus>
<clus scale="   64.907">  1  4  2 -1</clus>
<clus scale="   64.907">  1  3  2 -1</clus>
</clustering>
</event>
<event>
 6    0  0.1849053E+002  0.1186826E+03  0.7546771E-02  0.1245286E+00
          2   -1    0    0  504    0 -0.00000000000E+00  0.00000000000E+00  0.21388464262E+04  0.21388464262E+04  0.00000000000E+00 0.  1.
         21   -1    0    0  503  502  0.00000000000E+00 -0.00000000000E+00 -0.51146827167E+02  0.51146827167E+02  0.00000000000E+00 0.  1.
         21    1    1    2  503  505 -0.17437096367E+02 -0.43542786007E+02 -0.51683704676E+01  0.47188331146E+02  0.00000000000E+00 0.  1.
         21    1    1    2  504  502  0.65845139160E+02 -0.19009387577E+02  0.20206816334E+03  0.21337404201E+03  0.00000000000E+00 0.  1.
         21    1    1    2  505  501 -0.48684527137E+02 -0.63015934297E+02  0.75307031236E+02  0.10960082167E+03  0.00000000000E+00 0.  1.
          2    1    1    2  501    0  0.27648434457E+00  0.12556810788E+03  0.18154927749E+04  0.18198300586E+04  0.00000000000E+00 0.  1.
<scales pt_clust_3="46.90444" pt_clust_4="68.29801" pt_clust_5="14000.00000" pt_clust_6="118.68260"></scales>
<clustering>
<clus scale="   46.904">  2  3  1 -1</clus>
<clus scale="   68.298">  2  4  1 -1</clus>
<clus scale="  118.683">  1  6  2 -1</clus>
<clus scale="   46.904">  2  3  1 -1</clus>
</clustering>
</event>
<event>
 6    0  0.1849053E+002  0.1515854E+03  0.7546771E-02  0.1198538E+00
         21   -1    0    0  504  502  0.00000000000E+00  0.00000000000E+00  0.72994340404E+02  0.72994340404E+02  0.00000000000E+00 0. -1.
          2   -1    0    0  503    0 -0.00000000000E+00 -0.00000000000E+00 -0.59259992759E+03  0.59259992759E+03  0.00000000000E+00 0. -1.
         21    1    1    2  503  502 -0.79616728732E+02  0.99287450607E+02 -0.83994151346E+02  0.15248553637E+03  0.00000000000E+00 0. -1.
         21    1    1    2  504  505 -0.58388722391E+02 -0.40221044270E+02 -0.30743277233E+02  0.77279521218E+02  0.00000000000E+00 0.  1.
         21    1    1    2  505  501  0.62869087052E+02 -0.12321824313E+02 -0.10336712518E+03  0.12161049309E+03  0.00000000000E+00 0. -1.
          2    1    1    2  501    0  0.75136364072E+02 -0.46744582025E+02 -0.30150103343E+03  0.31421871732E+03  0.00000000000E+00 0. -1.
<scales pt_clust_3="139.58368" pt_clust_4="70.90117" pt_clust_5="50.29881" pt_clust_6="50.29881"></scales>
<clustering>
<clus scale="   50.299">  5  6 -1 -1</clus>
<clus scale="   70.901">  1  4  2 -1</clus>
<clus scale="  139.584">  1  3  2 -1</clus>
<clus scale="   70.901">  1  3  2 -1</clus>
</clustering>
</event>
<event>
 6    0  0.4809708E+002  0.5829510E+02  0.7546771E-02  0.1405129E+00
          1   -1    0    0  505    0 -0.00000000000E+00  0.00000000000E+00  0.20004069956E+04  0.20004069956E+04  0.00000000000E+00 0.  1.
         21   -1    0    0  504  502  0.00000000000E+00 -0.00000000000E+00 -0.98195124226E+03  0.98195124226E+03  0.00000000000E+00 0.  1.
         21    1    1    2  503  502 -0.18547685752E+02 -0.32675794351E+02 -0.36642899840E+02  0.52482628478E+02  0.00000000000E+00 0. -1.
         21    1    1    2  504  501  0.39514502414E+02  0.86492966359E+02 -0.92370615860E+03  0.92858790459E+03  0.00000000000E+00 0.  1.
         21    1    1    2  505  503  0.49561872787E+02  0.20003251533E+01  0.50149280157E+02  0.70536025087E+02  0.00000000000E+00 0.  1.
          1    1    1    2  501    0 -0.70528689448E+02 -0.55817497160E+02  0.19286555316E+04  0.19307516797E+04  0.00000000000E+00 0.  1.
<scales pt_clust_3="37.57292" pt_clust_4="58.29510" pt_clust_5="49.38758" pt_clust_6="14000.00000"></scales>
<clustering>
<clus scale="   37.573">  2  3  1 -1</clus>
<clus scale="   49.388">  1  5  2 -1</clus>
<clus scale="   58.295">  2  4  1 -1</clus>
<clus scale="   37.573">  2  3  1 -1</clus>
</clustering>
</event>
<event>
 6    0  0.1849053E+002  0.1528754E+03  0.7546771E-02  0.1196984E+00
          2   -1    0    0  502    0 -0.00000000000E+00  0.00000000000E+00  0.14232887760E+04  0.14232887760E+04  0.00000000000E+00 0.  1.
         21   -1    0    0  503  502  0.00000000000E+00 -0.00000000000E+00 -0.26291097135E+03  0.26291097135E+03  0.00000000000E+00 0.  1.
         21    1    1    2  503  505 -0.24360085695E+01 -0.94009587497E+02 -0.65283575131E+02  0.11448005006E+03  0.00000000000E+00 0.  1.
         21    1    1    2  504  501 -0.14569492308E+03  0.14325602003E+02  0.22644784752E+03  0.26964951535E+03  0.00000000000E+00 0. -1.
         21    1    1    2  505  504  0.11684428931E+03 -0.38504622624E+02 -0.12255921516E+03  0.17365470085E+03  0.00000000000E+00 0.  1.
          2    1    1    2  501    0  0.31286642339E+02  0.11818860812E+03  0.11217727475E+04  0.11284154811E+04  0.00000000000E+00 0.  1.
<scales pt_clust_3="94.04114" pt_clust_4="152.87535" pt_clust_5="14000.00000" pt_clust_6="120.50385"></scales>
<clustering>
<clus scale="   94.041">  2  3  1 -1</clus>
<clus scale="  120.504">  1  6  2 -1</clus>
<clus scale="  152.875">  1  4  2 -1</clus>
<clus scale="   94.041">  2  3  1 -1</clus>
</clustering>
</event>
<event>
 6    0  0.1849053E+002  0.7376226E+02  0.7546771E-02  0.1347747E+00
         21   -1    0    0  504  502  0.00000000000E+00  0.00000000000E+00  0.79555447646E+02  0.79555447646E+02  0.00000000000E+00 0.  1.
          2   -1    0    0  505    0 -0.00000000000E+00 -0.00000000000E+00 -0.10563721010E+04  0.10563721010E+04  0.00000000000E+00 0. -1.
         21    1    1    2  503  501 -0.94741437462E+02 -0.24424138824E+02 -0.66793437860E+03  0.67506208058E+03  0.00000000000E+00 0. -1.
         21    1    1    2  504  503  0.58892523356E+02 -0.50340580281E+02  0.45861904615E+02  0.90032314338E+02  0.00000000000E+00 0.  1.
         21    1    1    2  505  502  0.10813363410E+02  0.28504557024E+02 -0.33437251758E+02  0.45249181258E+02  0.00000000000E+00 0.  1.
          2    1    1    2  501    0  0.25035550696E+02  0.46260162081E+02 -0.32130692761E+03  0.32558397246E+03  0.00000000000E+00 0. -1.
<scales pt_clust_3="14000.00000" pt_clust_4="73.76226" pt_clust_5="30.48670" pt_clust_6="53.47769"></scales>
<clustering>
<clus scale="   30.487">  1  5  2 -1</clus>
<clus scale="   53.478">  2  6  1 -1</clus>
<clus scale="   73.762">  1  4  2 -1</clus>
<clus scale="   30.487">  1  3  2 -1</clus>
</clustering>
</event>
<event>
 6    0  0.1849053E+002  0.1361165E+03  0.7546771E-02  0.1218652E+00
          1   -1    0    0  504    0 -0.00000000000E+00  0.00000000000E+00  0.10124931939E+04  0.10124931939E+04  0.00000000000E+00 0. -1.
         21   -1    0    0  501  502  0.00000000000E+00 -0.00000000000E+00 -0.30492007254E+02  0.30492007254E+02  0.00000000000E+00 0.  1.
         21    1    1    2  503  505  0.33557961626E+02 -0.30612352509E+02  0.88645727054E+02  0.99605812278E+02  0.00000000000E+00 0.  1.
         21    1    1    2  504  503  0.32387314969E+02  0.15624821073E+02  0.12623744568E+03  0.13125915548E+03  0.00000000000E+00 0.  1.
         21    1    1    2  505  502  0.14433952156E+02 -0.87084146679E+02  0.10407477245E+03  0.13646811290E+03  0.00000000000E+00 0.  1.
          1    1    1    2  501    0 -0.80379228751E+02  0.10207167812E+03  0.66304324145E+03  0.67565212049E+03  0.00000000000E+00 0. -1.
<scales pt_clust_3="35.39060" pt_clust_4="35.95933" pt_clust_5="35.39060" pt_clust_6="126.86086"></scales>
<clustering>
<clus scale="   35.391">  3  5 -1 -1</clus>
<clus scale="   35.959">  1  4  2 -1</clus>
<clus scale="  126.861">  1  6  2 -1</clus>
<clus scale="  136.116">  2  3  1 -1</clus>
</clustering>
</event>
<event>
 6    0  0.1849053E+002  0.2706996E+03  0.7546771E-02  0.1100880E+00
          2   -1    0    0  504    0 -0.00000000000E+00  0.00000000000E+00  0.19726019860E+04  0.19726019860E+04  0.00000000000E+00 0. -1.
         21   -1    0    0  503  502  0.00000000000E+00 -0.00000000000E+00 -0.62980718267E+03  0.62980718267E+03  0.00000000000E+00 0. -1.
         21    1    1    2  503  505 -0.13608053529E+02  0.54064456373E+02 -0.11940604807E+03  0.13177992593E+03  0.00000000000E+00 0. -1.
         21    1    1    2  504  502  0.14294942910E+03  0.71777408640E+01  0.25355557282E+03  0.29116402207E+03  0.00000000000E+00 0. -1.
         21    1    1    2  505  501 -0.23712715926E+03  0.60555507757E+02 -0.45033014256E+03  0.51253633674E+03  0.00000000000E+00 0. -1.
          2    1    1    2  501    0  0.10778578368E+03 -0.12179770499E+03  0.16589754211E+04  0.16669288839E+04  0.00000000000E+00 0. -1.
<scales pt_clust_3="55.75074" pt_clust_4="142.73834" pt_clust_5="270.69964" pt_clust_6="14000.00000"></scales>
<clustering>
<clus scale="   55.751">  2  3  1 -1</clus>
<clus scale="  142.738">  1  4  2 -1</clus>
<clus scale="  270.700">  2  5  1 -1</clus>
<clus scale="   55.751">  2  3  1 -1</clus>
</clustering>
</event>
<event>
 6    0  0.1849053E+002  0.1452464E+03  0.7546771E-02  0.1206439E+00
         21   -1    0    0  504  502  0.00000000000E+00  0.00000000000E+00  0.19483704801E+03  0.19483704801E+03  0.00000000000E+00 0.  1.
          2   -1    0    0  503    0 -0.00000000000E+00 -0.00000000000E+00 -0.97801361880E+03  0.97801361880E+03  0.00000000000E+00 0. -1.
         21    1    1    2  503  505 -0.14692130254E+03 -0.54983769294E+02 -0.16055316105E+03  0.22446915500E+03  0.00000000000E+00 0.  1.
         21    1    1    2  504  501  0.33442852083E+02  0.57444045566E+02  0.15120457010E+02  0.68167961291E+02  0.00000000000E+00 0.  1.
         21    1    1    2  505  502 -0.31184453638E+02  0.18388133601E+02  0.11130191567E+03  0.11704148854E+03  0.00000000000E+00 0.  1.
          2    1    1    2  501    0  0.14466290409E+03 -0.20848409873E+02 -0.74904578243E+03  0.76317206198E+03  0.00000000000E+00 0. -1.
<scales pt_clust_3="14000.00000" pt_clust_4="69.14748" pt_clust_5="36.20212" pt_clust_6="145.24642"></scales>
<clustering>
<clus scale="   36.202">  1  5  2 -1</clus>
<clus scale="   69.147">  1  4  2 -1</clus>
<clus scale="  145.246">  2  6  1 -1</clus>
<clus scale="   36.202">  1  3  2 -1</clus>
</clustering>
</event>
<event>
 6    0  0.1849053E+002  0.1925136E+03  0.7546771E-02  0.1156214E+00
         21   -1    0    0  504  502  0.00000000000E+00  0.00000000000E+00  0.16350612068E+04  0.16350612068E+04  0.00000000000E+00 0.  1.
          2   -1    0    0  503    0 -0.00000000000E+00 -0.00000000000E+00 -0.21479462161E+03  0.21479462161E+03  0.00000000000E+00 0. -1.
         21    1    1    2  503  502 -0.72510450692E+02 -0.16621702480E+02  0.50686618697E+03  0.51229618186E+03  0.00000000000E+00 0.  1.
         21    1    1    2  504  505 -0.86515855668E+02  0.90190211846E+02  0.10764314888E+04  0.10836623171E+04  0.00000000000E+00 0.  1.
         21    1    1    2  505  501  0.84116956741E+02 -0.18998511756E+02 -0.29073233677E+02  0.91004718431E+02  0.00000000000E+00 0. -1.
          2    1    1    2  501    0  0.74909349620E+02 -0.54569997610E+02 -0.13395785685E+03  0.16289261098E+03  0.00000000000E+00 0. -1.
<scales pt_clust_3="74.39117" pt_clust_4="172.85389" pt_clust_5="81.15062" pt_clust_6="81.15062"></scales>
<clustering>
<clus scale="   74.391">  1  3  2 -1</clus>
<clus scale="   81.151">  5  6 -1 -1</clus>
<clus scale="  172.854">  1  4  2 -1</clus>
<clus scale="   74.391">  1  3  2 -1</clus>
</clustering>
</event>
<event>
 6    0  0.1849053E+002  0.1028643E+03  0.7546771E-02  0.1274386E+00
         -1   -1    0    0    0  501 -0.00000000000E+00  0.00000000000E+00  0.12059463499E+03  0.12059463499E+03  0.00000000000E+00 0.  1.
         21   -1    0    0  503  502  0.00000000000E+00 -0.00000000000E+00 -0.53469483349E+03  0.53469483349E+03  0.00000000000E+00 0.  1.
         21    1    1    2  503  501 -0.68862281435E+02 -0.32762976035E+02 -0.16920392280E+03  0.18559470330E+03  0.00000000000E+00 0.  1.
         21    1    1    2  504  502 -0.28165105602E+02 -0.56599495108E+02 -0.29543785236E+03  0.30212629913E+03  0.00000000000E+00 0.  1.
         21    1    1    2  505  504  0.86007495261E+02  0.33069938510E+02  0.15908909873E+01  0.92159866582E+02  0.00000000000E+00 0.  1.
         -1    1    1    2    0  505  0.11019891775E+02  0.56292532633E+02  0.48950685677E+02  0.75408599464E+02  0.00000000000E+00 0.  1.
<scales pt_clust_3="14000.00000" pt_clust_4="60.06009" pt_clust_5="102.86429" pt_clust_6="57.36103"></scales>
<clustering>
<clus scale="   57.361">  1  6  2 -1</clus>
<clus scale="   60.060">  2  4  1 -1</clus>
<clus scale="  102.864">  1  5  2 -1</clus>
<clus scale="   60.060">  2  3  1 -1</clus>
</clustering>
</event>
<event>
 6    0  0.1849053E+002  0.1570667E+03  0.7546771E-02  0.1192049E+00
          2   -1    0    0  504    0 -0.00000000000E+00  0.00000000000E+00  0.10369624823E+04  0.10369624823E+04  0.00000000000E+00 0. -1.
         21   -1    0    0  503  502  0.00000000000E+00 -0.00000000000E+00 -0.13320293361E+03  0.13320293361E+03  0.00000000000E+00 0.  1.
         21    1    1    2  503  505 -0.52213248639E+02 -0.91119596161E+02 -0.37749585426E+02  0.11159764934E+03  0.00000000000E+00 0.  1.
         21    1    1    2  504  502 -0.92124031666E+02  0.74309133838E+01  0.55406109839E+03  0.56171679380E+03  0.00000000000E+00 0. -1.
         21    1    1    2  505  501 -0.44361174898E+02 -0.95508320080E+01 -0.10583653003E+02  0.46595557098E+02  0.00000000000E+00 0.  1.
          2    1    1    2  501    0  0.18869845520E+03  0.93239514785E+02  0.39803168876E+03  0.45025541570E+03  0.00000000000E+00 0. -1.
<scales pt_clust_3="37.34587" pt_clust_4="92.42324" pt_clust_5="37.34587" pt_clust_6="146.43123"></scales>
<clustering>
<clus scale="   37.346">  3  5 -1 -1</clus>
<clus scale="   92.423">  1  4  2 -1</clus>
<clus scale="  146.431">  1  6  2 -1</clus>
<clus scale="  157.067">  2  3  1 -1</clus>
</clustering>
</event>
<event>
 6    0  0.2822383E+002  0.1238406E+03  0.7546771E-02  0.1236892E+00
         21   -1    0    0  504  502  0.00000000000E+00  0.00000000000E+00  0.21351824664E+03  0.21351824664E+03  0.00000000000E+00 0.  1.
          1   -1    0    0  503    0 -0.00000000000E+00 -0.00000000000E+00 -0.21596525996E+04  0.21596525996E+04  0.00000000000E+00 0.  1.
         21    1    1    2  503  502  0.11280296180E+03 -0.56474060371E+02  0.18366680888E+03  0.22281679553E+03  0.00000000000E+00 0.  1.
         21    1    1    2  504  505 -0.26013807023E+02 -0.18552315655E+02 -0.21703723010E+02  0.38625874288E+02  0.00000000000E+00 0. -1.
         21    1    1    2  505  501 -0.38916690724E+02  0.18807614772E+02 -0.47507711979E+03  0.47703931174E+03  0.00000000000E+00 0.  1.
          1    1    1    2  501    0 -0.47872464049E+02  0.56218761254E+02 -0.16330203191E+04  0.16346888647E+04  0.00000000000E+00 0.  1.
<scales pt_clust_3="114.78991" pt_clust_4="31.95163" pt_clust_5="35.58380" pt_clust_6="35.58380"></scales>
<clustering>
<clus scale="   31.952">  1  4  2 -1</clus>
<clus scale="   35.584">  5  6 -1 -1</clus>
<clus scale="  114.790">  1  3  2 -1</clus>
<clus scale="   31.952">  1  3  2 -1</clus>
</clustering>
</event>
<event>
 6    0  0.1849053E+002  0.7659463E+02  0.7546771E-02  0.1339003E+00
          3   -1    0    0  503    0 -0.00000000000E+00  0.00000000000E+00  0.26664733312E+03  0.26664733312E+03  0.00000000000E+00 0. -1.
         21   -1    0    0  504  502  0.00000000000E+00 -0.00000000000E+00 -0.14813244550E+03  0.14813244550E+03  0.00000000000E+00 0. -1.
         21    1    1    2  503  505 -0.17046526424E+02  0.94507296187E+02  0.11578381907E+03  0.15042641342E+03  0.00000000000E+00 0. -1.
         21    1    1    2  504  501 -0.29986196893E+02 -0.35931197032E+02 -0.72687008573E+02  0.86450125156E+02  0.00000000000E+00 0. -1.
         21    1    1    2  505  502 -0.31747571498E+02 -0.47623455471E+02 -0.13290530401E+02  0.58758318605E+02  0.00000000000E+00 0. -1.
          3    1    1    2  501    0  0.78780294814E+02 -0.10952643684E+02  0.88708607525E+02  0.11914492143E+03  0.00000000000E+00 0. -1.
<scales pt_clust_3="14000.00000" pt_clust_4="46.79982" pt_clust_5="76.59463" pt_clust_6="74.56695"></scales>
<clustering>
<clus scale="   46.800">  2  4  1 -1</clus>
<clus scale="   74.567">  1  6  2 -1</clus>
<clus scale="   76.595">  2  5  1 -1</clus>
<clus scale="   46.800">  2  3  1 -1</clus>
</clustering>
</event>
<event>
 6    0  0.1849053E+002  0.1098453E+03  0.7546771E-02  0.1260857E+00
          1   -1    0    0  504    0 -0.00000000000E+00  0.00000000000E+00  0.69707011164E+03  0.69707011164E+03  0.00000000000E+00 0.  1.
         21   -1    0    0  501  502  0.00000000000E+00 -0.00000000000E+00 -0.74269900446E+02  0.74269900446E+02  0.00000000000E+00 0.  1.
         21    1    1    2  503  505 -0.59909315197E+01  0.10254246041E+03  0.17365671818E+02  0.10417492023E+03  0.00000000000E+00 0.  1.
         21    1    1    2  504  503  0.61177981081E+02 -0.12614096179E+03  0.45838361648E+03  0.47934312081E+03  0.00000000000E+00 0.  1.
         21    1    1    2  505  502 -0.40704989411E+02 -0.66451799724E+01  0.46254870993E+01  0.41502406084E+02  0.00000000000E+00 0.  1.
          1    1    1    2  501    0 -0.14482060150E+02  0.30243681353E+02  0.14242543580E+03  0.14631956496E+03  0.00000000000E+00 0.  1.
<scales pt_clust_3="14000.00000" pt_clust_4="109.84532" pt_clust_5="41.65859" pt_clust_6="33.53223"></scales>
<clustering>
<clus scale="   33.532">  1  6  2 -1</clus>
<clus scale="   41.659">  2  5  1 -1</clus>
<clus scale="  109.845">  1  4  2 -1</clus>
<clus scale="   41.659">  2  3  1 -1</clus>
</clustering>
</event>
<event>
 6    0  0.1849053E+002  0.7304166E+02  0.7546771E-02  0.1350045E+00
         21   -1    0    0  505  502  0.00000000000E+00  0.00000000000E+00  0.12198340079E+03  0.12198340079E+03  0.00000000000E+00 0. -1.
         -3   -1    0    0    0  501 -0.00000000000E+00 -0.00000000000E+00 -0.54791919963E+03  0.54791919963E+03  0.00000000000E+00 0.  1.
         21    1    1    2  503  502 -0.44276775144E+02 -0.94734727827E+01  0.76016988445E+02  0.88480291794E+02  0.00000000000E+00 0. -1.
         21    1    1    2  504  501 -0.75326510480E+02  0.31704693711E+02 -0.27045921314E+03  0.28253753158E+03  0.00000000000E+00 0.  1.
         21    1    1    2  505  504  0.50009995338E+02 -0.29480662224E+02 -0.10599013114E+01  0.58062315400E+02  0.00000000000E+00 0. -1.
         -3    1    1    2    0  503  0.69593290286E+02  0.72494412954E+01 -0.23043367284E+03  0.24082246164E+03  0.00000000000E+00 0.  1.
<scales pt_clust_3="45.27891" pt_clust_4="14000.00000" pt_clust_5="40.60827" pt_clust_6="73.04166"></scales>
<clustering>
<clus scale="   45.279">  1  3  2 -1</clus>
<clus scale="   40.608">  1  5  2 -1</clus>
<clus scale="   73.042">  2  6  1 -1</clus>
<clus scale="   45.279">  1  3  2 -1</clus>
</clustering>
</event>
<event>
 6    0  0.1849053E+002  0.1463179E+03  0.7546771E-02  0.1205072E+00
          2   -1    0    0  503    0 -0.00000000000E+00  0.00000000000E+00  0.34010892874E+04  0.34010892874E+04  0.00000000000E+00 0.  1.
         21   -1    0    0  505  502  0.00000000000E+00 -0.00000000000E+00 -0.10094610252E+03  0.10094610252E+03  0.00000000000E+00 0. -1.
         21    1    1    2  503  502 -0.86410384859E+02  0.37032675209E+02 -0.66030181541E+02  0.11488323863E+03  0.00000000000E+00 0. -1.
         21    1    1    2  504  501  0.49988344112E+02 -0.71434380479E+02  0.16127807107E+04  0.16151356990E+04  0.00000000000E+00 0.  1.
         21    1    1    2  505  504 -0.96139809738E+01  0.67652462233E+02  0.12357138222E+03  0.14120612869E+03  0.00000000000E+00 0.  1.
          2    1    1    2  501    0  0.46036021720E+02 -0.33250756963E+02  0.16298212735E+04  0.16308103236E+04  0.00000000000E+00 0.  1.
<scales pt_clust_3="141.03411" pt_clust_4="31.44710" pt_clust_5="68.33216" pt_clust_6="31.44710"></scales>
<clustering>
<clus scale="   31.447">  4  6 -1 -1</clus>
<clus scale="   68.332">  2  5  1 -1</clus>
<clus scale="  141.034">  2  3  1 -1</clus>
<clus scale="   68.332">  2  3  1 -1</clus>
</clustering>
</event>
<event>
 6    0  0.1849053E+002  0.2708566E+03  0.7546771E-02  0.1100790E+00
         21   -1    0    0  505  502  0.00000000000E+00  0.00000000000E+00  0.18383439807E+04  0.18383439807E+04  0.00000000000E+00 0. -1.
         -4   -1    0    0    0  501 -0.00000000000E+00 -0.00000000000E+00 -0.57272592528E+03  0.57272592528E+03  0.00000000000E+00 0.  1.
         21    1    1    2  503  501  0.80719291004E+02 -0.47422347739E+02 -0.42411917889E+01  0.93714837209E+02  0.00000000000E+00 0. -1.
         21    1    1    2  504  503 -0.19736192369E+03  0.10183822240E+03  0.14859270067E+04  0.15024319691E+04  0.00000000000E+00 0. -1.
         21    1    1    2  505  504  0.34283753726E+01  0.96191212471E+02  0.27371724767E+03  0.29014760862E+03  0.00000000000E+00 0.  1.
         -4    1    1    2    0  502  0.11321425732E+03 -0.15060708713E+03 -0.48978500718E+03  0.52477549106E+03  0.00000000000E+00 0.  1.
<scales pt_clust_3="93.61882" pt_clust_4="270.85662" pt_clust_5="95.56275" pt_clust_6="14000.00000"></scales>
<clustering>
<clus scale="   93.619">  2  3  1 -1</clus>
<clus scale="   95.563">  1  5  2 -1</clus>
<clus scale="  270.857">  1  4  2 -1</clus>
<clus scale="   95.563">  1  3  2 -1</clus>
</clustering>
</event>
<event>
 6    0  0.1849053E+002  0.2159976E+03  0.7546771E-02  0.1136903E+00
         21   -1    0    0  505  502  0.00000000000E+00  0.00000000000E+00  0.18221058894E+04  0.18221058894E+04  0.00000000000E+00 0.  1.
          1   -1    0    0  504    0 -0.00000000000E+00 -0.00000000000E+00 -0.29578458708E+03  0.29578458708E+03  0.00000000000E+00 0. -1.
         21    1    1    2  503  502  0.12648329996E+03 -0.12854473456E+03  0.14695691504E+04  0.14805928750E+04  0.00000000000E+00 0.  1.
         21    1    1    2  504  503 -0.51888070280E+02  0.17397410221E+02  0.45935574789E+02  0.71450113723E+02  0.00000000000E+00 0.  1.
         21    1    1    2  505  501  0.82946024444E+02  0.53110525879E+02  0.25280908783E+03  0.27131753688E+03  0.00000000000E+00 0. -1.
          1    1    1    2  501    0 -0.15754125413E+03  0.58036798464E+02 -0.24199251065E+03  0.29452995084E+03  0.00000000000E+00 0. -1.
<scales pt_clust_3="14000.00000" pt_clust_4="54.72697" pt_clust_5="97.38041" pt_clust_6="215.99758"></scales>
<clustering>
<clus scale="   54.727">  2  4  1 -1</clus>
<clus scale="   97.380">  1  5  2 -1</clus>
<clus scale="  215.998">  2  6  1 -1</clus>
<clus scale="   97.380">  1  3  2 -1</clus>
</clustering>
</event>
<event>
 6    0  0.1849053E+002  0.9221417E+02  0.7546771E-02  0.1297577E+00
         21   -1    0    0  503  502  0.00000000000E+00  0.00000000000E+00  0.10309873029E+04  0.10309873029E+04  0.00000000000E+00 0. -1.
          2   -1    0    0  505    0 -0.00000000000E+00 -0.00000000000E+00 -0.20615237376E+03  0.20615237376E+03  0.00000000000E+00 0. -1.
         21    1    1    2  503  501  0.12054879719E+03 -0.55993445587E+02 -0.12264624999E+03  0.18085735011E+03  0.00000000000E+00 0. -1.
         21    1    1    2  504  502 -0.44629836116E+02  0.80432416804E+02  0.95254243165E+03  0.95697350018E+03  0.00000000000E+00 0. -1.
         21    1    1    2  505  504 -0.27691550866E+02 -0.17530870522E+02  0.25736088053E+02  0.41671328739E+02  0.00000000000E+00 0. -1.
          2    1    1    2  501    0 -0.48227410205E+02 -0.69081006953E+01 -0.30797340555E+02  0.57637497651E+02  0.00000000000E+00 0. -1.
<scales pt_clust_3="14000.00000" pt_clust_4="92.21417" pt_clust_5="32.77428" pt_clust_6="55.47111"></scales>
<clustering>
<clus scale="   32.774">  2  5  1 -1</clus>
<clus scale="   55.471">  2  6  1 -1</clus>
<clus scale="   92.214">  1  4  2 -1</clus>
<clus scale="   92.214">  1  3  2 -1</clus>
</clustering>
</event>
<event>
 6    0  0.1849053E+002  0.1929572E+03  0.7546771E-02  0.1155821E+00
          2   -1    0    0  504    0 -0.00000000000E+00  0.00000000000E+00  0.30194096298E+04  0.30194096298E+04  0.00000000000E+00 0. -1.
         21   -1    0    0  503  502  0.00000000000E+00 -0.00000000000E+00 -0.99419965736E+03  0.99419965736E+03  0.00000000000E+00 0.  1.
         21    1    1    2  503  505 -0.25779434922E+02  0.22676051448E+02 -0.14290926890E+03  0.14697565006E+03  0.00000000000E+00 0.  1.
         21    1    1    2  504  502  0.24072872023E+03  0.11646969772E+03  0.55381965987E+03  0.61500546574E+03  0.00000000000E+00 0. -1.
         21    1    1    2  505  501 -0.15509524928E+03 -0.24827952054E+02 -0.80939824835E+03  0.82449771861E+03  0.00000000000E+00 0.  1.
          2    1    1    2  501    0 -0.59854036027E+02 -0.11431779712E+03  0.24236978298E+04  0.24271304527E+04  0.00000000000E+00 0. -1.
<scales pt_clust_3="30.12092" pt_clust_4="181.88421" pt_clust_5="30.12092" pt_clust_6="129.03900"></scales>
<clustering>
<clus scale="   30.121">  3  5 -1 -1</clus>
<clus scale="  129.039">  1  6  2 -1</clus>
<clus scale="  181.884">  1  4  2 -1</clus>
<clus scale="  192.957">  2  3  1 -1</clus>
</clustering>
</event>
<event>
 6    0  0.1849053E+002  0.2802341E+03  0.7546771E-02  0.1095561E+00
         -1   -1    0    0    0  501 -0.00000000000E+00  0.00000000000E+00  0.13567071157E+04  0.13567071157E+04  0.00000000000E+00 0.  1.
         21   -1    0    0  501  502  0.00000000000E+00 -0.00000000000E+00 -0.73836456755E+02  0.73836456755E+02  0.00000000000E+00 0.  1.
         21    1    1    2  503  502  0.59574067202E+02 -0.12806236606E+03  0.16283895035E+03  0.21555872248E+03  0.00000000000E+00 0.  1.
         21    1    1    2  504  503  0.15302232139E+02 -0.12272340024E+03  0.10581084228E+03  0.16276094623E+03  0.00000000000E+00 0.  1.
         21    1    1    2  505  504 -0.44292901667E+02  0.10876502640E+03  0.27768452146E+03  0.30149690805E+03  0.00000000000E+00 0.  1.
         -1    1    1    2    0  505 -0.30583397674E+02  0.14202073990E+03  0.73653634489E+03  0.75072699573E+03  0.00000000000E+00 0.  1.
<scales pt_clust_3="266.37016" pt_clust_4="46.34638" pt_clust_5="90.04999" pt_clust_6="90.04999"></scales>
<clustering>
<clus scale="   46.346">  3  4 -1 -1</clus>
<clus scale="   90.050">  5  6 -1 -1</clus>
<clus scale="  266.370">  2  3  1 -1</clus>
<clus scale="  266.370">  2  3  1 -1</clus>
</clustering>
</event>
<event>
 6    0  0.1849053E+002  0.1477972E+03  0.7546771E-02  0.1203206E+00
         -1   -1    0    0    0  501 -0.00000000000E+00  0.00000000000E+00  0.13678146047E+04  0.13678146047E+04  0.00000000000E+00 0.  1.
         21   -1    0    0  503  502  0.00000000000E+00 -0.00000000000E+00 -0.23349864738E+03  0.23349864738E+03  0.00000000000E+00 0. -1.
         21    1    1    2  503  501 -0.12506365792E+03  0.18135923634E+02 -0.19559341500E+03  0.23286608651E+03  0.00000000000E+00 0. -1.
         21    1    1    2  504  505  0.41506847918E+02 -0.17362034721E+02  0.30741648240E+03  0.31069141012E+03  0.00000000000E+00 0.  1.
         21    1    1    2  505  502 -0.13250723813E+02 -0.28383708335E+02  0.10268691575E+01  0.31341203562E+02  0.00000000000E+00 0. -1.
         -1    1    1    2    0  504  0.96807533815E+02  0.27609819423E+02  0.10214660208E+04  0.10264145519E+04  0.00000000000E+00 0.  1.
<scales pt_clust_3="138.40611" pt_clust_4="34.69566" pt_clust_5="31.32438" pt_clust_6="34.69566"></scales>
<clustering>
<clus scale="   31.324">  2  5  1 -1</clus>
<clus scale="   34.696">  4  6 -1 -1</clus>
<clus scale="  138.406">  2  3  1 -1</clus>
<clus scale="   31.324">  2  3  1 -1</clus>
</clustering>
</event>
<event>
 6    0  0.1849053E+002  0.1019441E+03  0.7546771E-02  0.1276260E+00
         -3   -1    0    0    0  501 -0.00000000000E+00  0.00000000000E+00  0.10065275944E+04  0.10065275944E+04  0.00000000000E+00 0.  1.
         21   -1    0    0  505  502  0.00000000000E+00 -0.00000000000E+00 -0.27069724276E+03  0.27069724276E+03  0.00000000000E+00 0.  1.
         21    1    1    2  503  502  0.30802363587E+02  0.29824144280E+02 -0.16850706327E+03  0.17387609254E+03  0.00000000000E+00 0.  1.
         21    1    1    2  504  501  0.66744494964E+02  0.77260502024E+02  0.93061410092E+03  0.93619795856E+03  0.00000000000E+00 0.  1.
         21    1    1    2  505  504 -0.58226717589E+02 -0.78395064766E+02 -0.53533962429E+02  0.11136436573E+03  0.00000000000E+00 0.  1.
         -3    1    1    2    0  503 -0.39320140962E+02 -0.28689581538E+02  0.27257276376E+02  0.55786420297E+02  0.00000000000E+00 0.  1.
<scales pt_clust_3="42.87499" pt_clust_4="14000.00000" pt_clust_5="101.94407" pt_clust_6="42.59547"></scales>
<clustering>
<clus scale="   42.875">  2  3  1 -1</clus>
<clus scale="   42.595">  2  6  1 -1</clus>
<clus scale="  101.944">  2  5  1 -1</clus>
<clus scale="   42.875">  2  3  1 -1</clus>
</clustering>
</event>
<event>
 6    0  0.1849053E+002  0.1273332E+03  0.7546771E-02  0.1231467E+00
          2   -1    0    0  505    0 -0.00000000000E+00  0.00000000000E+00  0.21337355080E+04  0.21337355080E+04  0.00000000000E+00 0.  1.
         21   -1    0    0  501  502  0.00000000000E+00 -0.00000000000E+00 -0.55990224432E+02  0.55990224432E+02  0.00000000000E+00 0.  1.
         21    1    1    2  503  502  0.41033441655E+02  0.23070866406E+02  0.62057564019E+02  0.77891908840E+02  0.00000000000E+00 0.  1.
         21    1    1    2  504  503 -0.34896047756E+02  0.10809101395E+03  0.36953665041E+02  0.11944444234E+03  0.00000000000E+00 0.  1.
         21    1    1    2  505  504 -0.82784393814E+02 -0.93163597380E+01  0.52805295308E+03  0.53458392389E+03  0.00000000000E+00 0.  1.
          2    1    1    2  501    0  0.76646999915E+02 -0.12184552062E+03  0.14506811014E+04  0.14578054574E+04  0.00000000000E+00 0.  1.
<scales pt_clust_3="47.07450" pt_clust_4="14000.00000" pt_clust_5="80.37154" pt_clust_6="127.33319"></scales>
<clustering>
<clus scale="   47.074">  2  3  1 -1</clus>
<clus scale="   80.372">  1  5  2 -1</clus>
<clus scale="  127.333">  1  6  2 -1</clus>
<clus scale="   47.074">  2  3  1 -1</clus>
</clustering>
</event>
<event>
 6    0  0.1849053E+002  0.1398716E+03  0.7546771E-02  0.1213502E+00
         21   -1    0    0  504  502  0.00000000000E+00  0.00000000000E+00  0.20199281913E+03  0.20199281913E+03  0.00000000000E+00 0.  1.
          2   -1    0    0  505    0 -0.00000000000E+00 -0.00000000000E+00 -0.92270984565E+03  0.92270984565E+03  0.00000000000E+00 0. -1.
         21    1    1    2  503  502  0.45493670198E+02  0.14627044888E+03  0.13037041360E+03  0.20114960350E+03  0.00000000000E+00 0.  1.
         21    1    1    2  504  501  0.47303870265E+02 -0.87775262362E+02 -0.16446458773E+03  0.19232980383E+03  0.00000000000E+00 0.  1.
         21    1    1    2  505  503 -0.65241715432E+02 -0.12090857575E+02 -0.30746401138E+02  0.73130099496E+02  0.00000000000E+00 0.  1.
          2    1    1    2  501    0 -0.27555825031E+02 -0.46404328947E+02 -0.65587645125E+03  0.65809315795E+03  0.00000000000E+00 0. -1.
<scales pt_clust_3="14000.00000" pt_clust_4="139.87156" pt_clust_5="73.72967" pt_clust_6="53.96930"></scales>
<clustering>
<clus scale="   53.969">  2  6  1 -1</clus>
<clus scale="   73.730">  2  5  1 -1</clus>
<clus scale="  139.872">  2  4  1 -1</clus>
<clus scale="  139.872">  1  3  2 -1</clus>
</clustering>
</event>
<event>
 6    0  0.1849053E+002  0.1404679E+03  0.7546771E-02  0.1212701E+00
          2   -1    0    0  503    0 -0.00000000000E+00  0.00000000000E+00  0.10845053650E+04  0.10845053650E+04  0.00000000000E+00 0.  1.
         21   -1    0    0  504  502  0.00000000000E+00 -0.00000000000E+00 -0.39067850133E+02  0.39067850133E+02  0.00000000000E+00 0.  1.
         21    1    1    2  503  505  0.55243676898E+02  0.29724008638E+02  0.70435994352E+02  0.94321841728E+02  0.00000000000E+00 0.  1.
         21    1    1    2  504  501 -0.59886021738E+01 -0.29501835543E+02  0.62102798715E+02  0.69014341007E+02  0.00000000000E+00 0. -1.
         21    1    1    2  505  502  0.82878336956E+02 -0.97711053051E+01  0.75857377700E+02  0.11277692577E+03  0.00000000000E+00 0.  1.
          2    1    1    2  501    0 -0.13213341168E+03  0.95489322103E+01  0.83704134415E+03  0.84746010667E+03  0.00000000000E+00 0.  1.
<scales pt_clust_3="36.97487" pt_clust_4="30.10352" pt_clust_5="36.97487" pt_clust_6="133.11235"></scales>
<clustering>
<clus scale="   30.104">  2  4  1 -1</clus>
<clus scale="   36.975">  3  5 -1 -1</clus>
<clus scale="  133.112">  1  6  2 -1</clus>
<clus scale="   30.104">  2  3  1 -1</clus>
</clustering>
</event>
<event>
 6    0  0.1849053E+002  0.1156265E+03  0.7546771E-02  0.1250491E+00
         21   -1    0    0  505  502  0.00000000000E+00  0.00000000000E+00  0.48410498961E+03  0.48410498961E+03  0.00000000000E+00 0. -1.
          2   -1    0    0  504    0 -0.00000000000E+00 -0.00000000000E+00 -0.29891098316E+04  0.29891098316E+04  0.00000000000E+00 0.  1.
         21    1    1    2  503  502 -0.47660696300E+02 -0.99031329014E+02  0.42900213907E+03  0.44285616336E+03  0.00000000000E+00 0. -1.
         21    1    1    2  504  503  0.13424112818E+02  0.38852029904E+02 -0.19285406364E+03  0.19718614782E+03  0.00000000000E+00 0.  1.
         21    1    1    2  505  501  0.84596366604E+02 -0.11429655492E+02  0.51069824997E+01  0.85517621211E+02  0.00000000000E+00 0.  1.
          2    1    1    2  501    0 -0.50359783122E+02  0.71608954602E+02 -0.27462598999E+04  0.27476548888E+04  0.00000000000E+00 0.  1.
<scales pt_clust_3="115.62647" pt_clust_4="41.10580" pt_clust_5="85.48353" pt_clust_6="14000.00000"></scales>
<clustering>
<clus scale="   41.106">  2  4  1 -1</clus>
<clus scale="   85.484">  1  5  2 -1</clus>
<clus scale="  115.626">  1  3  2 -1</clus>
<clus scale="   85.484">  1  3  2 -1</clus>
</clustering>
</event>
<event>
 6    0  0.1849053E+002  0.9637247E+02  0.7546771E-02  0.1288115E+00
         21   -1    0    0  505  502  0.00000000000E+00  0.00000000000E+00  0.75298758431E+03  0.75298758431E+03  0.00000000000E+00 0. -1.
          2   -1    0    0  503    0 -0.00000000000E+00 -0.00000000000E+00 -0.16408196900E+04  0.16408196900E+04  0.00000000000E+00 0. -1.
         21    1    1    2  503  504 -0.37804398194E+02  0.23750854813E+02 -0.44122859156E+03  0.44348161815E+03  0.00000000000E+00 0.  1.
         21    1    1    2  504  502  0.14027445799E+02  0.28263338568E+02  0.46171995915E+02  0.55923508021E+02  0.00000000000E+00 0. -1.
         21    1    1    2  505  501  0.21312064968E+02  0.61516164032E+02  0.69659111630E+03  0.69962677612E+03  0.00000000000E+00 0. -1.
          2    1    1    2  501    0  0.24648874280E+01 -0.11353035741E+03 -0.11893666263E+04  0.11947753720E+04  0.00000000000E+00 0. -1.
<scales pt_clust_3="44.65121" pt_clust_4="31.55290" pt_clust_5="14000.00000" pt_clust_6="96.37247"></scales>
<clustering>
<clus scale="   31.553">  1  4  2 -1</clus>
<clus scale="   44.651">  2  3  1 -1</clus>
<clus scale="   96.372">  2  6  1 -1</clus>
<clus scale="   31.553">  1  3  2 -1</clus>
</clustering>
</event>
<event>
 6    0  0.1849053E+002  0.1387725E+03  0.7546771E-02  0.1214990E+00
          2   -1    0    0  505    0 -0.00000000000E+00  0.00000000000E+00  0.55292576339E+03  0.55292576339E+03  0.00000000000E+00 0.  1.
         21   -1    0    0  504  502  0.00000000000E+00 -0.00000000000E+00 -0.19732611779E+03  0.19732611779E+03  0.00000000000E+00 0.  1.
         21    1    1    2  503  501  0.53240160724E+02  0.41391136638E+02  0.19425654045E+03  0.20562914291E+03  0.00000000000E+00 0.  1.
         21    1    1    2  504  503  0.14744656406E+01 -0.35819990592E+02 -0.39299251050E+01  0.36065081260E+02  0.00000000000E+00 0.  1.
         21    1    1    2  505  502 -0.76071449944E+02 -0.71561010526E+02 -0.15164940911E+03  0.18413415492E+03  0.00000000000E+00 0.  1.
          2    1    1    2  501    0  0.21356823579E+02  0.65989864480E+02  0.31692243937E+03  0.32442350209E+03  0.00000000000E+00 0.  1.
<scales pt_clust_3="49.86691" pt_clust_4="35.85032" pt_clust_5="129.23371" pt_clust_6="49.86691"></scales>
<clustering>
<clus scale="   35.850">  2  4  1 -1</clus>
<clus scale="   49.867">  3  6 -1 -1</clus>
<clus scale="  129.234">  2  5  1 -1</clus>
<clus scale="   35.850">  2  3  1 -1</clus>
</clustering>
</event>
<event>
 6    0  0.1849053E+002  0.1409424E+03  0.7546771E-02  0.1212067E+00
          2   -1    0    0  505    0 -0.00000000000E+00  0.00000000000E+00  0.30033942425E+04  0.30033942425E+04  0.00000000000E+00 0. -1.
         21   -1    0    0  504  502  0.00000000000E+00 -0.00000000000E+00 -0.92531054395E+03  0.92531054395E+03  0.00000000000E+00 0.  1.
         21    1    1    2  503  502 -0.14563798574E+02  0.35099751410E+02 -0.25144379704E+02  0.45566836720E+02  0.00000000000E+00 0. -1.
         21    1    1    2  504  501 -0.16592048199E+02  0.10251660856E+03 -0.88441133518E+03  0.89048770956E+03  0.00000000000E+00 0.  1.
         21    1    1    2  505  503  0.60130885797E+02 -0.12243818811E+03  0.26238248267E+04  0.26273681803E+04  0.00000000000E+00 0. -1.
          2    1    1    2  501    0 -0.28975039024E+02 -0.15178171856E+02  0.36381458670E+03  0.36528205990E+03  0.00000000000E+00 0. -1.
<scales pt_clust_3="37.99020" pt_clust_4="140.94240" pt_clust_5="14000.00000" pt_clust_6="32.70978"></scales>
<clustering>
<clus scale="   32.710">  1  6  2 -1</clus>
<clus scale="   37.990">  2  3  1 -1</clus>
<clus scale="  140.942">  2  4  1 -1</clus>
<clus scale="   37.990">  2  3  1 -1</clus>
</clustering>
</event>
<event>
 6    0  0.1849053E+002  0.1441423E+03  0.7546771E-02  0.1207861E+00
         21   -1    0    0  504  502  0.00000000000E+00  0.00000000000E+00  0.79059490207E+02  0.79059490207E+02  0.00000000000E+00 0.  1.
          1   -1    0    0  502    0 -0.00000000000E+00 -0.00000000000E+00 -0.72264228132E+03  0.72264228132E+03  0.00000000000E+00 0. -1.
         21    1    1    2  503  505 -0.18352507802E+02 -0.81618378929E+02 -0.20624534123E+02  0.86161161374E+02  0.00000000000E+00 0.  1.
         21    1    1    2  504  503 -0.39915303563E+02 -0.37120719437E+02  0.18903220071E+02  0.57693249163E+02  0.00000000000E+00 0.  1.
         21    1    1    2  505  501  0.18056730539E+02  0.89872901875E+02 -0.47644645608E+03  0.48518492301E+03  0.00000000000E+00 0. -1.
          1    1    1    2  501    0  0.40211080825E+02  0.28866196491E+02 -0.16541502099E+03  0.17266243798E+03  0.00000000000E+00 0. -1.
<scales pt_clust_3="143.84411" pt_clust_4="45.64103" pt_clust_5="42.10335" pt_clust_6="42.10335"></scales>
<clustering>
<clus scale="   42.103">  5  6 -1 -1</clus>
<clus scale="   45.641">  3  4 -1 -1</clus>
<clus scale="  143.844">  1  3  2 -1</clus>
<clus scale="  143.844">  1  3  2 -1</clus>
</clustering>
</event>
<event>
 6    0  0.1849053E+002  0.1051239E+03  0.7546771E-02  0.1269876E+00
         21   -1    0    0  505  502  0.00000000000E+00  0.00000000000E+00  0.11839922837E+03  0.11839922837E+03  0.00000000000E+00 0. -1.
          2   -1    0    0  503    0 -0.00000000000E+00 -0.00000000000E+00 -0.27614928087E+04  0.27614928087E+04  0.00000000000E+00 0. -1.
         21    1    1    2  503  504 -0.97458838696E+02  0.52026249931E+02 -0.91891108234E+02  0.14369736147E+03  0.00000000000E+00 0. -1.
         21    1    1    2  504  502  0.58622431970E+02 -0.88998608127E+02  0.52777230927E+02  0.11892341184E+03  0.00000000000E+00 0. -1.
         21    1    1    2  505  501  0.14224518695E+03  0.54735245342E+02 -0.18066619848E+04  0.18130794709E+04  0.00000000000E+00 0. -1.
          2    1    1    2  501    0 -0.10340878023E+03 -0.17762887146E+02 -0.79731771819E+03  0.80419179288E+03  0.00000000000E+00 0. -1.
<scales pt_clust_3="105.12386" pt_clust_4="14000.00000" pt_clust_5="60.49365" pt_clust_6="104.92329"></scales>
<clustering>
<clus scale="  104.923">  2  6  1 -1</clus>
<clus scale="   60.494">  2  5  1 -1</clus>
<clus scale="  105.124">  2  3  1 -1</clus>
<clus scale="  105.124">  1  3  2 -1</clus>
</clustering>
</event>
<event>
 6    0  0.1849053E+002  0.1582926E+03  0.7546771E-02  0.1190638E+00
         21   -1    0    0  503  502  0.00000000000E+00  0.00000000000E+00  0.66400964592E+03  0.66400964592E+03  0.00000000000E+00 0. -1.
         -1   -1    0    0    0  501 -0.00000000000E+00 -0.00000000000E+00 -0.17605101314E+03  0.17605101314E+03  0.00000000000E+00 0. -1.
         21    1    1    2  503  504  0.10738888538E+03  0.39566993232E+02  0.52996914754E+03  0.54218559277E+03  0.00000000000E+00 0. -1.
         21    1    1    2  504  501  0.35691479544E+02 -0.11198086490E+02  0.86333520281E+02  0.94089083199E+02  0.00000000000E+00 0.  1.
         21    1    1    2  505  502 -0.21931458452E+02 -0.26714444903E+02 -0.14332104639E+02  0.37417371095E+02  0.00000000000E+00 0. -1.
         -1    1    1    2    0  505 -0.12114890647E+03 -0.16544618398E+01 -0.11401193040E+03  0.16636861199E+03  0.00000000000E+00 0. -1.
<scales pt_clust_3="158.16600" pt_clust_4="34.96180" pt_clust_5="32.83687" pt_clust_6="32.83687"></scales>
<clustering>
<clus scale="   32.837">  5  6 -1 -1</clus>
<clus scale="   34.962">  3  4 -1 -1</clus>
<clus scale="  158.166">  1  3  2 -1</clus>
<clus scale="  158.166">  1  3  2 -1</clus>
</clustering>
</event>
<event>
 6    0  0.1849053E+002  0.8609555E+02  0.7546771E-02  0.1312592E+00
          1   -1    0    0  505    0 -0.00000000000E+00  0.00000000000E+00  0.17560247850E+04  0.17560247850E+04  0.00000000000E+00 0.  1.
         21   -1    0    0  503  502  0.00000000000E+00 -0.00000000000E+00 -0.22091721117E+03  0.22091721117E+03  0.00000000000E+00 0.  1.
         21    1    1    2  503  501 -0.24105560046E+02 -0.20992444511E+02 -0.52786982591E+02  0.61710827921E+02  0.00000000000E+00 0. -1.
         21    1    1    2  504  502 -0.66283499975E+01  0.44954090072E+02 -0.10659375341E+03  0.11587507715E+03  0.00000000000E+00 0.  1.
         21    1    1    2  505  504  0.63877354401E+02  0.57925290991E+02  0.17078376092E+04  0.17100131447E+04  0.00000000000E+00 0.  1.
          1    1    1    2  501    0 -0.33143444357E+02 -0.81886936552E+02 -0.13349299327E+02  0.89342946416E+02  0.00000000000E+00 0.  1.
<scales pt_clust_3="31.96499" pt_clust_4="38.35632" pt_clust_5="14000.00000" pt_clust_6="86.09555"></scales>
<clustering>
<clus scale="   31.965">  2  3  1 -1</clus>
<clus scale="   38.356">  2  4  1 -1</clus>
<clus scale="   86.096">  2  6  1 -1</clus>
<clus scale="   31.965">  2  3  1 -1</clus>
</clustering>
</event>
<event>
 6    0  0.1849053E+002  0.1044435E+03  0.7546771E-02  0.1271220E+00
          2   -1    0    0  505    0 -0.00000000000E+00  0.00000000000E+00  0.10396460660E+04  0.10396460660E+04  0.00000000000E+00 0. -1.
         21   -1    0    0  503  502  0.00000000000E+00 -0.00000000000E+00 -0.26298959390E+03  0.26298959390E+03  0.00000000000E+00 0. -1.
         21    1    1    2  503  501 -0.54311455636E+01 -0.10428486494E+03 -0.48824979492E+02  0.11527666295E+03  0.00000000000E+00 0. -1.
         21    1    1    2  504  502  0.59304961049E+02  0.32177300866E+01 -0.16403992584E+03  0.17446068171E+03  0.00000000000E+00 0. -1.
         21    1    1    2  505  504 -0.86700039516E+02  0.42199786360E+02  0.21720278486E+03  0.23764420585E+03  0.00000000000E+00 0.  1.
          2    1    1    2  501    0  0.32826224031E+02  0.58867348493E+02  0.77231859257E+03  0.77525410940E+03  0.00000000000E+00 0. -1.
<scales pt_clust_3="14000.00000" pt_clust_4="59.39219" pt_clust_5="104.44352" pt_clust_6="67.90204"></scales>
<clustering>
<clus scale="   59.392">  2  4  1 -1</clus>
<clus scale="   67.902">  1  6  2 -1</clus>
<clus scale="  104.444">  1  5  2 -1</clus>
<clus scale="   59.392">  2  3  1 -1</clus>
</clustering>
</event>
<event>
 6    0  0.1849053E+002  0.1287067E+03  0.7546771E-02  0.1229387E+00
          1   -1    0    0  504    0 -0.00000000000E+00  0.00000000000E+00  0.10313881584E+04  0.10313881584E+04  0.00000000000E+00 0. -1.
         21   -1    0    0  503  502  0.00000000000E+00 -0.00000000000E+00 -0.94969306356E+03  0.94969306356E+03  0.00000000000E+00 0.  1.
         21    1    1    2  503  505  0.69513581955E+02  0.58818663086E+02 -0.66607723841E+03  0.67227275768E+03  0.00000000000E+00 0.  1.
         21    1    1    2  504  502  0.27750765204E+02 -0.61907763979E+02  0.13030567033E+03  0.14690896477E+03  0.00000000000E+00 0. -1.
         21    1    1    2  505  501 -0.31160758624E+01  0.37664893020E+02 -0.26805995784E+03  0.27071109156E+03  0.00000000000E+00 0.  1.
          1    1    1    2  501    0 -0.94148271297E+02 -0.34575792128E+02  0.88552662078E+03  0.89118840796E+03  0.00000000000E+00 0. -1.
<scales pt_clust_3="34.62468" pt_clust_4="67.84303" pt_clust_5="34.62468" pt_clust_6="116.94823"></scales>
<clustering>
<clus scale="   34.625">  3  5 -1 -1</clus>
<clus scale="   67.843">  1  4  2 -1</clus>
<clus scale="  116.948">  1  6  2 -1</clus>
<clus scale="  128.707">  2  3  1 -1</clus>
</clustering>
</event>
<event>
 6    0  0.1849053E+002  0.1839727E+03  0.7546771E-02  0.1164013E+00
         21   -1    0    0  501  502  0.00000000000E+00  0.00000000000E+00  0.34986145710E+03  0.34986145710E+03  0.00000000000E+00 0. -1.
          2   -1    0    0  505    0 -0.00000000000E+00 -0.00000000000E+00 -0.39431572026E+03  0.39431572026E+03  0.00000000000E+00 0. -1.
         21    1    1    2  503  504  0.43786368815E+02  0.47678167426E+02 -0.12598730002E+02  0.65948326292E+02  0.00000000000E+00 0.  1.
         21    1    1    2  504  502  0.15713766472E+03  0.89998031524E+02  0.23687711945E+03  0.29816549276E+03  0.00000000000E+00 0. -1.
         21    1    1    2  505  503 -0.45885038507E+02  0.14042993407E+02 -0.26192387501E+02  0.54668853890E+02  0.00000000000E+00 0. -1.
          2    1    1    2  501    0 -0.15503899503E+03 -0.15171919236E+03 -0.24254026511E+03  0.32539450442E+03  0.00000000000E+00 0. -1.
<scales pt_clust_3="62.62174" pt_clust_4="183.97266" pt_clust_5="47.98586" pt_clust_6="14000.00000"></scales>
<clustering>
<clus scale="   47.986">  2  5  1 -1</clus>
<clus scale="   62.622">  2  3  1 -1</clus>
<clus scale="  183.973">  1  4  2 -1</clus>
<clus scale="  183.973">  1  3  2 -1</clus>
</clustering>
</event>
<event>
 6    0  0.1849053E+002  0.1384321E+03  0.7546771E-02  0.1215454E+00
          2   -1    0    0  503    0 -0.00000000000E+00  0.00000000000E+00  0.58124590980E+03  0.58124590980E+03  0.00000000000E+00 0.  1.
         21   -1    0    0  504  502  0.00000000000E+00 -0.00000000000E+00 -0.15193362808E+03  0.15193362808E+03  0.00000000000E+00 0. -1.
         21    1    1    2  503  505 -0.55782152003E+02  0.98647776962E+02 -0.33883191169E+02  0.11828399311E+03  0.00000000000E+00 0. -1.
         21    1    1    2  504  501  0.38514208091E+02 -0.70724246838E+02  0.75136285634E+02  0.11013956934E+03  0.00000000000E+00 0. -1.
         21    1    1    2  505  502 -0.43925721413E+01  0.38474261207E+02 -0.48829056280E+02  0.62320463755E+02  0.00000000000E+00 0. -1.
          2    1    1    2  501    0  0.21660516054E+02 -0.66397791331E+02  0.43688824354E+03  0.44243551168E+03  0.00000000000E+00 0.  1.
<scales pt_clust_3="33.84966" pt_clust_4="125.73874" pt_clust_5="33.84966" pt_clust_6="69.84157"></scales>
<clustering>
<clus scale="   33.850">  3  5 -1 -1</clus>
<clus scale="   69.842">  1  6  2 -1</clus>
<clus scale="  125.739">  1  4  2 -1</clus>
<clus scale="  138.432">  2  3  1 -1</clus>
</clustering>
</event>
<event>
 6    0  0.1849053E+002  0.9194549E+02  0.7546771E-02  0.1298208E+00
         21   -1    0    0  503  502  0.00000000000E+00  0.00000000000E+00  0.70665641909E+02  0.70665641909E+02  0.00000000000E+00 0. -1.
          2   -1    0    0  505    0 -0.00000000000E+00 -0.00000000000E+00 -0.38520766309E+04  0.38520766309E+04  0.00000000000E+00 0. -1.
         21    1    1    2  503  501  0.21387394673E+02  0.29196780445E+02 -0.42753222956E+02  0.56015272135E+02  0.00000000000E+00 0.  1.
         21    1    1    2  504  502  0.31097723847E+02 -0.10319264934E+03  0.15023204990E+02  0.10881860132E+03  0.00000000000E+00 0. -1.
         21    1    1    2  505  504 -0.15668102360E+02 -0.29806066039E+02 -0.22291118887E+04  0.22293662111E+04  0.00000000000E+00 0. -1.
          2    1    1    2  501    0 -0.36817016159E+02  0.10380193493E+03 -0.15245690823E+04  0.15285421882E+04  0.00000000000E+00 0. -1.
<scales pt_clust_3="35.17902" pt_clust_4="91.94549" pt_clust_5="33.67330" pt_clust_6="14000.00000"></scales>
<clustering>
<clus scale="   33.673">  2  5  1 -1</clus>
<clus scale="   35.179">  1  3  2 -1</clus>
<clus scale="   91.945">  1  4  2 -1</clus>
<clus scale="   35.179">  1  3  2 -1</clus>
</clustering>
</event>
<event>
 6    0  0.1849053E+002  0.1168209E+03  0.7546771E-02  0.1248436E+00
          2   -1    0    0  505    0 -0.00000000000E+00  0.00000000000E+00  0.30841402854E+04  0.30841402854E+04  0.00000000000E+00 0. -1.
         21   -1    0    0  504  502  0.00000000000E+00 -0.00000000000E+00 -0.60607441504E+03  0.60607441504E+03  0.00000000000E+00 0.  1.
         21    1    1    2  503  502  0.35700383539E+02  0.99853221260E+01 -0.15898537960E+02  0.40335933757E+02  0.00000000000E+00 0.  1.
         21    1    1    2  504  501  0.44421271693E+01 -0.12261313491E+03 -0.56838768579E+03  0.58147938459E+03  0.00000000000E+00 0.  1.
         21    1    1    2  505  503 -0.41311715129E+01  0.63663439979E+02  0.37702902667E+03  0.38238852901E+03  0.00000000000E+00 0. -1.
          2    1    1    2  501    0 -0.36011339196E+02  0.48964372809E+02  0.26853230674E+04  0.26860108531E+04  0.00000000000E+00 0. -1.
<scales pt_clust_3="37.07053" pt_clust_4="116.82090" pt_clust_5="14000.00000" pt_clust_6="60.77317"></scales>
<clustering>
<clus scale="   37.071">  2  3  1 -1</clus>
<clus scale="   60.773">  1  6  2 -1</clus>
<clus scale="  116.821">  2  4  1 -1</clus>
<clus scale="   37.071">  2  3  1 -1</clus>
</clustering>
</event>
<event>
 6    0  0.1849053E+002  0.1843647E+03  0.7546771E-02  0.1163644E+00
          1   -1    0    0  504    0 -0.00000000000E+00  0.00000000000E+00  0.33285228245E+04  0.33285228245E+04  0.00000000000E+00 0.  1.
         21   -1    0    0  505  502  0.00000000000E+00 -0.00000000000E+00 -0.25488323941E+03  0.25488323941E+03  0.00000000000E+00 0. -1.
         21    1    1    2  503  501  0.30600544344E+02  0.10921216325E+03  0.17251081644E+04  0.17288325161E+04  0.00000000000E+00 0.  1.
         21    1    1    2  504  502 -0.46445148730E+02 -0.12979686023E+03 -0.22410568943E+03  0.26311164323E+03  0.00000000000E+00 0. -1.
         21    1    1    2  505  503 -0.36068433631E+02 -0.23511102814E+02  0.44899518364E+02  0.62206676567E+02  0.00000000000E+00 0. -1.
          1    1    1    2  501    0  0.51913038017E+02  0.44095799793E+02  0.15277375918E+04  0.15292552280E+04  0.00000000000E+00 0.  1.
<scales pt_clust_3="47.89215" pt_clust_4="173.70072" pt_clust_5="43.05466" pt_clust_6="47.89215"></scales>
<clustering>
<clus scale="   43.055">  2  5  1 -1</clus>
<clus scale="   47.892">  3  6 -1 -1</clus>
<clus scale="  173.701">  2  4  1 -1</clus>
<clus scale="   43.055">  2  3  1 -1</clus>
</clustering>
</event>
<event>
 6    0  0.1849053E+002  0.1155874E+03  0.7546771E-02  0.1250559E+00
         21   -1    0    0  503  502  0.00000000000E+00  0.00000000000E+00  0.25449439012E+03  0.25449439012E+03  0.00000000000E+00 0. -1.
          2   -1    0    0  504    0 -0.00000000000E+00 -0.00000000000E+00 -0.30673914259E+04  0.30673914259E+04  0.00000000000E+00 0. -1.
         21    1    1    2  503  501  0.21637388041E+02 -0.22977507902E+02 -0.12657729163E+02  0.34005301619E+02  0.00000000000E+00 0.  1.
         21    1    1    2  504  505 -0.25743276624E+02 -0.30201839969E+02 -0.72869309108E+03  0.72977290194E+03  0.00000000000E+00 0. -1.
         21    1    1    2  505  502  0.92333553323E+02  0.95140651377E+00  0.23333796553E+03  0.25094420974E+03  0.00000000000E+00 0. -1.
          2    1    1    2  501    0 -0.88227664740E+02  0.52227941357E+02 -0.23048841810E+04  0.23071634027E+04  0.00000000000E+00 0. -1.
<scales pt_clust_3="31.56172" pt_clust_4="39.69230" pt_clust_5="14000.00000" pt_clust_6="115.58744"></scales>
<clustering>
<clus scale="   31.562">  1  3  2 -1</clus>
<clus scale="   39.692">  2  4  1 -1</clus>
<clus scale="  115.587">  2  6  1 -1</clus>
<clus scale="   31.562">  1  3  2 -1</clus>
</clustering>
</event>
<event>
 6    0  0.1849053E+002  0.6622658E+02  0.7546771E-02  0.1373416E+00
         21   -1    0    0  503  502  0.00000000000E+00  0.00000000000E+00  0.18939359205E+04  0.18939359205E+04  0.00000000000E+00 0. -1.
         -2   -1    0    0    0  501 -0.00000000000E+00 -0.00000000000E+00 -0.92558695069E+03  0.92558695069E+03  0.00000000000E+00 0.  1.
         21    1    1    2  503  505 -0.79773088321E+01 -0.32681633529E+02  0.33547026503E+03  0.33715282194E+03  0.00000000000E+00 0.  1.
         21    1    1    2  504  502  0.67628221225E+01 -0.33581009173E+02  0.15459962534E+04  0.15463757097E+04  0.00000000000E+00 0. -1.
         21    1    1    2  505  501 -0.50582745922E+02 -0.40655042646E+02 -0.55279688173E+03  0.55659306422E+03  0.00000000000E+00 0.  1.
         -2    1    1    2    0  504  0.51797232631E+02  0.10691768535E+03 -0.36032066689E+03  0.37940127535E+03  0.00000000000E+00 0.  1.
<scales pt_clust_3="33.64114" pt_clust_4="14000.00000" pt_clust_5="64.92819" pt_clust_6="66.22658"></scales>
<clustering>
<clus scale="   33.641">  1  3  2 -1</clus>
<clus scale="   64.928">  2  5  1 -1</clus>
<clus scale="   66.227">  2  6  1 -1</clus>
<clus scale="   33.641">  1  3  2 -1</clus>
</clustering>
</event>
<event>
 6    0  0.1849053E+002  0.3584247E+03  0.7546771E-02  0.1059209E+00
          1   -1    0    0  504    0 -0.00000000000E+00  0.00000000000E+00  0.42479050605E+04  0.42479050605E+04  0.00000000000E+00 0. -1.
         21   -1    0    0  505  502  0.00000000000E+00 -0.00000000000E+00 -0.31196216021E+02  0.31196216021E+02  0.00000000000E+00 0. -1.
         21    1    1    2  503  502 -0.18744109297E+03  0.12930679796E+03  0.14314976756E+04  0.14494964666E+04  0.00000000000E+00 0. -1.
         21    1    1    2  504  503 -0.33809240680E+02  0.10571756730E+03  0.14427675686E+04  0.14470305891E+04  0.00000000000E+00 0. -1.
         21    1    1    2  505  501  0.14647929514E+03 -0.10338934779E+03  0.73344327363E+03  0.75503945379E+03  0.00000000000E+00 0. -1.
          1    1    1    2  501    0  0.74771038511E+02 -0.13163501748E+03  0.60900032669E+03  0.62753476711E+03  0.00000000000E+00 0. -1.
<scales pt_clust_3="108.78657" pt_clust_4="108.78657" pt_clust_5="66.06148" pt_clust_6="330.69118"></scales>
<clustering>
<clus scale="   66.061">  5  6 -1 -1</clus>
<clus scale="  108.787">  3  4 -1 -1</clus>
<clus scale="  330.691">  2  5  1 -1</clus>
<clus scale="  330.691">  2  3  1 -1</clus>
</clustering>
</event>
<event>
 6    0  0.1849053E+002  0.9090847E+02  0.7546771E-02  0.1300666E+00
         -4   -1    0    0    0  501 -0.00000000000E+00  0.00000000000E+00  0.12153992511E+04  0.12153992511E+04  0.00000000000E+00 0.  1.
         21   -1    0    0  503  502  0.00000000000E+00 -0.00000000000E+00 -0.10581179900E+04  0.10581179900E+04  0.00000000000E+00 0.  1.
         21    1    1    2  503  505  0.19723699909E+02 -0.22829856150E+02 -0.59799240821E+03  0.59875299326E+03  0.00000000000E+00 0.  1.
         21    1    1    2  504  502 -0.20373109780E+02 -0.68438778532E+02 -0.44763946024E+03  0.45329903637E+03  0.00000000000E+00 0.  1.
         21    1    1    2  505  501 -0.46094144230E+02 -0.18472654936E+02  0.95429455919E+02  0.10757643873E+03  0.00000000000E+00 0. -1.
         -4    1    1    2    0  504  0.46743554101E+02  0.10974128962E+03  0.11074836737E+04  0.11138887727E+04  0.00000000000E+00 0.  1.
<scales pt_clust_3="30.16996" pt_clust_4="14000.00000" pt_clust_5="49.52969" pt_clust_6="90.90847"></scales>
<clustering>
<clus scale="   30.170">  2  3  1 -1</clus>
<clus scale="   49.530">  1  5  2 -1</clus>
<clus scale="   90.908">  1  6  2 -1</clus>
<clus scale="   30.170">  2  3  1 -1</clus>
</clustering>
</event>
<event>
 6    0  0.1849053E+002  0.1752456E+03  0.7546771E-02  0.1172485E+00
         21   -1    0    0  505  502  0.00000000000E+00  0.00000000000E+00  0.27084638013E+04  0.27084638013E+04  0.00000000000E+00 0.  1.
         -2   -1    0    0    0  501 -0.00000000000E+00 -0.00000000000E+00 -0.19248682712E+03  0.19248682712E+03  0.00000000000E+00 0.  1.
         21    1    1    2  503  502 -0.74334856173E+01  0.37387118398E+02  0.28209215463E+03  0.28465599772E+03  0.00000000000E+00 0. -1.
         21    1    1    2  504  501 -0.27793649072E+03 -0.73405728021E+02  0.92389642458E+03  0.96758549862E+03  0.00000000000E+00 0.  1.
         21    1    1    2  505  504  0.11591262917E+03  0.19562956954E+02  0.14335380544E+04  0.14383496794E+04  0.00000000000E+00 0.  1.
         -2    1    1    2    0  503  0.16945734716E+03  0.16455652669E+02 -0.12354965938E+03  0.21035945271E+03  0.00000000000E+00 0.  1.
<scales pt_clust_3="38.11894" pt_clust_4="14000.00000" pt_clust_5="119.05322" pt_clust_6="175.24563"></scales>
<clustering>
<clus scale="   38.119">  1  3  2 -1</clus>
<clus scale="  119.053">  1  5  2 -1</clus>
<clus scale="  175.246">  2  6  1 -1</clus>
<clus scale="   38.119">  1  3  2 -1</clus>
</clustering>
</event>
<event>
 6    0  0.1849053E+002  0.7660752E+02  0.7546771E-02  0.1338964E+00
          2   -1    0    0  503    0 -0.00000000000E+00  0.00000000000E+00  0.78934905893E+03  0.78934905893E+03  0.00000000000E+00 0. -1.
         21   -1    0    0  501  502  0.00000000000E+00 -0.00000000000E+00 -0.16684206048E+03  0.16684206048E+03  0.00000000000E+00 0. -1.
         21    1    1    2  503  504  0.59637204127E+02 -0.25959470351E+02  0.54516453105E+02  0.84867743437E+02  0.00000000000E+00 0.  1.
         21    1    1    2  504  505 -0.29091238801E+02  0.58130653651E+02  0.70130043504E+02  0.95622675505E+02  0.00000000000E+00 0. -1.
         21    1    1    2  505  502 -0.23466292186E+02 -0.77061008041E+02 -0.12634650841E+03  0.14984160309E+03  0.00000000000E+00 0. -1.
          2    1    1    2  501    0 -0.70796731392E+01  0.44889824740E+02  0.62420701024E+03  0.62585909738E+03  0.00000000000E+00 0. -1.
<scales pt_clust_3="57.05569" pt_clust_4="14000.00000" pt_clust_5="76.60752" pt_clust_6="45.44467"></scales>
<clustering>
<clus scale="   45.445">  1  6  2 -1</clus>
<clus scale="   57.056">  1  3  2 -1</clus>
<clus scale="   76.608">  2  5  1 -1</clus>
<clus scale="   76.608">  2  3  1 -1</clus>
</clustering>
</event>
<event>
 6    0  0.1849053E+002  0.1357901E+03  0.7546771E-02  0.1219109E+00
         -2   -1    0    0    0  501 -0.00000000000E+00  0.00000000000E+00  0.70578452991E+03  0.70578452991E+03  0.00000000000E+00 0. -1.
         21   -1    0    0  505  502  0.00000000000E+00 -0.00000000000E+00 -0.16249206996E+03  0.16249206996E+03  0.00000000000E+00 0.  1.
         21    1    1    2  503  502  0.77417165225E+02 -0.24121787450E+02  0.49367853786E+03  0.50029369059E+03  0.00000000000E+00 0. -1.
         21    1    1    2  504  501 -0.74532605889E+02  0.34229454343E+02  0.12173745888E+02  0.82915408546E+02  0.00000000000E+00 0.  1.
         21    1    1    2  505  504 -0.54596726870E+02 -0.24709854575E+02 -0.11158026291E+03  0.12665517979E+03  0.00000000000E+00 0.  1.
         -2    1    1    2    0  503  0.51712167535E+02  0.14602187681E+02  0.14902043911E+03  0.15841232095E+03  0.00000000000E+00 0. -1.
<scales pt_clust_3="51.91159" pt_clust_4="119.88463" pt_clust_5="59.92812" pt_clust_6="51.91159"></scales>
<clustering>
<clus scale="   51.912">  3  6 -1 -1</clus>
<clus scale="   59.928">  2  5  1 -1</clus>
<clus scale="  119.885">  2  4  1 -1</clus>
<clus scale="   59.928">  2  3  1 -1</clus>
</clustering>
</event>
<event>
 6    0  0.1849053E+002  0.1429869E+03  0.7546771E-02  0.1209365E+00
         -3   -1    0    0    0  501 -0.00000000000E+00  0.00000000000E+00  0.15452533193E+03  0.15452533193E+03  0.00000000000E+00 0. -1.
         21   -1    0    0  505  502  0.00000000000E+00 -0.00000000000E+00 -0.32989887275E+03  0.32989887275E+03  0.00000000000E+00 0.  1.
         21    1    1    2  503  501 -0.33661458039E+02 -0.50593406223E+02 -0.13791175076E+03  0.15070646140E+03  0.00000000000E+00 0.  1.
         21    1    1    2  504  502  0.19080781399E+02  0.92444714720E+02  0.12575065290E+01  0.94401709842E+02  0.00000000000E+00 0.  1.
         21    1    1    2  505  503 -0.39352960985E+02 -0.87895255884E+02 -0.10484046491E+03  0.14235784007E+03  0.00000000000E+00 0.  1.
         -3    1    1    2    0  504  0.53933637624E+02  0.46043947387E+02  0.66121168327E+02  0.96958193359E+02  0.00000000000E+00 0. -1.
<scales pt_clust_3="39.30156" pt_clust_4="134.15446" pt_clust_5="39.30156" pt_clust_6="70.91461"></scales>
<clustering>
<clus scale="   39.302">  3  5 -1 -1</clus>
<clus scale="   70.915">  1  6  2 -1</clus>
<clus scale="  134.154">  1  4  2 -1</clus>
<clus scale="  142.987">  2  3  1 -1</clus>
</clustering>
</event>
<event>
 6    0  0.1849053E+002  0.7725809E+02  0.7546771E-02  0.1337018E+00
         21   -1    0    0  503  502  0.00000000000E+00  0.00000000000E+00  0.12478888621E+03  0.12478888621E+03  0.00000000000E+00 0.  1.
          2   -1    0    0  504    0 -0.00000000000E+00 -0.00000000000E+00 -0.20304645092E+04  0.20304645092E+04  0.00000000000E+00 0. -1.
         21    1    1    2  503  501  0.99177997106E+01  0.57379539467E+02  0.16336156101E+02  0.60478461428E+02  0.00000000000E+00 0.  1.
         21    1    1    2  504  505  0.68792096680E+02  0.61631382500E+01 -0.46722631385E+02  0.83386696315E+02  0.00000000000E+00 0. -1.
         21    1    1    2  505  502 -0.39533683889E+01 -0.85109596244E+02  0.40277600068E+02  0.94242015904E+02  0.00000000000E+00 0.  1.
          2    1    1    2  501    0 -0.74756528002E+02  0.21566918527E+02 -0.19155667477E+04  0.19171462217E+04  0.00000000000E+00 0. -1.
<scales pt_clust_3="58.23036" pt_clust_4="77.25809" pt_clust_5="40.60711" pt_clust_6="14000.00000"></scales>
<clustering>
<clus scale="   58.230">  1  3  2 -1</clus>
<clus scale="   40.607">  1  5  2 -1</clus>
<clus scale="   77.258">  1  4  2 -1</clus>
<clus scale="   58.230">  1  3  2 -1</clus>
</clustering>
</event>
<event>
 6    0  0.1849053E+002  0.1343013E+03  0.7546771E-02  0.1221209E+00
         21   -1    0    0  503  502  0.00000000000E+00  0.00000000000E+00  0.14669612780E+04  0.14669612780E+04  0.00000000000E+00 0. -1.
          2   -1    0    0  505    0 -0.00000000000E+00 -0.00000000000E+00 -0.91840641727E+02  0.91840641727E+02  0.00000000000E+00 0.  1.
         21    1    1    2  503  501 -0.37373967242E+02 -0.80589229864E+02  0.43656599639E+03  0.44551240903E+03  0.00000000000E+00 0. -1.
         21    1    1    2  504  502 -0.77928726435E+02 -0.36875243239E+02  0.90672499204E+03  0.91081440544E+03  0.00000000000E+00 0. -1.
         21    1    1    2  505  504  0.61064117190E+02  0.50998257555E+02  0.72406476781E+02  0.10757484168E+03  0.00000000000E+00 0. -1.
          2    1    1    2  501    0  0.54238576487E+02  0.66466215548E+02 -0.40576828909E+02  0.94900263608E+02  0.00000000000E+00 0.  1.
<scales pt_clust_3="134.30126" pt_clust_4="84.09422" pt_clust_5="79.55909" pt_clust_6="14000.00000"></scales>
<clustering>
<clus scale="   79.559">  2  5  1 -1</clus>
<clus scale="   84.094">  1  4  2 -1</clus>
<clus scale="  134.301">  1  3  2 -1</clus>
<clus scale="   84.094">  1  3  2 -1</clus>
</clustering>
</event>
<event>
 6    0  0.1849053E+002  0.1069171E+03  0.7546771E-02  0.1266388E+00
         21   -1    0    0  501  502  0.00000000000E+00  0.00000000000E+00  0.45586717169E+02  0.45586717169E+02  0.00000000000E+00 0.  1.
          2   -1    0    0  504    0 -0.00000000000E+00 -0.00000000000E+00 -0.78685247472E+03  0.78685247472E+03  0.00000000000E+00 0.  1.
         21    1    1    2  503  505 -0.42766987571E+02 -0.51027925169E+01 -0.80584005120E+01  0.43817708020E+02  0.00000000000E+00 0.  1.
         21    1    1    2  504  503 -0.51074750041E+02  0.20352958601E+02 -0.11074715709E+03  0.12364386689E+03  0.00000000000E+00 0.  1.
         21    1    1    2  505  502 -0.51502914889E+02  0.12536238632E+02 -0.47153293448E+02  0.70944630552E+02  0.00000000000E+00 0.  1.
          2    1    1    2  501    0  0.14534465250E+03 -0.27786404716E+02 -0.57530690650E+03  0.59403298643E+03  0.00000000000E+00 0.  1.
<scales pt_clust_3="30.96446" pt_clust_4="54.98066" pt_clust_5="30.96446" pt_clust_6="101.24854"></scales>
<clustering>
<clus scale="   30.964">  3  5 -1 -1</clus>
<clus scale="   54.981">  2  4  1 -1</clus>
<clus scale="  101.249">  2  6  1 -1</clus>
<clus scale="  106.917">  1  3  2 -1</clus>
</clustering>
</event>
<event>
 6    0  0.1849053E+002  0.7166500E+02  0.7546771E-02  0.1354521E+00
          2   -1    0    0  504    0 -0.00000000000E+00  0.00000000000E+00  0.15422031380E+04  0.15422031380E+04  0.00000000000E+00 0.  1.
         21   -1    0    0  505  502  0.00000000000E+00 -0.00000000000E+00 -0.10849287662E+03  0.10849287662E+03  0.00000000000E+00 0.  1.
         21    1    1    2  503  502 -0.64235723527E+02 -0.31480335474E+02 -0.68267608615E+02  0.98882283978E+02  0.00000000000E+00 0.  1.
         21    1    1    2  504  503  0.14056035057E+02  0.56684858106E+02  0.28439993776E+03  0.29033441040E+03  0.00000000000E+00 0.  1.
         21    1    1    2  505  501 -0.57240210283E+01  0.50918853781E+02  0.12547649808E+02  0.52753555357E+02  0.00000000000E+00 0.  1.
          2    1    1    2  501    0  0.55903709498E+02 -0.76123376412E+02  0.12050302824E+04  0.12087257649E+04  0.00000000000E+00 0.  1.
<scales pt_clust_3="14000.00000" pt_clust_4="60.01741" pt_clust_5="51.23958" pt_clust_6="71.66500"></scales>
<clustering>
<clus scale="   51.240">  2  5  1 -1</clus>
<clus scale="   60.017">  1  4  2 -1</clus>
<clus scale="   71.665">  1  6  2 -1</clus>
<clus scale="   51.240">  2  3  1 -1</clus>
</clustering>
</event>
<event>
 6    0  0.1849053E+002  0.2518817E+03  0.7546771E-02  0.1112121E+00
          2   -1    0    0  502    0 -0.00000000000E+00  0.00000000000E+00  0.32902303829E+03  0.32902303829E+03  0.00000000000E+00 0.  1.
         21   -1    0    0  503  502  0.00000000000E+00 -0.00000000000E+00 -0.45711851609E+03  0.45711851609E+03  0.00000000000E+00 0. -1.
         21    1    1    2  503  505 -0.56621899630E+02  0.15062459628E+03 -0.28735778007E+03  0.32934526304E+03  0.00000000000E+00 0. -1.
         21    1    1    2  504  501  0.21692029896E+02 -0.62223657809E+02  0.22318594974E+02  0.69573324153E+02  0.00000000000E+00 0. -1.
         21    1    1    2  505  504 -0.32788575983E+02  0.71751767325E+02 -0.77874711961E+02  0.11085069956E+03  0.00000000000E+00 0. -1.
          2    1    1    2  501    0  0.67718445717E+02 -0.16015270579E+03  0.21481841925E+03  0.27637226763E+03  0.00000000000E+00 0.  1.
<scales pt_clust_3="245.71877" pt_clust_4="47.68046" pt_clust_5="37.91467" pt_clust_6="47.68046"></scales>
<clustering>
<clus scale="   37.915">  3  5 -1 -1</clus>
<clus scale="   47.680">  4  6 -1 -1</clus>
<clus scale="  245.719">  2  3  1 -1</clus>
<clus scale="  245.719">  2  3  1 -1</clus>
</clustering>
</event>
<event>
 6    0  0.1849053E+002  0.1610392E+03  0.7546771E-02  0.1187528E+00
          2   -1    0    0  502    0 -0.00000000000E+00  0.00000000000E+00  0.14564092052E+04  0.14564092052E+04  0.00000000000E+00 0.  1.
         21   -1    0    0  504  502  0.00000000000E+00 -0.00000000000E+00 -0.69209648793E+02  0.69209648793E+02  0.00000000000E+00 0.  1.
         21    1    1    2  503  501  0.49762942826E+02  0.30200326788E+02  0.13040584410E+03  0.14280789331E+03  0.00000000000E+00 0.  1.
         21    1    1    2  504  505 -0.14246450737E+03  0.34741793793E+02  0.12263118619E+03  0.19115840532E+03  0.00000000000E+00 0.  1.
         21    1    1    2  505  503  0.95432883354E+02  0.34120699070E+02  0.70676029453E+02  0.12355872478E+03  0.00000000000E+00 0.  1.
          2    1    1    2  501    0 -0.27313188049E+01 -0.99062819650E+02  0.10634864967E+04  0.10680938306E+04  0.00000000000E+00 0.  1.
<scales pt_clust_3="55.16383" pt_clust_4="143.65026" pt_clust_5="55.16383" pt_clust_6="99.10047"></scales>
<clustering>
<clus scale="   55.164">  3  5 -1 -1</clus>
<clus scale="   99.100">  1  6  2 -1</clus>
<clus scale="  143.650">  2  4  1 -1</clus>
<clus scale="  143.650">  2  3  1 -1</clus>
</clustering>
</event>
<event>
 6    0  0.1849053E+002  0.1315707E+03  0.7546771E-02  0.1225144E+00
          2   -1    0    0  505    0 -0.00000000000E+00  0.00000000000E+00  0.59345800695E+03  0.59345800695E+03  0.00000000000E+00 0.  1.
         21   -1    0    0  503  502  0.00000000000E+00 -0.00000000000E+00 -0.15754303939E+03  0.15754303939E+03  0.00000000000E+00 0.  1.
         21    1    1    2  503  501 -0.56001797672E+02 -0.94394700288E+02 -0.88332554004E+02  0.14088719204E+03  0.00000000000E+00 0.  1.
         21    1    1    2  504  502 -0.54237737797E+02  0.88909200256E+01 -0.78407348901E+01  0.55518085196E+02  0.00000000000E+00 0.  1.
         21    1    1    2  505  504  0.99206424669E+01  0.30118338280E+02  0.21724247379E+03  0.21954458743E+03  0.00000000000E+00 0.  1.
          2    1    1    2  501    0  0.10031889300E+03  0.55385441982E+02  0.31484578266E+03  0.33505118167E+03  0.00000000000E+00 0.  1.
<scales pt_clust_3="14000.00000" pt_clust_4="54.68531" pt_clust_5="31.71015" pt_clust_6="131.57068"></scales>
<clustering>
<clus scale="   31.710">  1  5  2 -1</clus>
<clus scale="   54.685">  2  4  1 -1</clus>
<clus scale="  131.571">  1  6  2 -1</clus>
<clus scale="   54.685">  2  3  1 -1</clus>
</clustering>
</event>
<event>
 6    0  0.1849053E+002  0.2191100E+03  0.7546771E-02  0.1134548E+00
         -1   -1    0    0    0  501 -0.00000000000E+00  0.00000000000E+00  0.47901596064E+03  0.47901596064E+03  0.00000000000E+00 0.  1.
         21   -1    0    0  505  502  0.00000000000E+00 -0.00000000000E+00 -0.10002689152E+03  0.10002689152E+03  0.00000000000E+00 0.  1.
         21    1    1    2  503  501  0.51124202063E+01 -0.63824929862E+02  0.82962182589E+02  0.10479733896E+03  0.00000000000E+00 0.  1.
         21    1    1    2  504  502 -0.13692842480E+02  0.61577403495E+02  0.22642471794E+02  0.67022026867E+02  0.00000000000E+00 0.  1.
         21    1    1    2  505  503  0.68118568310E+02 -0.13517802054E+03  0.12380859904E+03  0.19555512210E+03  0.00000000000E+00 0.  1.
         -1    1    1    2    0  504 -0.59538146036E+02  0.13742554691E+03  0.14957581570E+03  0.21166836424E+03  0.00000000000E+00 0.  1.
<scales pt_clust_3="32.47020" pt_clust_4="35.80803" pt_clust_5="217.84730" pt_clust_6="35.80803"></scales>
<clustering>
<clus scale="   32.470">  3  5 -1 -1</clus>
<clus scale="   35.808">  4  6 -1 -1</clus>
<clus scale="  217.847">  1  3  2 -1</clus>
<clus scale="  219.110">  2  3  1 -1</clus>
</clustering>
</event>
<event>
 6    0  0.1849053E+002  0.1566433E+03  0.7546771E-02  0.1192539E+00
         21   -1    0    0  504  502  0.00000000000E+00  0.00000000000E+00  0.10957479271E+03  0.10957479271E+03  0.00000000000E+00 0. -1.
          3   -1    0    0  505    0 -0.00000000000E+00 -0.00000000000E+00 -0.44465286433E+03  0.44465286433E+03  0.00000000000E+00 0. -1.
         21    1    1    2  503  501  0.51392855964E+02 -0.22849700595E+02 -0.50658636072E+02  0.75694331823E+02  0.00000000000E+00 0. -1.
         21    1    1    2  504  503  0.61404948468E+02  0.14158210611E+03 -0.74669290657E+02  0.17143967870E+03  0.00000000000E+00 0. -1.
         21    1    1    2  505  502 -0.13836932286E+03 -0.10264311967E+03 -0.11374053556E+03  0.20644270138E+03  0.00000000000E+00 0. -1.
          3    1    1    2  501    0  0.25571518428E+02 -0.16089285838E+02 -0.96009609323E+02  0.10065094513E+03  0.00000000000E+00 0. -1.
<scales pt_clust_3="61.70341" pt_clust_4="156.64331" pt_clust_5="14000.00000" pt_clust_6="30.21205"></scales>
<clustering>
<clus scale="   30.212">  2  6  1 -1</clus>
<clus scale="   61.703">  2  3  1 -1</clus>
<clus scale="  156.643">  1  4  2 -1</clus>
<clus scale="  156.643">  1  3  2 -1</clus>
</clustering>
</event>
<event>
 6    0  0.1849053E+002  0.1738952E+03  0.7546771E-02  0.1173846E+00
         21   -1    0    0  504  502  0.00000000000E+00  0.00000000000E+00  0.84757911960E+02  0.84757911960E+02  0.00000000000E+00 0.  1.
          2   -1    0    0  505    0 -0.00000000000E+00 -0.00000000000E+00 -0.25354410201E+04  0.25354410201E+04  0.00000000000E+00 0.  1.
         21    1    1    2  503  501 -0.64840411219E+02 -0.10021098718E+02  0.78743224335E+01  0.66081058560E+02  0.00000000000E+00 0. -1.
         21    1    1    2  504  503 -0.84798233208E+02 -0.67002767292E+02 -0.26684376796E+02  0.11132011114E+03  0.00000000000E+00 0.  1.
         21    1    1    2  505  502  0.50231935479E+02  0.37138949760E+02 -0.23034904180E+03  0.23866970899E+03  0.00000000000E+00 0. -1.
          2    1    1    2  501    0  0.99406708948E+02  0.39884916250E+02 -0.22015240120E+04  0.22041280533E+04  0.00000000000E+00 0.  1.
<scales pt_clust_3="41.17714" pt_clust_4="41.17714" pt_clust_5="62.47038" pt_clust_6="165.67009"></scales>
<clustering>
<clus scale="   41.177">  3  4 -1 -1</clus>
<clus scale="   62.470">  2  5  1 -1</clus>
<clus scale="  165.670">  2  6  1 -1</clus>
<clus scale="  173.895">  1  3  2 -1</clus>
</clustering>
</event>
<event>
 6    0  0.1849053E+002  0.1165135E+03  0.7546771E-02  0.1248962E+00
         21   -1    0    0  504  502  0.00000000000E+00  0.00000000000E+00  0.27775051038E+02  0.27775051038E+02  0.00000000000E+00 0. -1.
          2   -1    0    0  503    0 -0.00000000000E+00 -0.00000000000E+00 -0.28434205301E+04  0.28434205301E+04  0.00000000000E+00 0.  1.
         21    1    1    2  503  505  0.37491876019E+02 -0.17119713641E+02 -0.80043823408E+03  0.80149865373E+03  0.00000000000E+00 0.  1.
         21    1    1    2  504  501  0.15523531264E+01  0.35586889032E+02 -0.12184020080E+03  0.12694042304E+03  0.00000000000E+00 0. -1.
         21    1    1    2  505  502 -0.44248521282E+02  0.79466186662E+02 -0.65077866184E+02  0.11183888020E+03  0.00000000000E+00 0. -1.
          2    1    1    2  501    0  0.52042921361E+01 -0.97933362053E+02 -0.18282891780E+04  0.18309176241E+04  0.00000000000E+00 0.  1.
<scales pt_clust_3="40.94046" pt_clust_4="35.62073" pt_clust_5="116.51354" pt_clust_6="14000.00000"></scales>
<clustering>
<clus scale="   35.621">  1  4  2 -1</clus>
<clus scale="   40.940">  2  3  1 -1</clus>
<clus scale="  116.514">  1  5  2 -1</clus>
<clus scale="   35.621">  1  3  2 -1</clus>
</clustering>
</event>
<event>
 6    0  0.1849053E+002  0.1726906E+03  0.7546771E-02  0.1175071E+00
         21   -1    0    0  503  502  0.00000000000E+00  0.00000000000E+00  0.91695284554E+02  0.91695284554E+02  0.00000000000E+00 0. -1.
          2   -1    0    0  504    0 -0.00000000000E+00 -0.00000000000E+00 -0.50696039533E+03  0.50696039533E+03  0.00000000000E+00 0.  1.
         21    1    1    2  503  505  0.28340476948E+02 -0.38912752442E+02 -0.60334228299E+01  0.48515844086E+02  0.00000000000E+00 0. -1.
         21    1    1    2  504  502  0.14477271214E+03  0.17907248226E+02 -0.63143910275E+02  0.15895584646E+03  0.00000000000E+00 0. -1.
         21    1    1    2  505  501 -0.66316808199E+02 -0.12816657920E+02 -0.16442661220E+03  0.17775909701E+03  0.00000000000E+00 0.  1.
          2    1    1    2  501    0 -0.10679638089E+03  0.33822162137E+02 -0.18166116547E+03  0.21342489233E+03  0.00000000000E+00 0.  1.
<scales pt_clust_3="48.13922" pt_clust_4="164.26587" pt_clust_5="41.37152" pt_clust_6="41.37152"></scales>
<clustering>
<clus scale="   41.372">  5  6 -1 -1</clus>
<clus scale="   48.139">  1  3  2 -1</clus>
<clus scale="  164.266">  1  4  2 -1</clus>
<clus scale="   48.139">  1  3  2 -1</clus>
</clustering>
</event>
<event>
 6    0  0.1849053E+002  0.1001243E+03  0.7546771E-02  0.1280035E+00
         21   -1    0    0  505  502  0.00000000000E+00  0.00000000000E+00  0.81874674258E+03  0.81874674258E+03  0.00000000000E+00 0.  1.
          1   -1    0    0  503    0 -0.00000000000E+00 -0.00000000000E+00 -0.17235638322E+03  0.17235638322E+03  0.00000000000E+00 0.  1.
         21    1    1    2  503  504 -0.50904573625E+02 -0.55776475422E+02  0.32855399512E+02  0.82351491203E+02  0.00000000000E+00 0.  1.
         21    1    1    2  504  502 -0.30304812990E+02  0.14633771882E+02  0.25944745568E+03  0.26162093041E+03  0.00000000000E+00 0.  1.
         21    1    1    2  505  501 -0.65798698660E+02 -0.47410337873E+02  0.44540576154E+03  0.45272894904E+03  0.00000000000E+00 0.  1.
          1    1    1    2  501    0  0.14700808527E+03  0.88553041413E+02 -0.91318257368E+02  0.19440175516E+03  0.00000000000E+00 0.  1.
<scales pt_clust_3="76.57856" pt_clust_4="33.65307" pt_clust_5="100.12428" pt_clust_6="14000.00000"></scales>
<clustering>
<clus scale="   33.653">  1  4  2 -1</clus>
<clus scale="   76.579">  2  3  1 -1</clus>
<clus scale="  100.124">  1  5  2 -1</clus>
<clus scale="   33.653">  1  3  2 -1</clus>
</clustering>
</event>
<event>
 6    0  0.1849053E+002  0.1073511E+03  0.7546771E-02  0.1265555E+00
          1   -1    0    0  504    0 -0.00000000000E+00  0.00000000000E+00  0.34397790551E+03  0.34397790551E+03  0.00000000000E+00 0.  1.
         21   -1    0    0  503  502  0.00000000000E+00 -0.00000000000E+00 -0.16585887137E+03  0.16585887137E+03  0.00000000000E+00 0.  1.
         21    1    1    2  503  501  0.51474359029E+02  0.10063596004E+03 -0.11197770980E+03  0.15911069600E+03  0.00000000000E+00 0.  1.
         21    1    1    2  504  505  0.41600722342E+02 -0.23817278119E+02  0.35894257671E+02  0.59885562284E+02  0.00000000000E+00 0.  1.
         21    1    1    2  505  502 -0.67577639605E+02 -0.15874872028E+02  0.88656529863E+02  0.11259986334E+03  0.00000000000E+00 0.  1.
          1    1    1    2  501    0 -0.25497441767E+02 -0.60943809897E+02  0.16554595641E+03  0.17824065525E+03  0.00000000000E+00 0.  1.
<scales pt_clust_3="14000.00000" pt_clust_4="47.93624" pt_clust_5="58.56864" pt_clust_6="107.35111"></scales>
<clustering>
<clus scale="   47.936">  1  4  2 -1</clus>
<clus scale="   58.569">  1  5  2 -1</clus>
<clus scale="  107.351">  1  6  2 -1</clus>
<clus scale="  107.351">  2  3  1 -1</clus>
</clustering>
</event>
<event>
 6    0  0.1849053E+002  0.7110564E+02  0.7546771E-02  0.1356373E+00
          2   -1    0    0  505    0 -0.00000000000E+00  0.00000000000E+00  0.26671244883E+03  0.26671244883E+03  0.00000000000E+00 0. -1.
         21   -1    0    0  504  502  0.00000000000E+00 -0.00000000000E+00 -0.23660246684E+03  0.23660246684E+03  0.00000000000E+00 0.  1.
         21    1    1    2  503  501 -0.11867943122E+01  0.71992879494E+02 -0.34520393796E+02  0.79850114379E+02  0.00000000000E+00 0.  1.
         21    1    1    2  504  503 -0.62046661216E+02 -0.29592883686E+02 -0.15316129982E+03  0.16788064420E+03  0.00000000000E+00 0.  1.
         21    1    1    2  505  502  0.29501467969E+02  0.36978171982E+02  0.83937077961E+02  0.96349130105E+02  0.00000000000E+00 0. -1.
          2    1    1    2  501    0  0.33731987559E+02 -0.79378167789E+02  0.13385459766E+03  0.15923502699E+03  0.00000000000E+00 0. -1.
<scales pt_clust_3="71.10564" pt_clust_4="66.97461" pt_clust_5="47.30456" pt_clust_6="14000.00000"></scales>
<clustering>
<clus scale="   47.305">  1  5  2 -1</clus>
<clus scale="   66.975">  2  4  1 -1</clus>
<clus scale="   71.106">  2  3  1 -1</clus>
<clus scale="   66.975">  2  3  1 -1</clus>
</clustering>
</event>
<event>
 6    0  0.1849053E+002  0.1292373E+03  0.7546771E-02  0.1228592E+00
         21   -1    0    0  505  502  0.00000000000E+00  0.00000000000E+00  0.14084750039E+04  0.14084750039E+04  0.00000000000E+00 0.  1.
         -2   -1    0    0    0  501 -0.00000000000E+00 -0.00000000000E+00 -0.30422330520E+03  0.30422330520E+03  0.00000000000E+00 0.  1.
         21    1    1    2  503  502 -0.75000227551E+02 -0.19064916134E+03  0.12027365653E+04  0.12200604011E+04  0.00000000000E+00 0.  1.
         21    1    1    2  504  503  0.36331166210E+02  0.43253156024E+02 -0.92507562342E+02  0.10839021282E+03  0.00000000000E+00 0.  1.
         21    1    1    2  505  501  0.32653854318E+02  0.78449770302E+02  0.17278854005E+03  0.19255264276E+03  0.00000000000E+00 0.  1.
         -2    1    1    2    0  504  0.60152070231E+01  0.68946235018E+02 -0.17876584429E+03  0.19169505243E+03  0.00000000000E+00 0.  1.
<scales pt_clust_3="120.92272" pt_clust_4="41.20275" pt_clust_5="84.97435" pt_clust_6="41.20275"></scales>
<clustering>
<clus scale="   41.203">  4  6 -1 -1</clus>
<clus scale="   84.974">  1  5  2 -1</clus>
<clus scale="  120.923">  1  3  2 -1</clus>
<clus scale="   84.974">  1  3  2 -1</clus>
</clustering>
</event>
<event>
 6    0  0.1849053E+002  0.1242841E+03  0.7546771E-02  0.1236192E+00
         21   -1    0    0  503  502  0.00000000000E+00  0.00000000000E+00  0.23095696283E+03  0.23095696283E+03  0.00000000000E+00 0.  1.
          2   -1    0    0  504    0 -0.00000000000E+00 -0.00000000000E+00 -0.11723237796E+04  0.11723237796E+04  0.00000000000E+00 0.  1.
         21    1    1    2  503  501  0.33305750040E+02 -0.43714718651E+02  0.11652301856E+03  0.12883269564E+03  0.00000000000E+00 0.  1.
         21    1    1    2  504  505  0.90232052549E+01  0.10578948173E+03 -0.42748109006E+03  0.44046897171E+03  0.00000000000E+00 0.  1.
         21    1    1    2  505  502  0.20913852486E+02  0.74562908645E+02  0.77901085812E+02  0.10984350569E+03  0.00000000000E+00 0.  1.
          2    1    1    2  501    0 -0.63242807781E+02 -0.13663767173E+03 -0.70830983107E+03  0.72413556939E+03  0.00000000000E+00 0.  1.
<scales pt_clust_3="54.95680" pt_clust_4="124.28408" pt_clust_5="61.83165" pt_clust_6="14000.00000"></scales>
<clustering>
<clus scale="   54.957">  1  3  2 -1</clus>
<clus scale="   61.832">  1  5  2 -1</clus>
<clus scale="  124.284">  2  4  1 -1</clus>
<clus scale="   54.957">  1  3  2 -1</clus>
</clustering>
</event>
<event>
 6    0  0.1849053E+002  0.1065594E+03  0.7546771E-02  0.1267077E+00
         21   -1    0    0  505  502  0.00000000000E+00  0.00000000000E+00  0.15848405321E+03  0.15848405321E+03  0.00000000000E+00 0.  1.
          2   -1    0    0  503    0 -0.00000000000E+00 -0.00000000000E+00 -0.38454826222E+03  0.38454826222E+03  0.00000000000E+00 0.  1.
         21    1    1    2  503  504  0.31948081536E+02 -0.76580952472E+02 -0.15873676173E+02  0.84482517663E+02  0.00000000000E+00 0.  1.
         21    1    1    2  504  502  0.43902241069E+02 -0.93715781164E+01  0.83328957068E+02  0.94651721238E+02  0.00000000000E+00 0.  1.
         21    1    1    2  505  501 -0.34413116259E+02 -0.19886628464E+02  0.89816161132E+01  0.40748128673E+02  0.00000000000E+00 0.  1.
          2    1    1    2  501    0 -0.41437206346E+02  0.10583915905E+03 -0.30250110602E+03  0.32314994786E+03  0.00000000000E+00 0.  1.
<scales pt_clust_3="106.55943" pt_clust_4="30.85089" pt_clust_5="39.74595" pt_clust_6="14000.00000"></scales>
<clustering>
<clus scale="   39.746">  1  5  2 -1</clus>
<clus scale="   30.851">  1  4  2 -1</clus>
<clus scale="  106.559">  1  3  2 -1</clus>
<clus scale="   39.746">  1  3  2 -1</clus>
</clustering>
</event>
<event>
 6    0  0.1849053E+002  0.2443309E+03  0.7546771E-02  0.1116941E+00
          3   -1    0    0  503    0 -0.00000000000E+00  0.00000000000E+00  0.20764373017E+03  0.20764373017E+03  0.00000000000E+00 0.  1.
         21   -1    0    0  501  502  0.00000000000E+00 -0.00000000000E+00 -0.34457483406E+03  0.34457483406E+03  0.00000000000E+00 0. -1.
         21    1    1    2  503  504  0.18952613072E+02 -0.15898733743E+03 -0.27399535363E+02  0.16244048000E+03  0.00000000000E+00 0. -1.
         21    1    1    2  504  505 -0.24902433129E+02 -0.51981397428E+02 -0.59380357645E+02  0.82753995240E+02  0.00000000000E+00 0. -1.
         21    1    1    2  505  502  0.17664075699E+02 -0.27486342530E+02 -0.59737768640E+02  0.68089056375E+02  0.00000000000E+00 0. -1.
          3    1    1    2  501    0 -0.11714255642E+02  0.23845507739E+03  0.95865577622E+01  0.23893503261E+03  0.00000000000E+00 0.  1.
<scales pt_clust_3="54.31891" pt_clust_4="54.31891" pt_clust_5="32.67290" pt_clust_6="227.26905"></scales>
<clustering>
<clus scale="   32.673">  2  5  1 -1</clus>
<clus scale="   54.319">  3  4 -1 -1</clus>
<clus scale="  227.269">  1  6  2 -1</clus>
<clus scale="   32.673">  2  3  1 -1</clus>
</clustering>
</event>
<event>
 6    0  0.1849053E+002  0.1779362E+03  0.7546771E-02  0.1169815E+00
          2   -1    0    0  502    0 -0.00000000000E+00  0.00000000000E+00  0.20378246455E+03  0.20378246455E+03  0.00000000000E+00 0.  1.
         21   -1    0    0  503  502  0.00000000000E+00 -0.00000000000E+00 -0.70534320356E+03  0.70534320356E+03  0.00000000000E+00 0.  1.
         21    1    1    2  503  504  0.69075859341E+02 -0.70334161639E+02 -0.41489598471E+03  0.42644700347E+03  0.00000000000E+00 0.  1.
         21    1    1    2  504  505  0.69981894552E+02 -0.20024032796E+02 -0.23812944880E+03  0.24900614820E+03  0.00000000000E+00 0.  1.
         21    1    1    2  505  501 -0.94245906004E+02  0.50498527836E+02  0.55396920559E+02  0.12042097375E+03  0.00000000000E+00 0.  1.
          2    1    1    2  501    0 -0.44811847890E+02  0.39859666600E+02  0.96067773943E+02  0.11325154270E+03  0.00000000000E+00 0.  1.
<scales pt_clust_3="172.61154" pt_clust_4="41.14794" pt_clust_5="48.30309" pt_clust_6="48.30309"></scales>
<clustering>
<clus scale="   41.148">  3  4 -1 -1</clus>
<clus scale="   48.303">  5  6 -1 -1</clus>
<clus scale="  172.612">  2  3  1 -1</clus>
<clus scale="  172.612">  2  3  1 -1</clus>
</clustering>
</event>
<event>
 6    0  0.1849053E+002  0.2650134E+03  0.7546771E-02  0.1104168E+00
         21   -1    0    0  505  502  0.00000000000E+00  0.00000000000E+00  0.85119378377E+03  0.85119378377E+03  0.00000000000E+00 0.  1.
         -2   -1    0    0    0  501 -0.00000000000E+00 -0.00000000000E+00 -0.62598878851E+03  0.62598878851E+03  0.00000000000E+00 0. -1.
         21    1    1    2  503  501  0.11842323655E+03  0.18741372493E+03  0.75420801675E+03  0.78611557660E+03  0.00000000000E+00 0.  1.
         21    1    1    2  504  502 -0.66531184372E+02 -0.47331361093E+02 -0.14940263055E+03  0.17025804607E+03  0.00000000000E+00 0.  1.
         21    1    1    2  505  503  0.29901154973E+02  0.24102061392E+02  0.44475301493E+02  0.58762580568E+02  0.00000000000E+00 0.  1.
         -2    1    1    2    0  504 -0.81793207152E+02 -0.16418442523E+03 -0.42407569244E+03  0.46204636904E+03  0.00000000000E+00 0. -1.
<scales pt_clust_3="256.98188" pt_clust_4="43.16421" pt_clust_5="38.40558" pt_clust_6="43.16421"></scales>
<clustering>
<clus scale="   38.406">  1  5  2 -1</clus>
<clus scale="   43.164">  4  6 -1 -1</clus>
<clus scale="  256.982">  1  3  2 -1</clus>
<clus scale="   38.406">  1  3  2 -1</clus>
</clustering>
</event>
<event>
 6    0  0.1849053E+002  0.9800078E+02  0.7546771E-02  0.1284557E+00
          2   -1    0    0  505    0 -0.00000000000E+00  0.00000000000E+00  0.18277843328E+04  0.18277843328E+04  0.00000000000E+00 0.  1.
         21   -1    0    0  504  502  0.00000000000E+00 -0.00000000000E+00 -0.18970886806E+04  0.18970886806E+04  0.00000000000E+00 0.  1.
         21    1    1    2  503  501  0.71051302304E+02  0.10083713980E+03 -0.25193882207E+03  0.28051664191E+03  0.00000000000E+00 0. -1.
         21    1    1    2  504  503 -0.96576348940E+02 -0.19461600435E+02 -0.16276956405E+04  0.16306743523E+04  0.00000000000E+00 0.  1.
         21    1    1    2  505  502 -0.44346654307E+01 -0.51771778404E+02  0.50366000737E+03  0.50633327594E+03  0.00000000000E+00 0.  1.
          2    1    1    2  501    0  0.29959712066E+02 -0.29603760964E+02  0.13066701074E+04  0.13073487432E+04  0.00000000000E+00 0.  1.
<scales pt_clust_3="14000.00000" pt_clust_4="98.00078" pt_clust_5="84.15950" pt_clust_6="42.11849"></scales>
<clustering>
<clus scale="   42.118">  1  6  2 -1</clus>
<clus scale="   84.159">  1  5  2 -1</clus>
<clus scale="   98.001">  2  4  1 -1</clus>
<clus scale="   98.001">  2  3  1 -1</clus>
</clustering>
</event>
<event>
 6    0  0.1849053E+002  0.1033412E+03  0.7546771E-02  0.1273423E+00
         21   -1    0    0  504  502  0.00000000000E+00  0.00000000000E+00  0.51619666471E+03  0.51619666471E+03  0.00000000000E+00 0. -1.
         -1   -1    0    0    0  501 -0.00000000000E+00 -0.00000000000E+00 -0.62671898249E+02  0.62671898249E+02  0.00000000000E+00 0. -1.
         21    1    1    2  503  502 -0.17926441890E+02  0.93887503035E+02  0.35734739199E+03  0.36990996081E+03  0.00000000000E+00 0. -1.
         21    1    1    2  504  505  0.22617895395E+02  0.24063462431E+02  0.61570525220E+02  0.69868082786E+02  0.00000000000E+00 0.  1.
         21    1    1    2  505  501 -0.27955951482E+02 -0.34715321299E+02 -0.33479553931E+01  0.44697847392E+02  0.00000000000E+00 0. -1.
         -1    1    1    2    0  503  0.23264497976E+02 -0.83235644168E+02  0.37954804645E+02  0.94392671971E+02  0.00000000000E+00 0. -1.
<scales pt_clust_3="103.34118" pt_clust_4="33.02453" pt_clust_5="43.06119" pt_clust_6="14000.00000"></scales>
<clustering>
<clus scale="   33.025">  1  4  2 -1</clus>
<clus scale="   43.061">  2  5  1 -1</clus>
<clus scale="  103.341">  1  3  2 -1</clus>
<clus scale="   33.025">  1  3  2 -1</clus>
</clustering>
</event>
<event>
 6    0  0.1849053E+002  0.2711748E+03  0.7546771E-02  0.1100609E+00
         21   -1    0    0  501  502  0.00000000000E+00  0.00000000000E+00  0.60031992579E+03  0.60031992579E+03  0.00000000000E+00 0. -1.
          4   -1    0    0  504    0 -0.00000000000E+00 -0.00000000000E+00 -0.23249823715E+03  0.23249823715E+03  0.00000000000E+00 0. -1.
         21    1    1    2  503  505 -0.23185441507E+03  0.34240122200E+02  0.71396150748E+02  0.24500258386E+03  0.00000000000E+00 0. -1.
         21    1    1    2  504  503 -0.29717528097E+02  0.28268483148E+02 -0.56021137347E+01  0.41395921224E+02  0.00000000000E+00 0. -1.
         21    1    1    2  505  502  0.51836841974E+02  0.10013429206E+03  0.25235931373E+03  0.27640397583E+03  0.00000000000E+00 0. -1.
          4    1    1    2  501    0  0.20973510119E+03 -0.16264289740E+03  0.49668337901E+02  0.27001568202E+03  0.00000000000E+00 0. -1.
<scales pt_clust_3="30.64994" pt_clust_4="30.64994" pt_clust_5="112.75608" pt_clust_6="261.08946"></scales>
<clustering>
<clus scale="   30.650">  3  4 -1 -1</clus>
<clus scale="  112.756">  1  5  2 -1</clus>
<clus scale="  261.089">  2  6  1 -1</clus>
<clus scale="  112.756">  1  3  2 -1</clus>
</clustering>
</event>
<event>
 6    0  0.1849053E+002  0.9878537E+02  0.7546771E-02  0.1282871E+00
          1   -1    0    0  505    0 -0.00000000000E+00  0.00000000000E+00  0.10621836592E+03  0.10621836592E+03  0.00000000000E+00 0.  1.
         21   -1    0    0  504  502  0.00000000000E+00 -0.00000000000E+00 -0.43784456156E+03  0.43784456156E+03  0.00000000000E+00 0.  1.
         21    1    1    2  503  501  0.12448668424E+03 -0.67528255504E+01 -0.21499588378E+03  0.24852719218E+03  0.00000000000E+00 0.  1.
         21    1    1    2  504  503 -0.32015723962E+02 -0.40596919817E+02 -0.11883103788E+03  0.12959140420E+03  0.00000000000E+00 0.  1.
         21    1    1    2  505  502 -0.54003152675E+02 -0.29063941479E+02 -0.37231106964E+02  0.71744048666E+02  0.00000000000E+00 0. -1.
          1    1    1    2  501    0 -0.38467807605E+02  0.76413686847E+02  0.39431832990E+02  0.94200282443E+02  0.00000000000E+00 0.  1.
<scales pt_clust_3="14000.00000" pt_clust_4="51.70219" pt_clust_5="69.65950" pt_clust_6="98.78537"></scales>
<clustering>
<clus scale="   51.702">  2  4  1 -1</clus>
<clus scale="   69.660">  1  5  2 -1</clus>
<clus scale="   98.785">  1  6  2 -1</clus>
<clus scale="   51.702">  2  3  1 -1</clus>
</clustering>
</event>
<event>
 6    0  0.1849053E+002  0.2472588E+03  0.7546771E-02  0.1115050E+00
          1   -1    0    0  502    0 -0.00000000000E+00  0.00000000000E+00  0.40694132566E+03  0.40694132566E+03  0.00000000000E+00 0.  1.
         21   -1    0    0  504  502  0.00000000000E+00 -0.00000000000E+00 -0.26014649043E+03  0.26014649043E+03  0.00000000000E+00 0.  1.
         21    1    1    2  503  501 -0.25427725204E+02  0.13333899518E+03  0.16392623244E+03  0.21283248466E+03  0.00000000000E+00 0.  1.
         21    1    1    2  504  505  0.17629680490E+02 -0.15476125947E+03 -0.13641041013E+03  0.20704988061E+03  0.00000000000E+00 0.  1.
         21    1    1    2  505  503 -0.48655379317E+02 -0.63861213770E+02 -0.11585129610E+02  0.81116063692E+02  0.00000000000E+00 0.  1.
          1    1    1    2  501    0  0.56453424031E+02  0.85283478065E+02  0.13086414254E+03  0.16608938713E+03  0.00000000000E+00 0.  1.
<scales pt_clust_3="77.25867" pt_clust_4="79.87664" pt_clust_5="79.87664" pt_clust_6="238.07650"></scales>
<clustering>
<clus scale="   77.259">  3  6 -1 -1</clus>
<clus scale="   79.877">  4  5 -1 -1</clus>
<clus scale="  238.076">  1  3  2 -1</clus>
<clus scale="  247.259">  2  3  1 -1</clus>
</clustering>
</event>
<event>
 6    0  0.1849053E+002  0.7627903E+02  0.7546771E-02  0.1339955E+00
         21   -1    0    0  505  502  0.00000000000E+00  0.00000000000E+00  0.23575204083E+03  0.23575204083E+03  0.00000000000E+00 0. -1.
         -1   -1    0    0    0  501 -0.00000000000E+00 -0.00000000000E+00 -0.87533108355E+03  0.87533108355E+03  0.00000000000E+00 0.  1.
         21    1    1    2  503  502  0.20343451215E+02 -0.47709767799E+02  0.15159970647E+03  0.16022655508E+03  0.00000000000E+00 0. -1.
         21    1    1    2  504  503 -0.89938178408E+02  0.35454931133E+02  0.24289643697E+02  0.99679059325E+02  0.00000000000E+00 0. -1.
         21    1    1    2  505  501  0.77958070973E+02  0.79389380094E+02 -0.17654450047E+03  0.20868180358E+03  0.00000000000E+00 0. -1.
         -1    1    1    2    0  504 -0.83633437804E+01 -0.67134543428E+02 -0.63892389242E+03  0.64249570640E+03  0.00000000000E+00 0.  1.
<scales pt_clust_3="51.86596" pt_clust_4="14000.00000" pt_clust_5="76.27903" pt_clust_6="68.65873"></scales>
<clustering>
<clus scale="   51.866">  1  3  2 -1</clus>
<clus scale="   68.659">  2  6  1 -1</clus>
<clus scale="   76.279">  2  5  1 -1</clus>
<clus scale="   51.866">  1  3  2 -1</clus>
</clustering>
</event>
<event>
 6    0  0.1849053E+002  0.1398026E+03  0.7546771E-02  0.1213595E+00
          1   -1    0    0  503    0 -0.00000000000E+00  0.00000000000E+00  0.14723037369E+04  0.14723037369E+04  0.00000000000E+00 0. -1.
         21   -1    0    0  504  502  0.00000000000E+00 -0.00000000000E+00 -0.34385143296E+03  0.34385143296E+03  0.00000000000E+00 0.  1.
         21    1    1    2  503  502 -0.35858237801E+02  0.29877175827E+02 -0.24306526062E+03  0.24750591866E+03  0.00000000000E+00 0.  1.
         21    1    1    2  504  505 -0.45456079749E+02  0.21318657803E+01 -0.77066061623E+02  0.89498479830E+02  0.00000000000E+00 0.  1.
         21    1    1    2  505  501 -0.77405225535E+02  0.39740305485E+02  0.19510524593E+03  0.21362798929E+03  0.00000000000E+00 0. -1.
          1    1    1    2  501    0  0.15871954308E+03 -0.71749347093E+02  0.12534783802E+04  0.12655227820E+04  0.00000000000E+00 0. -1.
<scales pt_clust_3="84.86527" pt_clust_4="45.50604" pt_clust_5="139.80263" pt_clust_6="14000.00000"></scales>
<clustering>
<clus scale="   45.506">  2  4  1 -1</clus>
<clus scale="   84.865">  2  3  1 -1</clus>
<clus scale="  139.803">  2  5  1 -1</clus>
<clus scale="   45.506">  2  3  1 -1</clus>
</clustering>
</event>
<event>
 6    0  0.1849053E+002  0.1322878E+03  0.7546771E-02  0.1224100E+00
          2   -1    0    0  505    0 -0.00000000000E+00  0.00000000000E+00  0.22703130004E+04  0.22703130004E+04  0.00000000000E+00 0. -1.
         21   -1    0    0  503  502  0.00000000000E+00 -0.00000000000E+00 -0.97199599446E+02  0.97199599446E+02  0.00000000000E+00 0.  1.
         21    1    1    2  503  501  0.38026930515E+02  0.17324197904E+02  0.80872157441E+02  0.91030111099E+02  0.00000000000E+00 0. -1.
         21    1    1    2  504  502  0.49526089639E+02  0.10076115911E+03 -0.52353973384E+02  0.12388132737E+03  0.00000000000E+00 0.  1.
         21    1    1    2  505  504 -0.45443344081E+02 -0.71703040911E+02  0.52700906689E+03  0.53380237933E+03  0.00000000000E+00 0.  1.
          2    1    1    2  501    0 -0.42109676073E+02 -0.46382316108E+02  0.16175861500E+04  0.16187987821E+04  0.00000000000E+00 0. -1.
<scales pt_clust_3="41.78726" pt_clust_4="132.28777" pt_clust_5="14000.00000" pt_clust_6="62.39362"></scales>
<clustering>
<clus scale="   41.787">  2  3  1 -1</clus>
<clus scale="   62.394">  1  6  2 -1</clus>
<clus scale="  132.288">  2  4  1 -1</clus>
<clus scale="   41.787">  2  3  1 -1</clus>
</clustering>
</event>
<event>
 6    0  0.1849053E+002  0.1492029E+03  0.7546771E-02  0.1201456E+00
          2   -1    0    0  503    0 -0.00000000000E+00  0.00000000000E+00  0.20193659627E+03  0.20193659627E+03  0.00000000000E+00 0.  1.
         21   -1    0    0  501  502  0.00000000000E+00 -0.00000000000E+00 -0.18066224825E+04  0.18066224825E+04  0.00000000000E+00 0. -1.
         21    1    1    2  503  505  0.28170330431E+02  0.53789728048E+02  0.16684438729E+02  0.62970412542E+02  0.00000000000E+00 0.  1.
         21    1    1    2  504  502  0.10783525469E+02 -0.85672126911E+02 -0.11235108150E+04  0.11268240986E+04  0.00000000000E+00 0. -1.
         21    1    1    2  505  504 -0.39361296641E+02 -0.49062627228E+02 -0.64647855185E+03  0.64953134725E+03  0.00000000000E+00 0.  1.
          2    1    1    2  501    0  0.40744074160E+00  0.80945026092E+02  0.14861904191E+03  0.16923322036E+03  0.00000000000E+00 0.  1.
<scales pt_clust_3="60.71987" pt_clust_4="51.25344" pt_clust_5="51.25344" pt_clust_6="136.58457"></scales>
<clustering>
<clus scale="   51.253">  4  5 -1 -1</clus>
<clus scale="   60.720">  1  3  2 -1</clus>
<clus scale="  136.585">  1  6  2 -1</clus>
<clus scale="  149.203">  2  3  1 -1</clus>
</clustering>
</event>
<event>
 6    0  0.1849053E+002  0.1973808E+03  0.7546771E-02  0.1151968E+00
          2   -1    0    0  505    0 -0.00000000000E+00  0.00000000000E+00  0.13158817622E+04  0.13158817622E+04  0.00000000000E+00 0.  1.
         21   -1    0    0  503  502  0.00000000000E+00 -0.00000000000E+00 -0.19739994690E+03  0.19739994690E+03  0.00000000000E+00 0.  1.
         21    1    1    2  503  504  0.11065246660E+03  0.48225674324E+02 -0.62304158151E+02  0.13583626965E+03  0.00000000000E+00 0.  1.
         21    1    1    2  504  501  0.17871291931E+02  0.72447350934E+02 -0.74490011364E+02  0.10543606369E+03  0.00000000000E+00 0.  1.
         21    1    1    2  505  502 -0.51054243881E+02  0.67440856977E+01  0.21395007025E+03  0.22006056228E+03  0.00000000000E+00 0.  1.
          2    1    1    2  501    0 -0.77469514651E+02 -0.12741711096E+03  0.10413259145E+04  0.10519488134E+04  0.00000000000E+00 0.  1.
<scales pt_clust_3="72.55115" pt_clust_4="72.55115" pt_clust_5="51.49775" pt_clust_6="174.75651"></scales>
<clustering>
<clus scale="   51.498">  1  5  2 -1</clus>
<clus scale="   72.551">  3  4 -1 -1</clus>
<clus scale="  174.757">  1  6  2 -1</clus>
<clus scale="  197.381">  2  3  1 -1</clus>
</clustering>
</event>
<event>
 6    0  0.1849053E+002  0.1427345E+03  0.7546771E-02  0.1209696E+00
          2   -1    0    0  504    0 -0.00000000000E+00  0.00000000000E+00  0.16307582614E+04  0.16307582614E+04  0.00000000000E+00 0. -1.
         21   -1    0    0  505  502  0.00000000000E+00 -0.00000000000E+00 -0.86732157172E+03  0.86732157172E+03  0.00000000000E+00 0.  1.
         21    1    1    2  503  501  0.97468023270E+02  0.65254245828E+02  0.45640905891E+03  0.47124023726E+03  0.00000000000E+00 0.  1.
         21    1    1    2  504  502  0.38170875348E+02  0.30497300569E+02  0.45947845687E+01  0.49073547988E+02  0.00000000000E+00 0.  1.
         21    1    1    2  505  503 -0.97051382278E+02 -0.10517662077E+03 -0.83120366794E+03  0.84343383259E+03  0.00000000000E+00 0.  1.
          2    1    1    2  501    0 -0.38587516340E+02  0.94250743774E+01  0.11336365141E+04  0.11343322153E+04  0.00000000000E+00 0. -1.
<scales pt_clust_3="14000.00000" pt_clust_4="47.57765" pt_clust_5="142.73450" pt_clust_6="39.72189"></scales>
<clustering>
<clus scale="   39.722">  1  6  2 -1</clus>
<clus scale="   47.578">  1  4  2 -1</clus>
<clus scale="  142.735">  2  5  1 -1</clus>
<clus scale="  142.735">  2  3  1 -1</clus>
</clustering>
</event>
<event>
 6    0  0.1849053E+002  0.8663863E+02  0.7546771E-02  0.1311202E+00
         -1   -1    0    0    0  501 -0.00000000000E+00  0.00000000000E+00  0.48152476274E+03  0.48152476274E+03  0.00000000000E+00 0. -1.
         21   -1    0    0  504  502  0.00000000000E+00 -0.00000000000E+00 -0.66993649284E+03  0.66993649284E+03  0.00000000000E+00 0.  1.
         21    1    1    2  503  502 -0.55477906345E+02  0.43319850083E+02 -0.11393588771E+03  0.13392458330E+03  0.00000000000E+00 0.  1.
         21    1    1    2  504  505 -0.29530909663E+02 -0.23877816323E+02 -0.53262838088E+03  0.53398053977E+03  0.00000000000E+00 0.  1.
         21    1    1    2  505  501 -0.31170241784E+02 -0.10582805734E+02  0.16193197484E+03  0.16524389315E+03  0.00000000000E+00 0. -1.
         -1    1    1    2    0  503  0.11617905779E+03 -0.88592280256E+01  0.29622056366E+03  0.31831223936E+03  0.00000000000E+00 0. -1.
<scales pt_clust_3="86.63863" pt_clust_4="38.04233" pt_clust_5="32.91777" pt_clust_6="14000.00000"></scales>
<clustering>
<clus scale="   32.918">  1  5  2 -1</clus>
<clus scale="   38.042">  2  4  1 -1</clus>
<clus scale="   86.639">  2  3  1 -1</clus>
<clus scale="   38.042">  2  3  1 -1</clus>
</clustering>
</event>
<event>
 6    0  0.1849053E+002  0.1164564E+03  0.7546771E-02  0.1249060E+00
         21   -1    0    0  504  502  0.00000000000E+00  0.00000000000E+00  0.83849983088E+03  0.83849983088E+03  0.00000000000E+00 0.  1.
          2   -1    0    0  505    0 -0.00000000000E+00 -0.00000000000E+00 -0.71760435854E+03  0.71760435854E+03  0.00000000000E+00 0. -1.
         21    1    1    2  503  502  0.27651051646E+02  0.32265491486E+02  0.73778443263E+03  0.73900711203E+03  0.00000000000E+00 0.  1.
         21    1    1    2  504  501  0.37072107152E+02 -0.51641737736E+01  0.73754223741E+02  0.82708496172E+02  0.00000000000E+00 0. -1.
         21    1    1    2  505  503 -0.14428132042E+03  0.35030812050E+02 -0.39457883143E+03  0.42158831985E+03  0.00000000000E+00 0. -1.
          2    1    1    2  501    0  0.79558161621E+02 -0.62132129763E+02 -0.29606435260E+03  0.31280026137E+03  0.00000000000E+00 0. -1.
<scales pt_clust_3="69.24392" pt_clust_4="37.43007" pt_clust_5="116.45636" pt_clust_6="14000.00000"></scales>
<clustering>
<clus scale="   37.430">  1  4  2 -1</clus>
<clus scale="   69.244">  1  3  2 -1</clus>
<clus scale="  116.456">  1  5  2 -1</clus>
<clus scale="   37.430">  1  3  2 -1</clus>
</clustering>
</event>
<event>
 6    0  0.1849053E+002  0.2292450E+03  0.7546771E-02  0.1127172E+00
         21   -1    0    0  504  502  0.00000000000E+00  0.00000000000E+00  0.26191751722E+03  0.26191751722E+03  0.00000000000E+00 0. -1.
          2   -1    0    0  502    0 -0.00000000000E+00 -0.00000000000E+00 -0.25089253033E+04  0.25089253033E+04  0.00000000000E+00 0.  1.
         21    1    1    2  503  505 -0.97323311422E+02  0.13138495263E+02  0.43427886585E+02  0.10737983208E+03  0.00000000000E+00 0. -1.
         21    1    1    2  504  503 -0.11688247379E+03  0.11180889430E+02  0.16214390716E+03  0.20019283603E+03  0.00000000000E+00 0. -1.
         21    1    1    2  505  501  0.18882558839E+03  0.68285678759E+01 -0.19917626992E+04  0.20007049713E+04  0.00000000000E+00 0.  1.
          2    1    1    2  501    0  0.25380196818E+02 -0.31147952569E+02 -0.46081688062E+03  0.46256518114E+03  0.00000000000E+00 0.  1.
<scales pt_clust_3="70.04273" pt_clust_4="228.78196" pt_clust_5="35.94981" pt_clust_6="35.94981"></scales>
<clustering>
<clus scale="   35.950">  5  6 -1 -1</clus>
<clus scale="   70.043">  3  4 -1 -1</clus>
<clus scale="  228.782">  1  3  2 -1</clus>
<clus scale="  228.782">  1  3  2 -1</clus>
</clustering>
</event>
<event>
 6    0  0.1849053E+002  0.1321951E+03  0.7546771E-02  0.1224234E+00
          2   -1    0    0  505    0 -0.00000000000E+00  0.00000000000E+00  0.67471909696E+03  0.67471909696E+03  0.00000000000E+00 0. -1.
         21   -1    0    0  503  502  0.00000000000E+00 -0.00000000000E+00 -0.15137823460E+04  0.15137823460E+04  0.00000000000E+00 0. -1.
         21    1    1    2  503  504  0.33004738940E+02  0.84611687615E+01 -0.90467172777E+03  0.90531311666E+03  0.00000000000E+00 0. -1.
         21    1    1    2  504  501  0.10084663751E+03 -0.78713478338E+01 -0.59119186475E+03  0.59978314695E+03  0.00000000000E+00 0. -1.
         21    1    1    2  505  502 -0.65358404742E+02 -0.21993714742E+02  0.96944761917E+02  0.11896945584E+03  0.00000000000E+00 0. -1.
          2    1    1    2  501    0 -0.68492971710E+02  0.21403893815E+02  0.55985558153E+03  0.56443572355E+03  0.00000000000E+00 0. -1.
<scales pt_clust_3="34.07204" pt_clust_4="14000.00000" pt_clust_5="68.34509" pt_clust_6="132.19513"></scales>
<clustering>
<clus scale="   34.072">  2  3  1 -1</clus>
<clus scale="   68.345">  1  5  2 -1</clus>
<clus scale="  132.195">  1  6  2 -1</clus>
<clus scale="   34.072">  2  3  1 -1</clus>
</clustering>
</event>
<event>
 6    0  0.1849053E+002  0.9828289E+02  0.7546771E-02  0.1283949E+00
         21   -1    0    0  505  502  0.00000000000E+00  0.00000000000E+00  0.10084827021E+04  0.10084827021E+04  0.00000000000E+00 0. -1.
          2   -1    0    0  504    0 -0.00000000000E+00 -0.00000000000E+00 -0.24575726360E+04  0.24575726360E+04  0.00000000000E+00 0. -1.
         21    1    1    2  503  502  0.47991921190E+02 -0.11822974130E+03  0.96575334973E+03  0.97414630767E+03  0.00000000000E+00 0. -1.
         21    1    1    2  504  503 -0.22910766269E+02 -0.42150893525E+02 -0.18932480183E+04  0.18938557653E+04  0.00000000000E+00 0. -1.
         21    1    1    2  505  501 -0.39958362056E+01  0.31205290214E+02  0.22344700099E+02  0.38587853877E+02  0.00000000000E+00 0.  1.
          2    1    1    2  501    0 -0.21085318716E+02  0.12917534461E+03 -0.54393996548E+03  0.55946541123E+03  0.00000000000E+00 0. -1.
<scales pt_clust_3="14000.00000" pt_clust_4="47.96708" pt_clust_5="31.46008" pt_clust_6="98.28289"></scales>
<clustering>
<clus scale="   31.460">  1  5  2 -1</clus>
<clus scale="   47.967">  2  4  1 -1</clus>
<clus scale="   98.283">  2  6  1 -1</clus>
<clus scale="   31.460">  1  3  2 -1</clus>
</clustering>
</event>
<event>
 6    0  0.1849053E+002  0.4864729E+03  0.7546771E-02  0.1017371E+00
         21   -1    0    0  504  502  0.00000000000E+00  0.00000000000E+00  0.44062903229E+03  0.44062903229E+03  0.00000000000E+00 0. -1.
          2   -1    0    0  505    0 -0.00000000000E+00 -0.00000000000E+00 -0.95431208785E+03  0.95431208785E+03  0.00000000000E+00 0.  1.
         21    1    1    2  503  502  0.30179896826E+03  0.27157459852E+03  0.22854134185E+03  0.46590398661E+03  0.00000000000E+00 0. -1.
         21    1    1    2  504  501 -0.26763853793E+03 -0.14433966644E+03 -0.52685715201E+03  0.60831142100E+03  0.00000000000E+00 0.  1.
         21    1    1    2  505  503  0.31969369232E+02  0.36476444477E+02 -0.93435944548E+01  0.49395084047E+02  0.00000000000E+00 0.  1.
          2    1    1    2  501    0 -0.66129799556E+02 -0.16371137656E+03 -0.20602365094E+03  0.27133062848E+03  0.00000000000E+00 0.  1.
<scales pt_clust_3="466.35339" pt_clust_4="132.77035" pt_clust_5="36.56062" pt_clust_6="132.77035"></scales>
<clustering>
<clus scale="   36.561">  3  5 -1 -1</clus>
<clus scale="  132.770">  4  6 -1 -1</clus>
<clus scale="  466.353">  1  3  2 -1</clus>
<clus scale="  466.353">  1  3  2 -1</clus>
</clustering>
</event>
<event>
 6    0  0.1849053E+002  0.9159346E+02  0.7546771E-02  0.1299038E+00
          2   -1    0    0  505    0 -0.00000000000E+00  0.00000000000E+00  0.13911172034E+04  0.13911172034E+04  0.00000000000E+00 0.  1.
         21   -1    0    0  504  502  0.00000000000E+00 -0.00000000000E+00 -0.56295229786E+03  0.56295229786E+03  0.00000000000E+00 0. -1.
         21    1    1    2  503  501 -0.54041063288E+02 -0.65912734614E+02 -0.28112289649E+03  0.29376011989E+03  0.00000000000E+00 0. -1.
         21    1    1    2  504  503  0.27380367908E+02  0.34204224152E+02 -0.23906931391E+03  0.24305092131E+03  0.00000000000E+00 0. -1.
         21    1    1    2  505  502 -0.43342504413E+02 -0.30277723797E+02 -0.11569039442E+02  0.54121676995E+02  0.00000000000E+00 0. -1.
          2    1    1    2  501    0  0.70003199793E+02  0.61986234260E+02  0.13599261554E+04  0.13631367831E+04  0.00000000000E+00 0.  1.
<scales pt_clust_3="46.11524" pt_clust_4="43.81339" pt_clust_5="14000.00000" pt_clust_6="91.59346"></scales>
<clustering>
<clus scale="   43.813">  2  4  1 -1</clus>
<clus scale="   46.115">  2  3  1 -1</clus>
<clus scale="   91.593">  1  6  2 -1</clus>
<clus scale="   43.813">  2  3  1 -1</clus>
</clustering>
</event>
<event>
 6    0  0.1849053E+002  0.8137337E+02  0.7546771E-02  0.1325199E+00
          1   -1    0    0  505    0 -0.00000000000E+00  0.00000000000E+00  0.14566946549E+04  0.14566946549E+04  0.00000000000E+00 0. -1.
         21   -1    0    0  504  502  0.00000000000E+00 -0.00000000000E+00 -0.33443201793E+03  0.33443201793E+03  0.00000000000E+00 0.  1.
         21    1    1    2  503  501 -0.17971784056E+02 -0.76893230817E+02  0.54216875163E+02  0.95786343077E+02  0.00000000000E+00 0. -1.
         21    1    1    2  504  503 -0.77456535233E+02  0.32539380569E+02 -0.28786285010E+03  0.29987221712E+03  0.00000000000E+00 0.  1.
         21    1    1    2  505  502  0.29301105127E+02  0.53346423146E+02  0.29954415392E+02  0.67835555763E+02  0.00000000000E+00 0. -1.
          1    1    1    2  501    0  0.66127214162E+02 -0.89925728977E+01  0.13259541966E+04  0.13276325569E+04  0.00000000000E+00 0. -1.
<scales pt_clust_3="81.37337" pt_clust_4="14000.00000" pt_clust_5="60.86375" pt_clust_6="66.79414"></scales>
<clustering>
<clus scale="   60.864">  2  5  1 -1</clus>
<clus scale="   66.794">  1  6  2 -1</clus>
<clus scale="   81.373">  1  3  2 -1</clus>
<clus scale="   60.864">  2  3  1 -1</clus>
</clustering>
</event>
<event>
 6    0  0.1849053E+002  0.1396030E+03  0.7546771E-02  0.1213864E+00
          2   -1    0    0  503    0 -0.00000000000E+00  0.00000000000E+00  0.15854401490E+04  0.15854401490E+04  0.00000000000E+00 0. -1.
         21   -1    0    0  505  502  0.00000000000E+00 -0.00000000000E+00 -0.26960741823E+03  0.26960741823E+03  0.00000000000E+00 0. -1.
         21    1    1    2  503  504  0.34177274476E+01  0.10083276850E+03 -0.40895116341E+02  0.10886385353E+03  0.00000000000E+00 0. -1.
         21    1    1    2  504  502 -0.77266349012E+02  0.77896849616E+01 -0.18361138113E+03  0.19935873987E+03  0.00000000000E+00 0. -1.
         21    1    1    2  505  501  0.43634819329E+02 -0.46939570025E+02  0.10139699165E+04  0.10159932638E+04  0.00000000000E+00 0. -1.
          2    1    1    2  501    0  0.30213802235E+02 -0.61682883437E+02  0.52636931178E+03  0.53083171000E+03  0.00000000000E+00 0. -1.
<scales pt_clust_3="129.30153" pt_clust_4="77.65802" pt_clust_5="50.84009" pt_clust_6="50.84009"></scales>
<clustering>
<clus scale="   50.840">  5  6 -1 -1</clus>
<clus scale="   77.658">  2  4  1 -1</clus>
<clus scale="  129.302">  2  3  1 -1</clus>
<clus scale="   77.658">  2  3  1 -1</clus>
</clustering>
</event>
<event>
 6    0  0.1849053E+002  0.2022637E+03  0.7546771E-02  0.1147843E+00
         21   -1    0    0  505  502  0.00000000000E+00  0.00000000000E+00  0.13931639087E+03  0.13931639087E+03  0.00000000000E+00 0. -1.
          2   -1    0    0  504    0 -0.00000000000E+00 -0.00000000000E+00 -0.10569796054E+04  0.10569796054E+04  0.00000000000E+00 0. -1.
         21    1    1    2  503  502  0.11106505760E+03 -0.14035549492E+03 -0.42732861633E+02  0.18401415553E+03  0.00000000000E+00 0. -1.
         21    1    1    2  504  503  0.48597189427E+02  0.47870645604E+02 -0.11616684987E+03  0.13471459661E+03  0.00000000000E+00 0. -1.
         21    1    1    2  505  501 -0.31887674216E+02 -0.60072801015E+02  0.22282819409E+02  0.71568772726E+02  0.00000000000E+00 0. -1.
          2    1    1    2  501    0 -0.12777457281E+03  0.15255765033E+03 -0.78104632247E+03  0.80599847144E+03  0.00000000000E+00 0. -1.
<scales pt_clust_3="14000.00000" pt_clust_4="61.73719" pt_clust_5="68.01151" pt_clust_6="202.26373"></scales>
<clustering>
<clus scale="   68.012">  1  5  2 -1</clus>
<clus scale="   61.737">  2  4  1 -1</clus>
<clus scale="  202.264">  2  6  1 -1</clus>
<clus scale="   68.012">  1  3  2 -1</clus>
</clustering>
</event>
<event>
 6    0  0.1849053E+002  0.1142251E+03  0.7546771E-02  0.1252940E+00
         21   -1    0    0  501  502  0.00000000000E+00  0.00000000000E+00  0.61902311704E+02  0.61902311704E+02  0.00000000000E+00 0. -1.
         -4   -1    0    0    0  501 -0.00000000000E+00 -0.00000000000E+00 -0.93545583065E+03  0.93545583065E+03  0.00000000000E+00 0. -1.
         21    1    1    2  503  502 -0.22195264899E+02  0.43958259228E+02  0.46905764741E+00  0.49246099880E+02  0.00000000000E+00 0. -1.
         21    1    1    2  504  505  0.99029795333E+02 -0.43321727546E+02 -0.47562857490E+03  0.48775630565E+03  0.00000000000E+00 0. -1.
         21    1    1    2  505  503 -0.58497819582E+02  0.29478148687E+02 -0.53390777258E+01  0.65722613284E+02  0.00000000000E+00 0. -1.
         -4    1    1    2    0  504 -0.18336710852E+02 -0.30114680369E+02 -0.39305492397E+03  0.39463312354E+03  0.00000000000E+00 0. -1.
<scales pt_clust_3="31.13867" pt_clust_4="108.43228" pt_clust_5="31.13867" pt_clust_6="35.25803"></scales>
<clustering>
<clus scale="   31.139">  3  5 -1 -1</clus>
<clus scale="   35.258">  2  6  1 -1</clus>
<clus scale="  108.432">  2  4  1 -1</clus>
<clus scale="  114.225">  1  3  2 -1</clus>
</clustering>
</event>
<event>
 6    0  0.1849053E+002  0.1459622E+03  0.7546771E-02  0.1205524E+00
         21   -1    0    0  505  502  0.00000000000E+00  0.00000000000E+00  0.16399050899E+03  0.16399050899E+03  0.00000000000E+00 0. -1.
          2   -1    0    0  503    0 -0.00000000000E+00 -0.00000000000E+00 -0.29816031826E+04  0.29816031826E+04  0.00000000000E+00 0.  1.
         21    1    1    2  503  504  0.10151886505E+03  0.91862128039E+01  0.12545536694E+03  0.16164626677E+03  0.00000000000E+00 0. -1.
         21    1    1    2  504  502  0.31664459684E+02  0.10012456529E+02  0.39943757611E+01  0.33449100594E+02  0.00000000000E+00 0.  1.
         21    1    1    2  505  501 -0.75954443384E+02  0.59850276546E+01 -0.12816433281E+04  0.12839059617E+04  0.00000000000E+00 0.  1.
          2    1    1    2  501    0 -0.57228881352E+02 -0.25183696987E+02 -0.16654190882E+04  0.16665923625E+04  0.00000000000E+00 0.  1.
<scales pt_clust_3="32.28142" pt_clust_4="32.28142" pt_clust_5="42.07381" pt_clust_6="142.34984"></scales>
<clustering>
<clus scale="   32.281">  3  4 -1 -1</clus>
<clus scale="   42.074">  5  6 -1 -1</clus>
<clus scale="  142.350">  2  5  1 -1</clus>
<clus scale="  145.962">  1  3  2 -1</clus>
</clustering>
</event>
<event>
 6    0  0.1849053E+002  0.1380213E+03  0.7546771E-02  0.1216017E+00
          2   -1    0    0  505    0 -0.00000000000E+00  0.00000000000E+00  0.26633665098E+04  0.26633665098E+04  0.00000000000E+00 0.  1.
         21   -1    0    0  504  502  0.00000000000E+00 -0.00000000000E+00 -0.10406157015E+03  0.10406157015E+03  0.00000000000E+00 0.  1.
         21    1    1    2  503  502 -0.10281288078E+03 -0.12165615189E+03 -0.11981623562E+02  0.15973185984E+03  0.00000000000E+00 0.  1.
         21    1    1    2  504  501  0.55976597506E+02  0.78540749712E+02  0.12932931421E+03  0.16133226692E+03  0.00000000000E+00 0.  1.
         21    1    1    2  505  503  0.43505686415E+02 -0.18487494147E+02  0.31640934206E+03  0.31992093388E+03  0.00000000000E+00 0. -1.
          2    1    1    2  501    0  0.33305968551E+01  0.61602896323E+02  0.21255479070E+04  0.21264430194E+04  0.00000000000E+00 0.  1.
<scales pt_clust_3="14000.00000" pt_clust_4="138.02129" pt_clust_5="47.27084" pt_clust_6="61.96926"></scales>
<clustering>
<clus scale="   47.271">  1  5  2 -1</clus>
<clus scale="   61.969">  1  6  2 -1</clus>
<clus scale="  138.021">  1  4  2 -1</clus>
<clus scale="  138.021">  2  3  1 -1</clus>
</clustering>
</event>
<event>
 6    0  0.1849053E+002  0.6814683E+02  0.7546771E-02  0.1366511E+00
         21   -1    0    0  504  502  0.00000000000E+00  0.00000000000E+00  0.88748177199E+02  0.88748177199E+02  0.00000000000E+00 0. -1.
          4   -1    0    0  503    0 -0.00000000000E+00 -0.00000000000E+00 -0.26215917519E+03  0.26215917519E+03  0.00000000000E+00 0. -1.
         21    1    1    2  503  505  0.36468114677E+02 -0.31332154738E+02 -0.59817842557E+02  0.76745042816E+02  0.00000000000E+00 0. -1.
         21    1    1    2  504  501  0.59944532339E+02  0.29463890285E+01 -0.22030906241E+02  0.63932691133E+02  0.00000000000E+00 0. -1.
         21    1    1    2  505  502 -0.34711436115E+02 -0.56881806732E+02  0.57530015751E+01  0.66884383539E+02  0.00000000000E+00 0. -1.
          4    1    1    2  501    0 -0.61701210902E+02  0.85267572442E+02 -0.97315250767E+02  0.14334523490E+03  0.00000000000E+00 0. -1.
<scales pt_clust_3="48.07939" pt_clust_4="68.14683" pt_clust_5="66.97136" pt_clust_6="14000.00000"></scales>
<clustering>
<clus scale="   48.079">  2  3  1 -1</clus>
<clus scale="   68.147">  1  4  2 -1</clus>
<clus scale="   66.971">  1  5  2 -1</clus>
<clus scale="   68.147">  1  3  2 -1</clus>
</clustering>
</event>
<event>
 6    0  0.1849053E+002  0.1086688E+03  0.7546771E-02  0.1263055E+00
         21   -1    0    0  503  502  0.00000000000E+00  0.00000000000E+00  0.98264728560E+03  0.98264728560E+03  0.00000000000E+00 0. -1.
          4   -1    0    0  505    0 -0.00000000000E+00 -0.00000000000E+00 -0.41282937657E+03  0.41282937657E+03  0.00000000000E+00 0. -1.
         21    1    1    2  503  501 -0.26147453455E+02 -0.40808426458E+02  0.11782358813E+03  0.12740257027E+03  0.00000000000E+00 0.  1.
         21    1    1    2  504  502  0.67303754662E+02 -0.60822406383E+02  0.84464286299E+03  0.84950028046E+03  0.00000000000E+00 0. -1.
         21    1    1    2  505  504  0.88857655541E+01  0.29965871392E+02 -0.23196606465E+02  0.38922908797E+02  0.00000000000E+00 0. -1.
          4    1    1    2  501    0 -0.50042066761E+02  0.71664961450E+02 -0.36945193562E+03  0.37965090264E+03  0.00000000000E+00 0. -1.
<scales pt_clust_3="48.09011" pt_clust_4="108.66879" pt_clust_5="31.25556" pt_clust_6="14000.00000"></scales>
<clustering>
<clus scale="   31.256">  2  5  1 -1</clus>
<clus scale="   48.090">  1  3  2 -1</clus>
<clus scale="  108.669">  1  4  2 -1</clus>
<clus scale="   48.090">  1  3  2 -1</clus>
</clustering>
</event>
<event>
 6    0  0.1849053E+002  0.1024522E+03  0.7546771E-02  0.1275222E+00
         21   -1    0    0  503  502  0.00000000000E+00  0.00000000000E+00  0.17764211417E+03  0.17764211417E+03  0.00000000000E+00 0.  1.
          2   -1    0    0  504    0 -0.00000000000E+00 -0.00000000000E+00 -0.42525130265E+03  0.42525130265E+03  0.00000000000E+00 0.  1.
         21    1    1    2  503  505 -0.35908508498E+02  0.65851701096E+00  0.95442059059E+02  0.10197568958E+03  0.00000000000E+00 0.  1.
         21    1    1    2  504  502 -0.55241452077E+01  0.32111728607E+02  0.36802443951E+02  0.49153831744E+02  0.00000000000E+00 0.  1.
         21    1    1    2  505  501  0.33871994490E+02 -0.12721796759E+03 -0.13205264127E+03  0.18646614534E+03  0.00000000000E+00 0.  1.
          2    1    1    2  501    0  0.75606592160E+01  0.94447721976E+02 -0.24780105022E+03  0.26529775017E+03  0.00000000000E+00 0.  1.
<scales pt_clust_3="46.71282" pt_clust_4="32.58342" pt_clust_5="14000.00000" pt_clust_6="102.45216"></scales>
<clustering>
<clus scale="   32.583">  1  4  2 -1</clus>
<clus scale="   46.713">  1  3  2 -1</clus>
<clus scale="  102.452">  2  6  1 -1</clus>
<clus scale="   32.583">  1  3  2 -1</clus>
</clustering>
</event>
<event>
 6    0  0.1849053E+002  0.1448338E+03  0.7546771E-02  0.1206969E+00
          2   -1    0    0  503    0 -0.00000000000E+00  0.00000000000E+00  0.12434248828E+04  0.12434248828E+04  0.00000000000E+00 0.  1.
         21   -1    0    0  504  502  0.00000000000E+00 -0.00000000000E+00 -0.28390498453E+03  0.28390498453E+03  0.00000000000E+00 0.  1.
         21    1    1    2  503  505 -0.27662547902E+02  0.29526357465E+02  0.52146362883E+02  0.66002011359E+02  0.00000000000E+00 0.  1.
         21    1    1    2  504  501  0.94345260827E+02 -0.24601311146E+02 -0.15204702061E+03  0.18062267086E+03  0.00000000000E+00 0.  1.
         21    1    1    2  505  502  0.17249418326E+02 -0.75526034917E+02 -0.94153684528E+02  0.12192883454E+03  0.00000000000E+00 0.  1.
          2    1    1    2  501    0 -0.83932131250E+02  0.70600988598E+02  0.11535742405E+04  0.11587763505E+04  0.00000000000E+00 0.  1.
<scales pt_clust_3="40.46013" pt_clust_4="14000.00000" pt_clust_5="77.06141" pt_clust_6="144.83378"></scales>
<clustering>
<clus scale="   40.460">  1  3  2 -1</clus>
<clus scale="   77.061">  2  5  1 -1</clus>
<clus scale="  144.834">  1  6  2 -1</clus>
<clus scale="   77.061">  2  3  1 -1</clus>
</clustering>
</event>
<event>
 6    0  0.1849053E+002  0.1136856E+03  0.7546771E-02  0.1253893E+00
          1   -1    0    0  503    0 -0.00000000000E+00  0.00000000000E+00  0.15860119682E+04  0.15860119682E+04  0.00000000000E+00 0.  1.
         21   -1    0    0  501  502  0.00000000000E+00 -0.00000000000E+00 -0.73260815867E+02  0.73260815867E+02  0.00000000000E+00 0.  1.
         21    1    1    2  503  504  0.72332756280E+02 -0.39654757989E+02  0.38618573335E+03  0.39489738934E+03  0.00000000000E+00 0. -1.
         21    1    1    2  504  505  0.64610834205E+02  0.17490004936E+02  0.29623523855E+01  0.67001758940E+02  0.00000000000E+00 0.  1.
         21    1    1    2  505  502  0.21725735325E+02  0.36901247942E+02 -0.16719947538E+02  0.45970276492E+02  0.00000000000E+00 0.  1.
          1    1    1    2  501    0 -0.15866932581E+03 -0.14736494889E+02  0.11403230141E+04  0.11514033593E+04  0.00000000000E+00 0.  1.
<scales pt_clust_3="82.48956" pt_clust_4="37.18169" pt_clust_5="37.18169" pt_clust_6="103.74684"></scales>
<clustering>
<clus scale="   37.182">  4  5 -1 -1</clus>
<clus scale="   82.490">  1  3  2 -1</clus>
<clus scale="  103.747">  1  6  2 -1</clus>
<clus scale="  113.686">  2  3  1 -1</clus>
</clustering>
</event>
<event>
 6    0  0.1849053E+002  0.1112690E+03  0.7546771E-02  0.1258238E+00
          2   -1    0    0  505    0 -0.00000000000E+00  0.00000000000E+00  0.37453392025E+03  0.37453392025E+03  0.00000000000E+00 0. -1.
         21   -1    0    0  504  502  0.00000000000E+00 -0.00000000000E+00 -0.73660443056E+02  0.73660443056E+02  0.00000000000E+00 0. -1.
         21    1    1    2  503  501  0.20141808128E+02  0.55632660732E+02  0.78732582495E+02  0.98486064603E+02  0.00000000000E+00 0. -1.
         21    1    1    2  504  503 -0.66034742344E+02  0.78642966813E+02  0.50362637574E+02  0.11437525383E+03  0.00000000000E+00 0. -1.
         21    1    1    2  505  502  0.66633112264E+02 -0.11136912031E+03  0.14292037815E+03  0.19305255010E+03  0.00000000000E+00 0. -1.
          2    1    1    2  501    0 -0.20740178049E+02 -0.22906507234E+02  0.28857878968E+02  0.42280494767E+02  0.00000000000E+00 0. -1.
<scales pt_clust_3="51.78099" pt_clust_4="14000.00000" pt_clust_5="111.26904" pt_clust_6="30.90086"></scales>
<clustering>
<clus scale="   30.901">  1  6  2 -1</clus>
<clus scale="   51.781">  1  3  2 -1</clus>
<clus scale="  111.269">  1  5  2 -1</clus>
<clus scale="  111.269">  2  3  1 -1</clus>
</clustering>
</event>
<event>
 6    0  0.1849053E+002  0.1116793E+03  0.7546771E-02  0.1257491E+00
          2   -1    0    0  505    0 -0.00000000000E+00  0.00000000000E+00  0.67848435673E+03  0.67848435673E+03  0.00000000000E+00 0. -1.
         21   -1    0    0  501  502  0.00000000000E+00 -0.00000000000E+00 -0.45310157018E+03  0.45310157018E+03  0.00000000000E+00 0. -1.
         21    1    1    2  503  502  0.39295569009E+02 -0.17286368458E+02 -0.16550672685E+03  0.17098373289E+03  0.00000000000E+00 0. -1.
         21    1    1    2  504  503  0.55676338818E+02  0.40776818806E+02 -0.27304699144E+03  0.28163320684E+03  0.00000000000E+00 0. -1.
         21    1    1    2  505  504 -0.63459347217E+02 -0.63779263882E+02  0.45997991306E+03  0.46869649420E+03  0.00000000000E+00 0. -1.
          2    1    1    2  501    0 -0.31512560610E+02  0.40288813534E+02  0.20395659179E+03  0.21027249299E+03  0.00000000000E+00 0. -1.
<scales pt_clust_3="42.91969" pt_clust_4="42.91969" pt_clust_5="97.52432" pt_clust_6="51.14910"></scales>
<clustering>
<clus scale="   42.920">  3  4 -1 -1</clus>
<clus scale="   51.149">  1  6  2 -1</clus>
<clus scale="   97.524">  1  5  2 -1</clus>
<clus scale="  111.679">  2  3  1 -1</clus>
</clustering>
</event>
<event>
 6    0  0.1849053E+002  0.1574692E+03  0.7546771E-02  0.1191584E+00
         21   -1    0    0  501  502  0.00000000000E+00  0.00000000000E+00  0.89108897867E+02  0.89108897867E+02  0.00000000000E+00 0.  1.
          1   -1    0    0  505    0 -0.00000000000E+00 -0.00000000000E+00 -0.15495620428E+04  0.15495620428E+04  0.00000000000E+00 0.  1.
         21    1    1    2  503  502  0.14565787511E+02  0.27923060825E+02  0.31458804848E+02  0.44514221257E+02  0.00000000000E+00 0.  1.
         21    1    1    2  504  503  0.11074766630E+03  0.82328007858E+02 -0.66759431064E+02  0.15329634081E+03  0.00000000000E+00 0. -1.
         21    1    1    2  505  504 -0.61444362893E+01 -0.31274245497E+02 -0.75290333448E+03  0.75357764272E+03  0.00000000000E+00 0.  1.
          1    1    1    2  501    0 -0.11916901752E+03 -0.78976823186E+02 -0.67224918426E+03  0.68728273591E+03  0.00000000000E+00 0.  1.
<scales pt_clust_3="31.49380" pt_clust_4="14000.00000" pt_clust_5="31.67296" pt_clust_6="157.46917"></scales>
<clustering>
<clus scale="   31.494">  1  3  2 -1</clus>
<clus scale="   31.673">  2  5  1 -1</clus>
<clus scale="  157.469">  2  6  1 -1</clus>
<clus scale="   31.494">  1  3  2 -1</clus>
</clustering>
</event>
<event>
 6    0  0.1849053E+002  0.8311488E+02  0.7546771E-02  0.1320437E+00
          1   -1    0    0  504    0 -0.00000000000E+00  0.00000000000E+00  0.37337401766E+03  0.37337401766E+03  0.00000000000E+00 0.  1.
         21   -1    0    0  503  502  0.00000000000E+00 -0.00000000000E+00 -0.75818071990E+03  0.75818071990E+03  0.00000000000E+00 0.  1.
         21    1    1    2  503  501 -0.44543152289E+02 -0.72490488892E+02 -0.60472348415E+03  0.61067950324E+03  0.00000000000E+00 0.  1.
         21    1    1    2  504  505  0.98605884922E+02 -0.14177565289E+02  0.23952722697E+03  0.25941745577E+03  0.00000000000E+00 0.  1.
         21    1    1    2  505  502 -0.81637575319E+00  0.37330701465E+02 -0.12669809206E+03  0.13208578376E+03  0.00000000000E+00 0. -1.
          1    1    1    2  501    0 -0.53246356880E+02  0.49337352717E+02  0.10708764700E+03  0.12937199479E+03  0.00000000000E+00 0.  1.
<scales pt_clust_3="58.14480" pt_clust_4="83.11488" pt_clust_5="37.33963" pt_clust_6="14000.00000"></scales>
<clustering>
<clus scale="   37.340">  2  5  1 -1</clus>
<clus scale="   58.145">  2  3  1 -1</clus>
<clus scale="   83.115">  1  4  2 -1</clus>
<clus scale="   37.340">  2  3  1 -1</clus>
</clustering>
</event>
<event>
 6    0  0.1849053E+002  0.2060877E+03  0.7546771E-02  0.1144702E+00
         21   -1    0    0  503  502  0.00000000000E+00  0.00000000000E+00  0.24097228244E+04  0.24097228244E+04  0.00000000000E+00 0.  1.
          1   -1    0    0  505    0 -0.00000000000E+00 -0.00000000000E+00 -0.36710837495E+02  0.36710837495E+02  0.00000000000E+00 0. -1.
         21    1    1    2  503  501 -0.29332673738E+02 -0.58017908541E+02  0.47225469305E+03  0.47670848384E+03  0.00000000000E+00 0. -1.
         21    1    1    2  504  502 -0.12629985414E+02  0.29185887616E+02  0.57262097094E+03  0.57350336436E+03  0.00000000000E+00 0.  1.
         21    1    1    2  505  504  0.11478548996E+03  0.20451688688E+03  0.84679250160E+03  0.87866967996E+03  0.00000000000E+00 0.  1.
          1    1    1    2  501    0 -0.72822830805E+02 -0.17568486595E+03  0.48134382133E+03  0.51755213375E+03  0.00000000000E+00 0. -1.
<scales pt_clust_3="60.08743" pt_clust_4="31.80146" pt_clust_5="206.08770" pt_clust_6="14000.00000"></scales>
<clustering>
<clus scale="   31.801">  1  4  2 -1</clus>
<clus scale="   60.087">  1  3  2 -1</clus>
<clus scale="  206.088">  1  5  2 -1</clus>
<clus scale="   31.801">  1  3  2 -1</clus>
</clustering>
</event>
<event>
 6    0  0.1849053E+002  0.8189175E+02  0.7546771E-02  0.1323767E+00
          2   -1    0    0  504    0 -0.00000000000E+00  0.00000000000E+00  0.12771144934E+04  0.12771144934E+04  0.00000000000E+00 0.  1.
         21   -1    0    0  503  502  0.00000000000E+00 -0.00000000000E+00 -0.31373396239E+02  0.31373396239E+02  0.00000000000E+00 0.  1.
         21    1    1    2  503  505  0.41815159387E+02 -0.20798324103E+02  0.16322235799E+02  0.49472145916E+02  0.00000000000E+00 0.  1.
         21    1    1    2  504  502  0.61831367383E+02  0.13886768740E+02  0.31484941301E+03  0.32116368601E+03  0.00000000000E+00 0. -1.
         21    1    1    2  505  501  0.53553808644E+01 -0.56410159830E+02  0.11279269965E+03  0.12622590594E+03  0.00000000000E+00 0.  1.
          2    1    1    2  501    0 -0.10900190763E+03  0.63321715193E+02  0.80177674873E+03  0.81162615180E+03  0.00000000000E+00 0.  1.
<scales pt_clust_3="46.70201" pt_clust_4="14000.00000" pt_clust_5="70.20231" pt_clust_6="81.89175"></scales>
<clustering>
<clus scale="   46.702">  2  3  1 -1</clus>
<clus scale="   70.202">  2  5  1 -1</clus>
<clus scale="   81.892">  2  6  1 -1</clus>
<clus scale="   46.702">  2  3  1 -1</clus>
</clustering>
</event>
<event>
 6    0  0.1849053E+002  0.2100133E+03  0.7546771E-02  0.1141555E+00
          1   -1    0    0  504    0 -0.00000000000E+00  0.00000000000E+00  0.68310865891E+03  0.68310865891E+03  0.00000000000E+00 0.  1.
         21   -1    0    0  505  502  0.00000000000E+00 -0.00000000000E+00 -0.11723448169E+03  0.11723448169E+03  0.00000000000E+00 0.  1.
         21    1    1    2  503  501 -0.27408549536E+02  0.11714663841E+03  0.50667751604E+02  0.13054418612E+03  0.00000000000E+00 0.  1.
         21    1    1    2  504  502  0.82482740621E+02  0.17027391321E+02  0.13572237621E+03  0.15973070450E+03  0.00000000000E+00 0.  1.
         21    1    1    2  505  503 -0.76582149096E+02  0.52052276028E+02  0.67450547811E+01  0.92842666721E+02  0.00000000000E+00 0.  1.
          1    1    1    2  501    0  0.21507958011E+02 -0.18622630575E+03  0.37273899462E+03  0.41722558326E+03  0.00000000000E+00 0.  1.
<scales pt_clust_3="74.25042" pt_clust_4="84.22194" pt_clust_5="74.25042" pt_clust_6="192.20424"></scales>
<clustering>
<clus scale="   74.250">  3  5 -1 -1</clus>
<clus scale="   84.222">  1  4  2 -1</clus>
<clus scale="  192.204">  1  6  2 -1</clus>
<clus scale="  210.013">  2  3  1 -1</clus>
</clustering>
</event>
<event>
 6    0  0.1849053E+002  0.8641473E+02  0.7546771E-02  0.1311774E+00
          2   -1    0    0  504    0 -0.00000000000E+00  0.00000000000E+00  0.34199152653E+04  0.34199152653E+04  0.00000000000E+00 0.  1.
         21   -1    0    0  505  502  0.00000000000E+00 -0.00000000000E+00 -0.22740049246E+02  0.22740049246E+02  0.00000000000E+00 0. -1.
         21    1    1    2  503  501  0.14733370630E+01 -0.59949382099E+02  0.21711985200E+03  0.22524903833E+03  0.00000000000E+00 0. -1.
         21    1    1    2  504  502 -0.21431295855E+02 -0.23805269650E+02  0.59694034318E+03  0.59779910055E+03  0.00000000000E+00 0.  1.
         21    1    1    2  505  503 -0.30087369348E+02  0.10190757213E+03  0.13923748585E+03  0.17514988015E+03  0.00000000000E+00 0. -1.
          2    1    1    2  501    0  0.50045328141E+02 -0.18152920380E+02  0.24438775350E+04  0.24444572955E+04  0.00000000000E+00 0.  1.
<scales pt_clust_3="86.41473" pt_clust_4="32.03110" pt_clust_5="14000.00000" pt_clust_6="49.94306"></scales>
<clustering>
<clus scale="   32.031">  1  4  2 -1</clus>
<clus scale="   49.943">  1  6  2 -1</clus>
<clus scale="   86.415">  1  3  2 -1</clus>
<clus scale="   86.415">  2  3  1 -1</clus>
</clustering>
</event>
<event>
 6    0  0.1849053E+002  0.1339687E+03  0.7546771E-02  0.1221683E+00
         21   -1    0    0  504  502  0.00000000000E+00  0.00000000000E+00  0.16590557438E+04  0.16590557438E+04  0.00000000000E+00 0.  1.
         -4   -1    0    0    0  501 -0.00000000000E+00 -0.00000000000E+00 -0.40245259799E+02  0.40245259799E+02  0.00000000000E+00 0. -1.
         21    1    1    2  503  502  0.80899829084E+02 -0.61900354496E+02  0.14138502302E+04  0.14175150474E+04  0.00000000000E+00 0.  1.
         21    1    1    2  504  501  0.30997250446E+02 -0.39808118872E+01  0.11344430911E+03  0.11767024972E+03  0.00000000000E+00 0.  1.
         21    1    1    2  505  503 -0.34917830065E+02  0.38103264702E+02  0.51713083351E+02  0.73111945857E+02  0.00000000000E+00 0.  1.
         -4    1    1    2    0  505 -0.76979249465E+02  0.27777901681E+02  0.39802861309E+02  0.91003760572E+02  0.00000000000E+00 0. -1.
<scales pt_clust_3="127.47588" pt_clust_4="31.25182" pt_clust_5="32.69580" pt_clust_6="32.69580"></scales>
<clustering>
<clus scale="   31.252">  1  4  2 -1</clus>
<clus scale="   32.696">  5  6 -1 -1</clus>
<clus scale="  127.476">  1  3  2 -1</clus>
<clus scale="   31.252">  1  3  2 -1</clus>
</clustering>
</event>
<event>
 6    0  0.1849053E+002  0.1183637E+03  0.7546771E-02  0.1245821E+00
         21   -1    0    0  503  502  0.00000000000E+00  0.00000000000E+00  0.57788450339E+02  0.57788450339E+02  0.00000000000E+00 0.  1.
          2   -1    0    0  504    0 -0.00000000000E+00 -0.00000000000E+00 -0.14142753825E+04  0.14142753825E+04  0.00000000000E+00 0.  1.
         21    1    1    2  503  501 -0.32042900295E+02 -0.17230088637E+02  0.20955027519E+02  0.41984956735E+02  0.00000000000E+00 0.  1.
         21    1    1    2  504  505  0.99166691909E+01 -0.85453505946E+02 -0.27325492184E+03  0.28647669070E+03  0.00000000000E+00 0.  1.
         21    1    1    2  505  502  0.61179080862E+01 -0.38253326590E+02 -0.96643089862E+01  0.39926741199E+02  0.00000000000E+00 0.  1.
          2    1    1    2  501    0  0.16008323017E+02  0.14093692117E+03 -0.10945227289E+04  0.11036754442E+04  0.00000000000E+00 0.  1.
<scales pt_clust_3="36.38164" pt_clust_4="14000.00000" pt_clust_5="49.70640" pt_clust_6="118.36375"></scales>
<clustering>
<clus scale="   36.382">  1  3  2 -1</clus>
<clus scale="   49.706">  1  5  2 -1</clus>
<clus scale="  118.364">  2  6  1 -1</clus>
<clus scale="   36.382">  1  3  2 -1</clus>
</clustering>
</event>
<event>
 6    0  0.1849053E+002  0.1406620E+03  0.7546771E-02  0.1212441E+00
         21   -1    0    0  501  502  0.00000000000E+00  0.00000000000E+00  0.36584413615E+02  0.36584413615E+02  0.00000000000E+00 0.  1.
          1   -1    0    0  505    0 -0.00000000000E+00 -0.00000000000E+00 -0.26482285348E+04  0.26482285348E+04  0.00000000000E+00 0. -1.
         21    1    1    2  503  502 -0.49212854961E+02  0.39521767693E+02 -0.57400955277E+02  0.85315560607E+02  0.00000000000E+00 0.  1.
         21    1    1    2  504  503 -0.32038627846E+02  0.78523257926E+02 -0.80949068371E+02  0.11723961523E+03  0.00000000000E+00 0.  1.
         21    1    1    2  505  504 -0.22324982848E+02 -0.75182421285E+02 -0.15819434206E+04  0.15838862924E+04  0.00000000000E+00 0. -1.
          1    1    1    2  501    0  0.10357646565E+03 -0.42862604334E+02 -0.89135067700E+03  0.89837148022E+03  0.00000000000E+00 0. -1.
<scales pt_clust_3="31.71440" pt_clust_4="31.71440" pt_clust_5="78.42704" pt_clust_6="135.77317"></scales>
<clustering>
<clus scale="   31.714">  3  4 -1 -1</clus>
<clus scale="   78.427">  2  5  1 -1</clus>
<clus scale="  135.773">  2  6  1 -1</clus>
<clus scale="  140.662">  1  3  2 -1</clus>
</clustering>
</event>
<event>
 6    0  0.1849053E+002  0.8750224E+02  0.7546771E-02  0.1309016E+00
         21   -1    0    0  503  502  0.00000000000E+00  0.00000000000E+00  0.18242538102E+03  0.18242538102E+03  0.00000000000E+00 0. -1.
          2   -1    0    0  504    0 -0.00000000000E+00 -0.00000000000E+00 -0.41454226338E+03  0.41454226338E+03  0.00000000000E+00 0. -1.
         21    1    1    2  503  505 -0.16969046444E+01 -0.36404523846E+02 -0.21210019138E+00  0.36444668037E+02  0.00000000000E+00 0. -1.
         21    1    1    2  504  502  0.50738660242E+02 -0.51049860506E+02  0.13061961833E+03  0.14913746878E+03  0.00000000000E+00 0. -1.
         21    1    1    2  505  501 -0.80495581204E+02  0.25882387640E+02 -0.67002311253E+02  0.10788302135E+03  0.00000000000E+00 0. -1.
          2    1    1    2  501    0  0.31453825607E+02  0.61571996712E+02 -0.29552208923E+03  0.30350248623E+03  0.00000000000E+00 0. -1.
<scales pt_clust_3="36.44405" pt_clust_4="87.50224" pt_clust_5="14000.00000" pt_clust_6="68.33576"></scales>
<clustering>
<clus scale="   36.444">  1  3  2 -1</clus>
<clus scale="   68.336">  2  6  1 -1</clus>
<clus scale="   87.502">  1  4  2 -1</clus>
<clus scale="   36.444">  1  3  2 -1</clus>
</clustering>
</event>
<event>
 6    0  0.1849053E+002  0.1529504E+03  0.7546771E-02  0.1196894E+00
         21   -1    0    0  505  502  0.00000000000E+00  0.00000000000E+00  0.67572761114E+02  0.67572761114E+02  0.00000000000E+00 0.  1.
          1   -1    0    0  504    0 -0.00000000000E+00 -0.00000000000E+00 -0.12319961690E+04  0.12319961690E+04  0.00000000000E+00 0. -1.
         21    1    1    2  503  501  0.19137450995E+02 -0.48829741015E+02  0.75305307648E+01  0.52983908234E+02  0.00000000000E+00 0.  1.
         21    1    1    2  504  502  0.45229057788E+02  0.57432940027E+02 -0.24258966729E+03  0.25336526388E+03  0.00000000000E+00 0. -1.
         21    1    1    2  505  503  0.38469962237E+02 -0.87292124799E+02 -0.56639324386E+02  0.11094082257E+03  0.00000000000E+00 0.  1.
          1    1    1    2  501    0 -0.10283647102E+03  0.78688925787E+02 -0.87272494694E+03  0.88227893539E+03  0.00000000000E+00 0. -1.
<scales pt_clust_3="37.89424" pt_clust_4="73.10411" pt_clust_5="37.89424" pt_clust_6="144.15949"></scales>
<clustering>
<clus scale="   37.894">  3  5 -1 -1</clus>
<clus scale="   73.104">  2  4  1 -1</clus>
<clus scale="  144.159">  2  6  1 -1</clus>
<clus scale="  152.950">  1  3  2 -1</clus>
</clustering>
</event>
<event>
 6    0  0.1849053E+002  0.1501258E+03  0.7546771E-02  0.1200319E+00
         21   -1    0    0  503  502  0.00000000000E+00  0.00000000000E+00  0.63039047562E+02  0.63039047562E+02  0.00000000000E+00 0.  1.
          2   -1    0    0  502    0 -0.00000000000E+00 -0.00000000000E+00 -0.38792286409E+04  0.38792286409E+04  0.00000000000E+00 0.  1.
         21    1    1    2  503  504  0.50792687321E+02 -0.69037738490E+02  0.11505875484E+01  0.85717152734E+02  0.00000000000E+00 0.  1.
         21    1    1    2  504  505  0.23140981629E+02 -0.55688284711E+02 -0.36460403466E+02  0.70470214316E+02  0.00000000000E+00 0.  1.
         21    1    1    2  505  501 -0.14831203693E+02  0.11646432223E+03 -0.15652187098E+04  0.15696157213E+04  0.00000000000E+00 0.  1.
          2    1    1    2  501    0 -0.59102465258E+02  0.82617009664E+01 -0.22156610676E+04  0.22164646001E+04  0.00000000000E+00 0.  1.
<scales pt_clust_3="38.66659" pt_clust_4="38.66659" pt_clust_5="142.87338" pt_clust_6="59.67711"></scales>
<clustering>
<clus scale="   38.667">  3  4 -1 -1</clus>
<clus scale="   59.677">  2  6  1 -1</clus>
<clus scale="  142.873">  2  5  1 -1</clus>
<clus scale="  150.126">  1  3  2 -1</clus>
</clustering>
</event>
<event>
 6    0  0.1849053E+002  0.2923950E+03  0.7546771E-02  0.1089105E+00
          2   -1    0    0  504    0 -0.00000000000E+00  0.00000000000E+00  0.28188050728E+04  0.28188050728E+04  0.00000000000E+00 0.  1.
         21   -1    0    0  503  502  0.00000000000E+00 -0.00000000000E+00 -0.11086026790E+03  0.11086026790E+03  0.00000000000E+00 0.  1.
         21    1    1    2  503  501 -0.38199605705E+02  0.15237634926E+03  0.19566727865E+04  0.19629687097E+04  0.00000000000E+00 0.  1.
         21    1    1    2  504  505  0.59904480467E+02 -0.18647575224E+03  0.11318441693E+03  0.22621331789E+03  0.00000000000E+00 0.  1.
         21    1    1    2  505  502  0.68974905882E+02 -0.84342530883E+02  0.28098454343E+02  0.11251987955E+03  0.00000000000E+00 0.  1.
          2    1    1    2  501    0 -0.90679780644E+02  0.11844193387E+03  0.60998914713E+03  0.62796343360E+03  0.00000000000E+00 0.  1.
<scales pt_clust_3="284.02104" pt_clust_4="51.81825" pt_clust_5="51.81825" pt_clust_6="149.16874"></scales>
<clustering>
<clus scale="   51.818">  4  5 -1 -1</clus>
<clus scale="  149.169">  1  6  2 -1</clus>
<clus scale="  284.021">  1  3  2 -1</clus>
<clus scale="  292.395">  2  3  1 -1</clus>
</clustering>
</event>
<event>
 6    0  0.1849053E+002  0.1032722E+03  0.7546771E-02  0.1273562E+00
         21   -1    0    0  504  502  0.00000000000E+00  0.00000000000E+00  0.85002564357E+03  0.85002564357E+03  0.00000000000E+00 0. -1.
          2   -1    0    0  503    0 -0.00000000000E+00 -0.00000000000E+00 -0.22998031844E+03  0.22998031844E+03  0.00000000000E+00 0.  1.
         21    1    1    2  503  502  0.10729952802E+03 -0.15837979359E+01  0.39083342060E+03  0.40529798888E+03  0.00000000000E+00 0. -1.
         21    1    1    2  504  505 -0.14889815096E+01 -0.51139757827E+02  0.69057962411E+02  0.85944715189E+02  0.00000000000E+00 0. -1.
         21    1    1    2  505  501 -0.48119926195E+02  0.13287709570E+03  0.34851810499E+03  0.37608073517E+03  0.00000000000E+00 0. -1.
          2    1    1    2  501    0 -0.57690620316E+02 -0.80153539933E+02 -0.18836416288E+03  0.21268252277E+03  0.00000000000E+00 0.  1.
<scales pt_clust_3="103.27215" pt_clust_4="51.16143" pt_clust_5="14000.00000" pt_clust_6="99.42426"></scales>
<clustering>
<clus scale="   51.161">  1  4  2 -1</clus>
<clus scale="   99.424">  2  6  1 -1</clus>
<clus scale="  103.272">  1  3  2 -1</clus>
<clus scale="   51.161">  1  3  2 -1</clus>
</clustering>
</event>
<event>
 6    0  0.1849053E+002  0.9746719E+02  0.7546771E-02  0.1285714E+00
          4   -1    0    0  505    0 -0.00000000000E+00  0.00000000000E+00  0.63993188291E+03  0.63993188291E+03  0.00000000000E+00 0.  1.
         21   -1    0    0  504  502  0.00000000000E+00 -0.00000000000E+00 -0.10853545745E+04  0.10853545745E+04  0.00000000000E+00 0.  1.
         21    1    1    2  503  501  0.40615872691E+02  0.47124853213E+02 -0.69150988805E+02  0.93017526077E+02  0.00000000000E+00 0.  1.
         21    1    1    2  504  503 -0.84149860987E+02 -0.64550781926E+02 -0.99582417662E+03  0.10014558369E+04  0.00000000000E+00 0.  1.
         21    1    1    2  505  502 -0.28934431461E+02  0.15402837596E+02  0.80659079210E+02  0.87065123838E+02  0.00000000000E+00 0.  1.
          4    1    1    2  501    0  0.72468419757E+02  0.20230911169E+01  0.53889339462E+03  0.54374797059E+03  0.00000000000E+00 0.  1.
<scales pt_clust_3="97.46719" pt_clust_4="14000.00000" pt_clust_5="32.77878" pt_clust_6="47.45744"></scales>
<clustering>
<clus scale="   32.779">  1  5  2 -1</clus>
<clus scale="   47.457">  1  6  2 -1</clus>
<clus scale="   97.467">  1  3  2 -1</clus>
<clus scale="   97.467">  2  3  1 -1</clus>
</clustering>
</event>
<event>
 6    0  0.1849053E+002  0.1720514E+03  0.7546771E-02  0.1175725E+00
          1   -1    0    0  505    0 -0.00000000000E+00  0.00000000000E+00  0.43639370634E+03  0.43639370634E+03  0.00000000000E+00 0.  1.
         21   -1    0    0  504  502  0.00000000000E+00 -0.00000000000E+00 -0.36276437198E+03  0.36276437198E+03  0.00000000000E+00 0.  1.
         21    1    1    2  503  501 -0.14887517956E+02 -0.10283558287E+03 -0.14227085357E+03  0.17617545536E+03  0.00000000000E+00 0.  1.
         21    1    1    2  504  503  0.18435496034E+02 -0.58666397222E+02 -0.17502107902E+03  0.18551008538E+03  0.00000000000E+00 0.  1.
         21    1    1    2  505  502  0.18351053640E+02  0.31451727934E+02  0.15526730835E+02  0.39586004220E+02  0.00000000000E+00 0.  1.
          1    1    1    2  501    0 -0.21899031718E+02  0.13005025216E+03  0.37539453612E+03  0.39788653336E+03  0.00000000000E+00 0.  1.
<scales pt_clust_3="49.14540" pt_clust_4="49.14540" pt_clust_5="36.41390" pt_clust_6="159.85899"></scales>
<clustering>
<clus scale="   36.414">  1  5  2 -1</clus>
<clus scale="   49.145">  3  4 -1 -1</clus>
<clus scale="  159.859">  1  6  2 -1</clus>
<clus scale="  172.051">  2  3  1 -1</clus>
</clustering>
</event>
<event>
 6    0  0.1849053E+002  0.1752644E+03  0.7546771E-02  0.1172467E+00
          4   -1    0    0  505    0 -0.00000000000E+00  0.00000000000E+00  0.16071199388E+03  0.16071199388E+03  0.00000000000E+00 0. -1.
         21   -1    0    0  501  502  0.00000000000E+00 -0.00000000000E+00 -0.37475817990E+03  0.37475817990E+03  0.00000000000E+00 0. -1.
         21    1    1    2  503  502  0.60394138952E+02 -0.99776924540E+02 -0.21123598190E+03  0.24129551744E+03  0.00000000000E+00 0. -1.
         21    1    1    2  504  503  0.36384056926E+01 -0.52015222893E+02 -0.38438918155E+02  0.64779409055E+02  0.00000000000E+00 0. -1.
         21    1    1    2  505  504 -0.56750543983E+02 -0.11634843105E+02 -0.11692858080E+02  0.59099211048E+02  0.00000000000E+00 0.  1.
          4    1    1    2  501    0 -0.72820006617E+01  0.16342699054E+03  0.47321572111E+02  0.17029603623E+03  0.00000000000E+00 0. -1.
<scales pt_clust_3="43.34926" pt_clust_4="43.34926" pt_clust_5="57.93094" pt_clust_6="162.83216"></scales>
<clustering>
<clus scale="   43.349">  3  4 -1 -1</clus>
<clus scale="   57.931">  1  5  2 -1</clus>
<clus scale="  162.832">  1  6  2 -1</clus>
<clus scale="  175.264">  2  3  1 -1</clus>
</clustering>
</event>
<event>
 6    0  0.1849053E+002  0.9725497E+02  0.7546771E-02  0.1286177E+00
          1   -1    0    0  504    0 -0.00000000000E+00  0.00000000000E+00  0.58171676444E+03  0.58171676444E+03  0.00000000000E+00 0.  1.
         21   -1    0    0  503  502  0.00000000000E+00 -0.00000000000E+00 -0.14662068806E+03  0.14662068806E+03  0.00000000000E+00 0.  1.
         21    1    1    2  503  505 -0.29543259653E+02 -0.14586063995E+02 -0.65581606049E+02  0.73392809633E+02  0.00000000000E+00 0.  1.
         21    1    1    2  504  502 -0.10641907930E+02 -0.32830460031E+02 -0.28147349597E+02  0.44534959297E+02  0.00000000000E+00 0.  1.
         21    1    1    2  505  501  0.87119207288E+02 -0.40630007667E+02  0.28543891291E+02  0.10027615635E+03  0.00000000000E+00 0. -1.
          1    1    1    2  501    0 -0.46934039705E+02  0.88046531693E+02  0.50028114073E+03  0.51013352722E+03  0.00000000000E+00 0.  1.
<scales pt_clust_3="32.94780" pt_clust_4="46.68562" pt_clust_5="14000.00000" pt_clust_6="97.25497"></scales>
<clustering>
<clus scale="   32.948">  2  3  1 -1</clus>
<clus scale="   46.686">  2  4  1 -1</clus>
<clus scale="   97.255">  1  6  2 -1</clus>
<clus scale="   32.948">  2  3  1 -1</clus>
</clustering>
</event>
<event>
 6    0  0.1849053E+002  0.1641248E+03  0.7546771E-02  0.1184117E+00
         -1   -1    0    0    0  501 -0.00000000000E+00  0.00000000000E+00  0.31734015268E+03  0.31734015268E+03  0.00000000000E+00 0. -1.
         21   -1    0    0  505  502  0.00000000000E+00 -0.00000000000E+00 -0.55023636419E+03  0.55023636419E+03  0.00000000000E+00 0.  1.
         21    1    1    2  503  501  0.40413101752E+02 -0.48580015733E+02 -0.12083720570E+03  0.13636299719E+03  0.00000000000E+00 0.  1.
         21    1    1    2  504  502  0.61858649151E+01  0.58153998898E+02  0.70485356596E+02  0.91587870414E+02  0.00000000000E+00 0.  1.
         21    1    1    2  505  503  0.10339516684E+02 -0.88584018032E+02 -0.39551411434E+03  0.40544475394E+03  0.00000000000E+00 0.  1.
         -1    1    1    2    0  504 -0.56938483351E+02  0.79010034868E+02  0.21296975193E+03  0.23418089532E+03  0.00000000000E+00 0. -1.
<scales pt_clust_3="62.69306" pt_clust_4="51.33627" pt_clust_5="62.69306" pt_clust_6="160.55681"></scales>
<clustering>
<clus scale="   51.336">  4  6 -1 -1</clus>
<clus scale="   62.693">  3  5 -1 -1</clus>
<clus scale="  160.557">  1  4  2 -1</clus>
<clus scale="  164.125">  2  3  1 -1</clus>
</clustering>
</event>
<event>
 6    0  0.1849053E+002  0.1793248E+03  0.7546771E-02  0.1168458E+00
         21   -1    0    0  504  502  0.00000000000E+00  0.00000000000E+00  0.98539278192E+02  0.98539278192E+02  0.00000000000E+00 0. -1.
          4   -1    0    0  503    0 -0.00000000000E+00 -0.00000000000E+00 -0.31978386023E+03  0.31978386023E+03  0.00000000000E+00 0. -1.
         21    1    1    2  503  505 -0.66415000345E+02  0.77269361948E-01 -0.97763092039E+02  0.11818874907E+03  0.00000000000E+00 0. -1.
         21    1    1    2  504  501  0.10234261037E+03  0.12907570650E+02 -0.49809283550E+02  0.11454946532E+03  0.00000000000E+00 0. -1.
         21    1    1    2  505  502 -0.93406587975E+02  0.29020259495E+02 -0.31104370583E+02  0.10263745909E+03  0.00000000000E+00 0. -1.
          4    1    1    2  501    0  0.57478977952E+02 -0.42005099507E+02 -0.42567835863E+02  0.82947464947E+02  0.00000000000E+00 0. -1.
<scales pt_clust_3="62.58125" pt_clust_4="53.07673" pt_clust_5="62.58125" pt_clust_6="174.56089"></scales>
<clustering>
<clus scale="   53.077">  4  6 -1 -1</clus>
<clus scale="   62.581">  3  5 -1 -1</clus>
<clus scale="  174.561">  1  4  2 -1</clus>
<clus scale="  174.561">  1  3  2 -1</clus>
</clustering>
</event>
<event>
 6    0  0.1849053E+002  0.1562145E+03  0.7546771E-02  0.1193038E+00
         21   -1    0    0  505  502  0.00000000000E+00  0.00000000000E+00  0.49733247117E+03  0.49733247117E+03  0.00000000000E+00 0.  1.
          4   -1    0    0  503    0 -0.00000000000E+00 -0.00000000000E+00 -0.37339671150E+03  0.37339671150E+03  0.00000000000E+00 0.  1.
         21    1    1    2  503  502 -0.39647284890E+02  0.55052327189E+02 -0.24534878665E+03  0.25455587410E+03  0.00000000000E+00 0.  1.
         21    1    1    2  504  501  0.61966224154E+02 -0.97715994310E+02  0.26583761941E+03  0.28992735017E+03  0.00000000000E+00 0.  1.
         21    1    1    2  505  504  0.11072701470E+02 -0.38198208100E+02  0.19535211338E+03  0.19935936402E+03  0.00000000000E+00 0.  1.
          4    1    1    2  501    0 -0.33391640735E+02  0.80861875221E+02 -0.91905186467E+02  0.12688659439E+03  0.00000000000E+00 0.  1.
<scales pt_clust_3="67.84295" pt_clust_4="31.56184" pt_clust_5="31.56184" pt_clust_6="146.64516"></scales>
<clustering>
<clus scale="   31.562">  4  5 -1 -1</clus>
<clus scale="   67.843">  2  3  1 -1</clus>
<clus scale="  146.645">  2  6  1 -1</clus>
<clus scale="  156.214">  1  3  2 -1</clus>
</clustering>
</event>
<event>
 6    0  0.1849053E+002  0.4199449E+03  0.7546771E-02  0.1037084E+00
         21   -1    0    0  503  502  0.00000000000E+00  0.00000000000E+00  0.17303977559E+03  0.17303977559E+03  0.00000000000E+00 0. -1.
          2   -1    0    0  504    0 -0.00000000000E+00 -0.00000000000E+00 -0.16319063637E+04  0.16319063637E+04  0.00000000000E+00 0.  1.
         21    1    1    2  503  501 -0.18782173221E+03  0.94966728698E+02 -0.21718832440E+03  0.30243420922E+03  0.00000000000E+00 0. -1.
         21    1    1    2  504  505  0.17931432702E+03  0.73458489581E+02 -0.36383630412E+03  0.41222158333E+03  0.00000000000E+00 0.  1.
         21    1    1    2  505  502  0.26943869579E+03 -0.25573057135E+03 -0.50400825789E+03  0.62611473384E+03  0.00000000000E+00 0. -1.
          2    1    1    2  501    0 -0.26093129060E+03  0.87305353067E+02 -0.37383370173E+03  0.46417561292E+03  0.00000000000E+00 0.  1.
<scales pt_clust_3="53.77996" pt_clust_4="193.77765" pt_clust_5="415.41846" pt_clust_6="53.77996"></scales>
<clustering>
<clus scale="   53.780">  3  6 -1 -1</clus>
<clus scale="  193.778">  2  4  1 -1</clus>
<clus scale="  415.418">  1  5  2 -1</clus>
<clus scale="  415.418">  1  3  2 -1</clus>
</clustering>
</event>
<event>
 6    0  0.1849053E+002  0.1037926E+03  0.7546771E-02  0.1272517E+00
          2   -1    0    0  505    0 -0.00000000000E+00  0.00000000000E+00  0.10646643816E+04  0.10646643816E+04  0.00000000000E+00 0.  1.
         21   -1    0    0  503  502  0.00000000000E+00 -0.00000000000E+00 -0.54559366966E+03  0.54559366966E+03  0.00000000000E+00 0. -1.
         21    1    1    2  503  501 -0.16308247980E+03 -0.33701565720E+02 -0.44218239266E+03  0.47250075040E+03  0.00000000000E+00 0. -1.
         21    1    1    2  504  502  0.66967247896E+02 -0.64263988101E+01 -0.69830461059E+02  0.96964963694E+02  0.00000000000E+00 0.  1.
         21    1    1    2  505  504  0.34660625011E+02  0.26094031143E+02  0.12125895778E+03  0.12878661510E+03  0.00000000000E+00 0.  1.
          2    1    1    2  501    0  0.61454606890E+02  0.14033933387E+02  0.90982460785E+03  0.91200572205E+03  0.00000000000E+00 0.  1.
<scales pt_clust_3="14000.00000" pt_clust_4="67.73839" pt_clust_5="43.38499" pt_clust_6="103.79264"></scales>
<clustering>
<clus scale="   43.385">  1  5  2 -1</clus>
<clus scale="   67.738">  2  4  1 -1</clus>
<clus scale="  103.793">  1  6  2 -1</clus>
<clus scale="   67.738">  2  3  1 -1</clus>
</clustering>
</event>
<event>
 6    0  0.1849053E+002  0.1072659E+03  0.7546771E-02  0.1265718E+00
         21   -1    0    0  503  502  0.00000000000E+00  0.00000000000E+00  0.84412894382E+03  0.84412894382E+03  0.00000000000E+00 0.  1.
          1   -1    0    0  505    0 -0.00000000000E+00 -0.00000000000E+00 -0.10485485052E+04  0.10485485052E+04  0.00000000000E+00 0.  1.
         21    1    1    2  503  501 -0.11200667021E+02  0.33802410156E+02  0.51328533014E+02  0.62471402861E+02  0.00000000000E+00 0.  1.
         21    1    1    2  504  502 -0.20944682513E+02  0.69655118785E+02  0.76567278540E+03  0.76911984086E+03  0.00000000000E+00 0.  1.
         21    1    1    2  505  504 -0.69015103969E+02 -0.40504358327E+02 -0.83599552670E+02  0.11572628408E+03  0.00000000000E+00 0.  1.
          1    1    1    2  501    0  0.10116045350E+03 -0.62953170614E+02 -0.93782132715E+03  0.94535992125E+03  0.00000000000E+00 0.  1.
<scales pt_clust_3="35.60980" pt_clust_4="14000.00000" pt_clust_5="79.87420" pt_clust_6="107.26591"></scales>
<clustering>
<clus scale="   35.610">  1  3  2 -1</clus>
<clus scale="   79.874">  2  5  1 -1</clus>
<clus scale="  107.266">  2  6  1 -1</clus>
<clus scale="   35.610">  1  3  2 -1</clus>
</clustering>
</event>
<event>
 6    0  0.1849053E+002  0.1230673E+03  0.7546771E-02  0.1238121E+00
         -2   -1    0    0    0  501 -0.00000000000E+00  0.00000000000E+00  0.24118253897E+04  0.24118253897E+04  0.00000000000E+00 0.  1.
         21   -1    0    0  503  502  0.00000000000E+00 -0.00000000000E+00 -0.20405934727E+02  0.20405934727E+02  0.00000000000E+00 0.  1.
         21    1    1    2  503  505 -0.31064278548E+02 -0.69882237383E+02  0.64113251015E+03  0.64567748301E+03  0.00000000000E+00 0.  1.
         21    1    1    2  504  501 -0.53997178226E+02 -0.12626406167E+02  0.77540093707E+03  0.77738133152E+03  0.00000000000E+00 0.  1.
         21    1    1    2  505  504 -0.75305833581E+02  0.89336460376E+01  0.42376998829E+03  0.43050177883E+03  0.00000000000E+00 0. -1.
         -2    1    1    2    0  502  0.16036729036E+03  0.73574997513E+02  0.55111601950E+03  0.57867073109E+03  0.00000000000E+00 0.  1.
<scales pt_clust_3="123.06728" pt_clust_4="55.45378" pt_clust_5="89.58605" pt_clust_6="14000.00000"></scales>
<clustering>
<clus scale="   55.454">  1  4  2 -1</clus>
<clus scale="   89.586">  1  5  2 -1</clus>
<clus scale="  123.067">  1  3  2 -1</clus>
<clus scale="  123.067">  2  3  1 -1</clus>
</clustering>
</event>
<event>
 6    0  0.3516421E+002  0.1400538E+03  0.7546771E-02  0.1213257E+00
          1   -1    0    0  504    0 -0.00000000000E+00  0.00000000000E+00  0.12487278983E+04  0.12487278983E+04  0.00000000000E+00 0. -1.
         21   -1    0    0  503  502  0.00000000000E+00 -0.00000000000E+00 -0.98521964430E+03  0.98521964430E+03  0.00000000000E+00 0. -1.
         21    1    1    2  503  501 -0.50829390680E+02 -0.74453423217E+02 -0.91627548677E+03  0.92069957469E+03  0.00000000000E+00 0. -1.
         21    1    1    2  504  505 -0.30964422039E+02  0.23742074036E+02  0.80594112595E+02  0.89542685333E+02  0.00000000000E+00 0. -1.
         21    1    1    2  505  502  0.83902995394E+01 -0.59780891334E+02 -0.42823639663E+02  0.74013621780E+02  0.00000000000E+00 0. -1.
          1    1    1    2  501    0  0.73403513179E+02  0.11049224051E+03  0.11420132678E+04  0.11496916608E+04  0.00000000000E+00 0. -1.
<scales pt_clust_3="14000.00000" pt_clust_4="39.01899" pt_clust_5="59.99516" pt_clust_6="140.05384"></scales>
<clustering>
<clus scale="   39.019">  1  4  2 -1</clus>
<clus scale="   59.995">  2  5  1 -1</clus>
<clus scale="  140.054">  1  6  2 -1</clus>
<clus scale="   59.995">  2  3  1 -1</clus>
</clustering>
</event>
<event>
 6    0  0.1849053E+002  0.1506356E+03  0.7546771E-02  0.1199694E+00
         21   -1    0    0  504  502  0.00000000000E+00  0.00000000000E+00  0.38041351492E+03  0.38041351492E+03  0.00000000000E+00 0. -1.
          1   -1    0    0  503    0 -0.00000000000E+00 -0.00000000000E+00 -0.29259509970E+04  0.29259509970E+04  0.00000000000E+00 0.  1.
         21    1    1    2  503  502 -0.28766720091E+02 -0.31802284509E+02  0.40814712428E+02  0.59200931034E+02  0.00000000000E+00 0.  1.
         21    1    1    2  504  505 -0.50137067938E+02 -0.80794948616E+02  0.32156828241E+03  0.33533223758E+03  0.00000000000E+00 0. -1.
         21    1    1    2  505  501  0.39685744190E+02  0.15260738837E+02 -0.58590091138E+03  0.58744167914E+03  0.00000000000E+00 0.  1.
          1    1    1    2  501    0  0.39218043839E+02  0.97336494288E+02 -0.23220195656E+04  0.23243896642E+04  0.00000000000E+00 0.  1.
<scales pt_clust_3="42.88251" pt_clust_4="137.23978" pt_clust_5="39.52815" pt_clust_6="39.52815"></scales>
<clustering>
<clus scale="   39.528">  5  6 -1 -1</clus>
<clus scale="   42.883">  1  3  2 -1</clus>
<clus scale="  137.240">  1  4  2 -1</clus>
<clus scale="   42.883">  1  3  2 -1</clus>
</clustering>
</event>
<event>
 6    0  0.1849053E+002  0.1891270E+03  0.7546771E-02  0.1159251E+00
         -4   -1    0    0    0  501 -0.00000000000E+00  0.00000000000E+00  0.13481535257E+03  0.13481535257E+03  0.00000000000E+00 0.  1.
         21   -1    0    0  505  502  0.00000000000E+00 -0.00000000000E+00 -0.36487766995E+03  0.36487766995E+03  0.00000000000E+00 0.  1.
         21    1    1    2  503  502  0.57286809232E+02  0.50517368989E+02 -0.26064914641E+01  0.76423667010E+02  0.00000000000E+00 0.  1.
         21    1    1    2  504  501 -0.96089453967E+02 -0.38975206758E+02 -0.16910657404E+03  0.19836653773E+03  0.00000000000E+00 0.  1.
         21    1    1    2  505  504 -0.65099860536E+02 -0.49008539110E+02 -0.77904452456E+02  0.11273390111E+03  0.00000000000E+00 0.  1.
         -4    1    1    2    0  503  0.10390250527E+03  0.37466376879E+02  0.19555200573E+02  0.11216891667E+03  0.00000000000E+00 0.  1.
<scales pt_clust_3="32.81063" pt_clust_4="40.09652" pt_clust_5="40.09652" pt_clust_6="187.82945"></scales>
<clustering>
<clus scale="   32.811">  3  6 -1 -1</clus>
<clus scale="   40.097">  4  5 -1 -1</clus>
<clus scale="  187.829">  1  3  2 -1</clus>
<clus scale="  189.127">  2  3  1 -1</clus>
</clustering>
</event>
<event>
 6    0  0.1849053E+002  0.1388406E+03  0.7546771E-02  0.1214898E+00
         -3   -1    0    0    0  501 -0.00000000000E+00  0.00000000000E+00  0.40350090826E+03  0.40350090826E+03  0.00000000000E+00 0. -1.
         21   -1    0    0  504  502  0.00000000000E+00 -0.00000000000E+00 -0.42384401988E+03  0.42384401988E+03  0.00000000000E+00 0. -1.
         21    1    1    2  503  502 -0.28574769992E+02 -0.16291069526E+02 -0.60059134441E+01  0.33436318916E+02  0.00000000000E+00 0. -1.
         21    1    1    2  504  505 -0.11648451099E+03  0.92891186487E+02 -0.30343915569E+03  0.33804250477E+03  0.00000000000E+00 0. -1.
         21    1    1    2  505  501  0.11371194064E+03 -0.21719176329E+02 -0.38670717035E+02  0.12205553006E+03  0.00000000000E+00 0. -1.
         -3    1    1    2    0  503  0.31347340348E+02 -0.54880940633E+02  0.32777267455E+03  0.33381057439E+03  0.00000000000E+00 0. -1.
<scales pt_clust_3="32.89250" pt_clust_4="138.84055" pt_clust_5="14000.00000" pt_clust_6="63.20292"></scales>
<clustering>
<clus scale="   32.892">  2  3  1 -1</clus>
<clus scale="   63.203">  1  6  2 -1</clus>
<clus scale="  138.841">  2  4  1 -1</clus>
<clus scale="   32.892">  2  3  1 -1</clus>
</clustering>
</event>
<event>
 6    0  0.1849053E+002  0.5393135E+02  0.7546771E-02  0.1425221E+00
         -1   -1    0    0    0  501 -0.00000000000E+00  0.00000000000E+00  0.73091899339E+03  0.73091899339E+03  0.00000000000E+00 0. -1.
         21   -1    0    0  503  502  0.00000000000E+00 -0.00000000000E+00 -0.30503682433E+03  0.30503682433E+03  0.00000000000E+00 0.  1.
         21    1    1    2  503  504 -0.39306051012E+02 -0.11758720188E+02 -0.74754140384E+02  0.85272590269E+02  0.00000000000E+00 0.  1.
         21    1    1    2  504  501 -0.29986759159E+02 -0.82753657696E+02  0.25443850324E+03  0.26923284629E+03  0.00000000000E+00 0. -1.
         21    1    1    2  505  502  0.62912703858E+02  0.46624060204E+02 -0.20926318960E+03  0.22343431657E+03  0.00000000000E+00 0.  1.
         -1    1    1    2    0  505  0.63801063132E+01  0.47888317680E+02  0.45546099581E+03  0.45801606460E+03  0.00000000000E+00 0. -1.
<scales pt_clust_3="41.02722" pt_clust_4="53.93135" pt_clust_5="43.34186" pt_clust_6="14000.00000"></scales>
<clustering>
<clus scale="   41.027">  2  3  1 -1</clus>
<clus scale="   43.342">  2  5  1 -1</clus>
<clus scale="   53.931">  2  4  1 -1</clus>
<clus scale="   41.027">  2  3  1 -1</clus>
</clustering>
</event>
<event>
 6    0  0.1849053E+002  0.1461480E+03  0.7546771E-02  0.1205288E+00
         21   -1    0    0  504  502  0.00000000000E+00  0.00000000000E+00  0.33702276980E+02  0.33702276980E+02  0.00000000000E+00 0. -1.
          2   -1    0    0  503    0 -0.00000000000E+00 -0.00000000000E+00 -0.32318226163E+04  0.32318226163E+04  0.00000000000E+00 0. -1.
         21    1    1    2  503  505 -0.68664070870E+02 -0.12750244408E+03 -0.18395197549E+03  0.23411526470E+03  0.00000000000E+00 0. -1.
         21    1    1    2  504  501  0.51919966339E+01  0.87611246336E+02 -0.15069427938E+04  0.15094963634E+04  0.00000000000E+00 0. -1.
         21    1    1    2  505  502  0.32384795387E+02 -0.51193530395E+01 -0.32472192047E+02  0.46145704070E+02  0.00000000000E+00 0. -1.
          2    1    1    2  501    0  0.31087278849E+02  0.45010550789E+02 -0.14747533780E+04  0.14757675611E+04  0.00000000000E+00 0. -1.
<scales pt_clust_3="137.75097" pt_clust_4="38.67249" pt_clust_5="32.78693" pt_clust_6="38.67249"></scales>
<clustering>
<clus scale="   32.787">  1  5  2 -1</clus>
<clus scale="   38.672">  4  6 -1 -1</clus>
<clus scale="  137.751">  1  3  2 -1</clus>
<clus scale="   32.787">  1  3  2 -1</clus>
</clustering>
</event>
<event>
 6    0  0.1849053E+002  0.1059381E+03  0.7546771E-02  0.1268282E+00
          2   -1    0    0  504    0 -0.00000000000E+00  0.00000000000E+00  0.14214040925E+04  0.14214040925E+04  0.00000000000E+00 0.  1.
         21   -1    0    0  503  502  0.00000000000E+00 -0.00000000000E+00 -0.17371830929E+03  0.17371830929E+03  0.00000000000E+00 0.  1.
         21    1    1    2  503  501  0.27654778184E+02  0.12294172783E+03  0.25908525171E+02  0.12864955062E+03  0.00000000000E+00 0.  1.
         21    1    1    2  504  505 -0.54797059740E+02  0.37971001621E+02  0.23210967610E+03  0.24149413339E+03  0.00000000000E+00 0. -1.
         21    1    1    2  505  502  0.56089691291E+02 -0.92273754879E+02 -0.91324030723E+02  0.14142339939E+03  0.00000000000E+00 0.  1.
          2    1    1    2  501    0 -0.28947409734E+02 -0.68638974576E+02  0.10809916127E+04  0.10835553184E+04  0.00000000000E+00 0.  1.
<scales pt_clust_3="14000.00000" pt_clust_4="66.66719" pt_clust_5="105.93811" pt_clust_6="85.99535"></scales>
<clustering>
<clus scale="   66.667">  1  4  2 -1</clus>
<clus scale="   85.995">  1  6  2 -1</clus>
<clus scale="  105.938">  2  5  1 -1</clus>
<clus scale="  105.938">  2  3  1 -1</clus>
</clustering>
</event>
<event>
 6    0  0.1849053E+002  0.1393285E+03  0.7546771E-02  0.1214235E+00
         21   -1    0    0  505  502  0.00000000000E+00  0.00000000000E+00  0.64875554354E+02  0.64875554354E+02  0.00000000000E+00 0. -1.
          4   -1    0    0  503    0 -0.00000000000E+00 -0.00000000000E+00 -0.44835174931E+03  0.44835174931E+03  0.00000000000E+00 0. -1.
         21    1    1    2  503  504  0.28759700016E+01 -0.46678998767E+02 -0.26222079303E+02  0.53617138792E+02  0.00000000000E+00 0. -1.
         21    1    1    2  504  502  0.75453610756E+02 -0.49965779723E+02 -0.15426709369E+02  0.91803103877E+02  0.00000000000E+00 0. -1.
         21    1    1    2  505  501 -0.73667999686E+02  0.51195338932E+02 -0.21314347059E+03  0.23125327232E+03  0.00000000000E+00 0. -1.
          4    1    1    2  501    0 -0.46615810720E+01  0.45449439557E+02 -0.12868393569E+03  0.13655378867E+03  0.00000000000E+00 0. -1.
<scales pt_clust_3="45.10441" pt_clust_4="45.10441" pt_clust_5="38.82834" pt_clust_6="135.77945"></scales>
<clustering>
<clus scale="   38.828">  5  6 -1 -1</clus>
<clus scale="   45.104">  3  4 -1 -1</clus>
<clus scale="  135.779">  2  5  1 -1</clus>
<clus scale="  139.328">  1  3  2 -1</clus>
</clustering>
</event>
<event>
 6    0  0.1849053E+002  0.8072457E+02  0.7546771E-02  0.1327008E+00
         21   -1    0    0  504  502  0.00000000000E+00  0.00000000000E+00  0.68540842556E+03  0.68540842556E+03  0.00000000000E+00 0. -1.
          4   -1    0    0  505    0 -0.00000000000E+00 -0.00000000000E+00 -0.41976581296E+03  0.41976581296E+03  0.00000000000E+00 0.  1.
         21    1    1    2  503  502  0.13439069186E+02 -0.98331212664E+02  0.60907161499E+03  0.61710442240E+03  0.00000000000E+00 0. -1.
         21    1    1    2  504  501 -0.32617570480E+02  0.21096414937E+02  0.47777279291E+02  0.61576237654E+02  0.00000000000E+00 0. -1.
         21    1    1    2  505  503 -0.34901170140E+02 -0.21943944772E+02 -0.39517101062E+02  0.57107177006E+02  0.00000000000E+00 0. -1.
          4    1    1    2  501    0  0.54079671434E+02  0.99178742499E+02 -0.35168918061E+03  0.36938640146E+03  0.00000000000E+00 0.  1.
<scales pt_clust_3="80.72457" pt_clust_4="38.84539" pt_clust_5="41.45792" pt_clust_6="14000.00000"></scales>
<clustering>
<clus scale="   38.845">  1  4  2 -1</clus>
<clus scale="   41.458">  2  5  1 -1</clus>
<clus scale="   80.725">  1  3  2 -1</clus>
<clus scale="   38.845">  1  3  2 -1</clus>
</clustering>
</event>
<event>
 6    0  0.1849053E+002  0.1134291E+03  0.7546771E-02  0.1254348E+00
         21   -1    0    0  503  502  0.00000000000E+00  0.00000000000E+00  0.73121857682E+03  0.73121857682E+03  0.00000000000E+00 0.  1.
          2   -1    0    0  505    0 -0.00000000000E+00 -0.00000000000E+00 -0.16400786767E+04  0.16400786767E+04  0.00000000000E+00 0.  1.
         21    1    1    2  503  501  0.82195140365E+02  0.12896198423E+03  0.23571328569E+03  0.28097684518E+03  0.00000000000E+00 0.  1.
         21    1    1    2  504  502 -0.10308237082E+03 -0.35866528486E+02  0.46390863730E+03  0.47657487009E+03  0.00000000000E+00 0.  1.
         21    1    1    2  505  504  0.52608479485E+02 -0.36964692050E+02 -0.92367749024E+03  0.92591260201E+03  0.00000000000E+00 0.  1.
          2    1    1    2  501    0 -0.31721249025E+02 -0.56130763694E+02 -0.68480453267E+03  0.68783293628E+03  0.00000000000E+00 0.  1.
<scales pt_clust_3="14000.00000" pt_clust_4="113.42911" pt_clust_5="64.29651" pt_clust_6="93.49933"></scales>
<clustering>
<clus scale="   64.297">  2  5  1 -1</clus>
<clus scale="   93.499">  2  6  1 -1</clus>
<clus scale="  113.429">  1  4  2 -1</clus>
<clus scale="  113.429">  1  3  2 -1</clus>
</clustering>
</event>
<event>
 6    0  0.1849053E+002  0.1058513E+03  0.7546771E-02  0.1268451E+00
          2   -1    0    0  505    0 -0.00000000000E+00  0.00000000000E+00  0.17529484776E+04  0.17529484776E+04  0.00000000000E+00 0. -1.
         21   -1    0    0  504  502  0.00000000000E+00 -0.00000000000E+00 -0.12540400699E+03  0.12540400699E+03  0.00000000000E+00 0.  1.
         21    1    1    2  503  502  0.79946614937E+02  0.83663570536E+01  0.47722197092E+02  0.93481898063E+02  0.00000000000E+00 0. -1.
         21    1    1    2  504  501 -0.12917336656E+02  0.79502126759E+02 -0.82988731326E+02  0.11564849879E+03  0.00000000000E+00 0.  1.
         21    1    1    2  505  503 -0.76425983818E+01 -0.45759284025E+02  0.23383388873E+03  0.23839171316E+03  0.00000000000E+00 0. -1.
          2    1    1    2  501    0 -0.59386679899E+02 -0.42109199788E+02  0.14289771161E+04  0.14308303746E+04  0.00000000000E+00 0. -1.
<scales pt_clust_3="79.83485" pt_clust_4="105.85134" pt_clust_5="46.39312" pt_clust_6="14000.00000"></scales>
<clustering>
<clus scale="   46.393">  1  5  2 -1</clus>
<clus scale="   79.835">  2  3  1 -1</clus>
<clus scale="  105.851">  2  4  1 -1</clus>
<clus scale="   79.835">  2  3  1 -1</clus>
</clustering>
</event>
<event>
 6    0  0.1849053E+002  0.1560949E+03  0.7546771E-02  0.1193177E+00
          2   -1    0    0  504    0 -0.00000000000E+00  0.00000000000E+00  0.10094743663E+04  0.10094743663E+04  0.00000000000E+00 0.  1.
         21   -1    0    0  503  502  0.00000000000E+00 -0.00000000000E+00 -0.20412518125E+03  0.20412518125E+03  0.00000000000E+00 0.  1.
         21    1    1    2  503  501  0.34956174262E+02 -0.14970674244E+02  0.13444174244E+03  0.13971627434E+03  0.00000000000E+00 0. -1.
         21    1    1    2  504  505 -0.85373987841E+02  0.42241018799E+02 -0.80348887377E+02  0.12461526861E+03  0.00000000000E+00 0.  1.
         21    1    1    2  505  502 -0.39296293132E+02  0.36114519605E+02 -0.87964189193E+02  0.10288904587E+03  0.00000000000E+00 0.  1.
          2    1    1    2  501    0  0.89714106712E+02 -0.63384864160E+02  0.83922051914E+03  0.84637895868E+03  0.00000000000E+00 0.  1.
<scales pt_clust_3="30.47831" pt_clust_4="153.06509" pt_clust_5="31.28367" pt_clust_6="30.47831"></scales>
<clustering>
<clus scale="   30.478">  3  6 -1 -1</clus>
<clus scale="   31.284">  4  5 -1 -1</clus>
<clus scale="  153.065">  2  4  1 -1</clus>
<clus scale="  153.065">  2  3  1 -1</clus>
</clustering>
</event>
<event>
 6    0  0.1849053E+002  0.1201376E+03  0.7546771E-02  0.1242870E+00
          4   -1    0    0  503    0 -0.00000000000E+00  0.00000000000E+00  0.85446122947E+02  0.85446122947E+02  0.00000000000E+00 0. -1.
         21   -1    0    0  501  502  0.00000000000E+00 -0.00000000000E+00 -0.34324933531E+03  0.34324933531E+03  0.00000000000E+00 0.  1.
         21    1    1    2  503  505 -0.31746634001E+02  0.30350658194E+02 -0.10977151541E+02  0.45271504052E+02  0.00000000000E+00 0. -1.
         21    1    1    2  504  502  0.34473150539E+02  0.21563199052E+02 -0.65793239787E+02  0.77344166316E+02  0.00000000000E+00 0.  1.
         21    1    1    2  505  504  0.80921418899E+02 -0.21672937960E+02 -0.19848275618E+03  0.21543768653E+03  0.00000000000E+00 0.  1.
          4    1    1    2  501    0 -0.83647935437E+02 -0.30240919286E+02  0.17449935145E+02  0.90642101359E+02  0.00000000000E+00 0. -1.
<scales pt_clust_3="43.92051" pt_clust_4="35.27405" pt_clust_5="35.27405" pt_clust_6="108.94747"></scales>
<clustering>
<clus scale="   35.274">  4  5 -1 -1</clus>
<clus scale="   43.921">  1  3  2 -1</clus>
<clus scale="  108.947">  1  6  2 -1</clus>
<clus scale="  120.138">  2  3  1 -1</clus>
</clustering>
</event>
<event>
 6    0  0.1849053E+002  0.1093805E+03  0.7546771E-02  0.1261721E+00
         21   -1    0    0  505  502  0.00000000000E+00  0.00000000000E+00  0.46705704489E+02  0.46705704489E+02  0.00000000000E+00 0.  1.
         -2   -1    0    0    0  501 -0.00000000000E+00 -0.00000000000E+00 -0.68040395314E+03  0.68040395314E+03  0.00000000000E+00 0.  1.
         21    1    1    2  503  504  0.37024930720E+02  0.42803008793E+01 -0.64039862950E+02  0.74096359675E+02  0.00000000000E+00 0.  1.
         21    1    1    2  504  502  0.51734609865E+02 -0.11171179731E+02 -0.25245764844E+02  0.58639694380E+02  0.00000000000E+00 0.  1.
         21    1    1    2  505  501 -0.11282422624E+03  0.39531916885E+02 -0.12485536415E+03  0.17286104372E+03  0.00000000000E+00 0.  1.
         -2    1    1    2    0  503  0.24064685653E+02 -0.32641038033E+02 -0.41955725671E+03  0.42151255986E+03  0.00000000000E+00 0.  1.
<scales pt_clust_3="34.81491" pt_clust_4="34.81491" pt_clust_5="101.20719" pt_clust_6="40.55301"></scales>
<clustering>
<clus scale="   34.815">  3  4 -1 -1</clus>
<clus scale="   40.553">  2  6  1 -1</clus>
<clus scale="  101.207">  2  5  1 -1</clus>
<clus scale="  109.380">  1  3  2 -1</clus>
</clustering>
</event>
<event>
 6    0  0.1849053E+002  0.6901326E+02  0.7546771E-02  0.1363481E+00
         21   -1    0    0  503  502  0.00000000000E+00  0.00000000000E+00  0.60800735831E+03  0.60800735831E+03  0.00000000000E+00 0. -1.
         -1   -1    0    0    0  501 -0.00000000000E+00 -0.00000000000E+00 -0.30995308572E+03  0.30995308572E+03  0.00000000000E+00 0.  1.
         21    1    1    2  503  501 -0.27360153860E+01  0.37900616052E+02  0.10311481623E+02  0.39373457183E+02  0.00000000000E+00 0.  1.
         21    1    1    2  504  505 -0.87509415682E+02  0.72033286206E+02  0.17562157834E+03  0.20902064715E+03  0.00000000000E+00 0. -1.
         21    1    1    2  505  502  0.57758899665E+02 -0.18682984676E+02  0.37994561764E+03  0.38476462516E+03  0.00000000000E+00 0. -1.
         -1    1    1    2    0  504  0.32486531403E+02 -0.91250917582E+02 -0.26782440502E+03  0.28480171454E+03  0.00000000000E+00 0.  1.
<scales pt_clust_3="37.99924" pt_clust_4="69.01326" pt_clust_5="60.58970" pt_clust_6="14000.00000"></scales>
<clustering>
<clus scale="   37.999">  2  3  1 -1</clus>
<clus scale="   60.590">  1  5  2 -1</clus>
<clus scale="   69.013">  1  4  2 -1</clus>
<clus scale="   60.590">  1  3  2 -1</clus>
</clustering>
</event>
<event>
 6    0  0.1849053E+002  0.1412240E+03  0.7546771E-02  0.1211691E+00
         21   -1    0    0  501  502  0.00000000000E+00  0.00000000000E+00  0.29586091636E+03  0.29586091636E+03  0.00000000000E+00 0.  1.
          3   -1    0    0  505    0 -0.00000000000E+00 -0.00000000000E+00 -0.51517338689E+03  0.51517338689E+03  0.00000000000E+00 0. -1.
         21    1    1    2  503  504 -0.11875330666E+03 -0.14239265353E+03  0.81242885265E+02  0.20243127730E+03  0.00000000000E+00 0.  1.
         21    1    1    2  504  502  0.90544480612E+02  0.45477158300E+00  0.11798546526E+03  0.14872484594E+03  0.00000000000E+00 0.  1.
         21    1    1    2  505  503  0.50118299743E+02  0.89402052119E+02 -0.37345673437E+03  0.38726541717E+03  0.00000000000E+00 0. -1.
          3    1    1    2  501    0 -0.21909473700E+02  0.52535829832E+02 -0.45084086688E+02  0.72612762835E+02  0.00000000000E+00 0. -1.
<scales pt_clust_3="141.22405" pt_clust_4="89.83408" pt_clust_5="14000.00000" pt_clust_6="56.92134"></scales>
<clustering>
<clus scale="   56.921">  2  6  1 -1</clus>
<clus scale="   89.834">  1  4  2 -1</clus>
<clus scale="  141.224">  1  3  2 -1</clus>
<clus scale="   89.834">  1  3  2 -1</clus>
</clustering>
</event>
<event>
 6    0  0.1849053E+002  0.2419269E+03  0.7546771E-02  0.1118516E+00
          2   -1    0    0  503    0 -0.00000000000E+00  0.00000000000E+00  0.71299799059E+03  0.71299799059E+03  0.00000000000E+00 0. -1.
         21   -1    0    0  505  502  0.00000000000E+00 -0.00000000000E+00 -0.15306983085E+04  0.15306983085E+04  0.00000000000E+00 0.  1.
         21    1    1    2  503  504 -0.49198580292E+02  0.24992900341E+02  0.16990623454E+02  0.57739299057E+02  0.00000000000E+00 0. -1.
         21    1    1    2  504  502  0.13443729039E+03  0.21303111404E+03 -0.68971318260E+03  0.73427509480E+03  0.00000000000E+00 0.  1.
         21    1    1    2  505  501  0.94920712563E+02 -0.12453856470E+03 -0.77292008817E+03  0.78862238014E+03  0.00000000000E+00 0.  1.
          2    1    1    2  501    0 -0.18015942266E+03 -0.11348544968E+03  0.62794232935E+03  0.66305952512E+03  0.00000000000E+00 0. -1.
<scales pt_clust_3="55.18284" pt_clust_4="241.92686" pt_clust_5="156.01069" pt_clust_6="14000.00000"></scales>
<clustering>
<clus scale="   55.183">  1  3  2 -1</clus>
<clus scale="  156.011">  2  5  1 -1</clus>
<clus scale="  241.927">  2  4  1 -1</clus>
<clus scale="  156.011">  2  3  1 -1</clus>
</clustering>
</event>
<event>
 6    0  0.1849053E+002  0.8486273E+02  0.7546771E-02  0.1315792E+00
         21   -1    0    0  501  502  0.00000000000E+00  0.00000000000E+00  0.32996353180E+02  0.32996353180E+02  0.00000000000E+00 0. -1.
          1   -1    0    0  504    0 -0.00000000000E+00 -0.00000000000E+00 -0.96448848481E+03  0.96448848481E+03  0.00000000000E+00 0. -1.
         21    1    1    2  503  502  0.29608718290E+02  0.14542938210E+02 -0.18082685731E+02  0.37618569534E+02  0.00000000000E+00 0. -1.
         21    1    1    2  504  505  0.47006374277E+02  0.42505996182E+02 -0.26853482697E+03  0.27591178342E+03  0.00000000000E+00 0. -1.
         21    1    1    2  505  503  0.40575359757E+02 -0.67296320054E+02 -0.10352913510E+03  0.12997475265E+03  0.00000000000E+00 0. -1.
          1    1    1    2  501    0 -0.11719045232E+03  0.10247385661E+02 -0.54134548383E+03  0.55397973239E+03  0.00000000000E+00 0. -1.
<scales pt_clust_3="32.98747" pt_clust_4="68.42607" pt_clust_5="14000.00000" pt_clust_6="84.86273"></scales>
<clustering>
<clus scale="   32.987">  1  3  2 -1</clus>
<clus scale="   68.426">  2  4  1 -1</clus>
<clus scale="   84.863">  2  6  1 -1</clus>
<clus scale="   32.987">  1  3  2 -1</clus>
</clustering>
</event>
<event>
 6    0  0.1849053E+002  0.1453881E+03  0.7546771E-02  0.1206257E+00
         21   -1    0    0  504  502  0.00000000000E+00  0.00000000000E+00  0.10433270603E+04  0.10433270603E+04  0.00000000000E+00 0.  1.
          1   -1    0    0  503    0 -0.00000000000E+00 -0.00000000000E+00 -0.58979772303E+03  0.58979772303E+03  0.00000000000E+00 0. -1.
         21    1    1    2  503  505  0.65798120159E+02 -0.60527967880E+02 -0.42569825272E+03  0.43498509156E+03  0.00000000000E+00 0. -1.
         21    1    1    2  504  501  0.97993923747E+02  0.78592708103E+02  0.93509372924E+03  0.94349345802E+03  0.00000000000E+00 0.  1.
         21    1    1    2  505  502  0.29099683393E+02 -0.97360195109E+01  0.30386208808E+02  0.43184526572E+02  0.00000000000E+00 0. -1.
          1    1    1    2  501    0 -0.19289172730E+03 -0.83287207123E+01 -0.86252348075E+02  0.21146170717E+03  0.00000000000E+00 0. -1.
<scales pt_clust_3="89.53296" pt_clust_4="14000.00000" pt_clust_5="30.68520" pt_clust_6="145.38811"></scales>
<clustering>
<clus scale="   30.685">  1  5  2 -1</clus>
<clus scale="   89.533">  2  3  1 -1</clus>
<clus scale="  145.388">  2  6  1 -1</clus>
<clus scale="   30.685">  1  3  2 -1</clus>
</clustering>
</event>
<event>
 6    0  0.1849053E+002  0.1375439E+03  0.7546771E-02  0.1216673E+00
          2   -1    0    0  505    0 -0.00000000000E+00  0.00000000000E+00  0.23853102406E+04  0.23853102406E+04  0.00000000000E+00 0. -1.
         21   -1    0    0  503  502  0.00000000000E+00 -0.00000000000E+00 -0.42515197783E+03  0.42515197783E+03  0.00000000000E+00 0.  1.
         21    1    1    2  503  501  0.25898657249E+02 -0.18573508035E+02  0.11280231710E+02  0.33807680717E+02  0.00000000000E+00 0. -1.
         21    1    1    2  504  502  0.31025139125E+02 -0.33394651475E+02 -0.40362425440E+03  0.40618998110E+03  0.00000000000E+00 0.  1.
         21    1    1    2  505  504  0.95871901198E+02 -0.13445711999E+02  0.42866891007E+03  0.43946472335E+03  0.00000000000E+00 0. -1.
          2    1    1    2  501    0 -0.15279569757E+03  0.65413871509E+02  0.19238333754E+04  0.19309998333E+04  0.00000000000E+00 0. -1.
<scales pt_clust_3="31.87029" pt_clust_4="76.39120" pt_clust_5="137.54388" pt_clust_6="14000.00000"></scales>
<clustering>
<clus scale="   31.870">  2  3  1 -1</clus>
<clus scale="   76.391">  2  4  1 -1</clus>
<clus scale="  137.544">  2  5  1 -1</clus>
<clus scale="   31.870">  2  3  1 -1</clus>
</clustering>
</event>
<event>
 6    0  0.1849053E+002  0.8663962E+02  0.7546771E-02  0.1311200E+00
          1   -1    0    0  503    0 -0.00000000000E+00  0.00000000000E+00  0.14837324605E+04  0.14837324605E+04  0.00000000000E+00 0. -1.
         21   -1    0    0  501  502  0.00000000000E+00 -0.00000000000E+00 -0.77850245246E+02  0.77850245246E+02  0.00000000000E+00 0. -1.
         21    1    1    2  503  504  0.88823567903E+01  0.74156698943E+02  0.42803077646E+03  0.43449793769E+03  0.00000000000E+00 0. -1.
         21    1    1    2  504  505 -0.15654362119E+02  0.59011971497E+02  0.22307543657E+03  0.23127931649E+03  0.00000000000E+00 0. -1.
         21    1    1    2  505  502  0.38907553589E+02 -0.65197159333E+02 -0.47798388919E+02  0.89717073596E+02  0.00000000000E+00 0. -1.
          1    1    1    2  501    0 -0.32135548260E+02 -0.67971511108E+02  0.80257439119E+03  0.80608837802E+03  0.00000000000E+00 0. -1.
<scales pt_clust_3="35.48411" pt_clust_4="35.48411" pt_clust_5="77.24071" pt_clust_6="75.18524"></scales>
<clustering>
<clus scale="   35.484">  3  4 -1 -1</clus>
<clus scale="   75.185">  1  6  2 -1</clus>
<clus scale="   77.241">  2  5  1 -1</clus>
<clus scale="   77.241">  2  3  1 -1</clus>
</clustering>
</event>
<event>
 6    0  0.1849053E+002  0.3083789E+03  0.7546771E-02  0.1081126E+00
          2   -1    0    0  505    0 -0.00000000000E+00  0.00000000000E+00  0.37868796600E+03  0.37868796600E+03  0.00000000000E+00 0.  1.
         21   -1    0    0  504  502  0.00000000000E+00 -0.00000000000E+00 -0.31918278075E+03  0.31918278075E+03  0.00000000000E+00 0.  1.
         21    1    1    2  503  502 -0.57111567233E+02 -0.86386737586E+00 -0.44670834083E+02  0.72511797636E+02  0.00000000000E+00 0.  1.
         21    1    1    2  504  501  0.17189844896E+03 -0.15933608852E+03  0.90977041415E+02  0.25142372188E+03  0.00000000000E+00 0.  1.
         21    1    1    2  505  503 -0.20424830330E+03  0.18642743963E+03 -0.13790298202E+02  0.27688035678E+03  0.00000000000E+00 0.  1.
          2    1    1    2  501    0  0.89461421569E+02 -0.26227483737E+02  0.26989276121E+02  0.97054870449E+02  0.00000000000E+00 0.  1.
<scales pt_clust_3="57.11810" pt_clust_4="43.59611" pt_clust_5="300.53133" pt_clust_6="43.59611"></scales>
<clustering>
<clus scale="   43.596">  4  6 -1 -1</clus>
<clus scale="   57.118">  2  3  1 -1</clus>
<clus scale="  300.531">  2  5  1 -1</clus>
<clus scale="   57.118">  2  3  1 -1</clus>
</clustering>
</event>
<event>
 6    0  0.1849053E+002  0.1768409E+03  0.7546771E-02  0.1170896E+00
          1   -1    0    0  504    0 -0.00000000000E+00  0.00000000000E+00  0.22456648428E+04  0.22456648428E+04  0.00000000000E+00 0.  1.
         21   -1    0    0  505  502  0.00000000000E+00 -0.00000000000E+00 -0.22255949122E+02  0.22255949122E+02  0.00000000000E+00 0.  1.
         21    1    1    2  503  502  0.42513249786E+02 -0.64610844613E+02  0.15983834525E+03  0.17756754845E+03  0.00000000000E+00 0.  1.
         21    1    1    2  504  503  0.77090665237E+02 -0.58420245813E+02  0.24807156988E+03  0.26626190033E+03  0.00000000000E+00 0.  1.
         21    1    1    2  505  501 -0.55253574435E+02  0.31538498053E+02  0.77080817888E+03  0.77342930057E+03  0.00000000000E+00 0. -1.
          1    1    1    2  501    0 -0.64350340589E+02  0.91492592374E+02  0.10446907997E+04  0.10506620426E+04  0.00000000000E+00 0.  1.
<scales pt_clust_3="30.35488" pt_clust_4="174.91164" pt_clust_5="32.27060" pt_clust_6="32.27060"></scales>
<clustering>
<clus scale="   30.355">  3  4 -1 -1</clus>
<clus scale="   32.271">  5  6 -1 -1</clus>
<clus scale="  174.912">  2  3  1 -1</clus>
<clus scale="  174.912">  2  3  1 -1</clus>
</clustering>
</event>
<event>
 6    0  0.1849053E+002  0.1018376E+03  0.7546771E-02  0.1276478E+00
         21   -1    0    0  504  502  0.00000000000E+00  0.00000000000E+00  0.47629795545E+03  0.47629795545E+03  0.00000000000E+00 0. -1.
         -2   -1    0    0    0  501 -0.00000000000E+00 -0.00000000000E+00 -0.48780082212E+03  0.48780082212E+03  0.00000000000E+00 0. -1.
         21    1    1    2  503  502  0.93853145227E+01  0.36112110210E+02  0.26223829297E+03  0.26487938941E+03  0.00000000000E+00 0. -1.
         21    1    1    2  504  505  0.41036708633E+02  0.54042461450E+02  0.18730313678E+03  0.19921612420E+03  0.00000000000E+00 0. -1.
         21    1    1    2  505  501  0.12554373199E+02  0.43556497128E+02 -0.95592576154E+02  0.10579565844E+03  0.00000000000E+00 0. -1.
         -2    1    1    2    0  503 -0.62976396354E+02 -0.13371106879E+03 -0.36545172026E+03  0.39420760552E+03  0.00000000000E+00 0. -1.
<scales pt_clust_3="37.31178" pt_clust_4="101.83763" pt_clust_5="46.22413" pt_clust_6="14000.00000"></scales>
<clustering>
<clus scale="   37.312">  1  3  2 -1</clus>
<clus scale="   46.224">  2  5  1 -1</clus>
<clus scale="  101.838">  1  4  2 -1</clus>
<clus scale="   37.312">  1  3  2 -1</clus>
</clustering>
</event>
<event>
 6    0  0.1849053E+002  0.9376279E+02  0.7546771E-02  0.1293987E+00
         21   -1    0    0  505  502  0.00000000000E+00  0.00000000000E+00  0.21100272877E+03  0.21100272877E+03  0.00000000000E+00 0. -1.
          2   -1    0    0  504    0 -0.00000000000E+00 -0.00000000000E+00 -0.68488108271E+03  0.68488108271E+03  0.00000000000E+00 0. -1.
         21    1    1    2  503  502 -0.38255419718E+02  0.22896095184E+02  0.20850674384E+02  0.49218481638E+02  0.00000000000E+00 0. -1.
         21    1    1    2  504  503  0.16036258104E+02  0.63138541837E+02 -0.38279077791E+03  0.38829423984E+03  0.00000000000E+00 0. -1.
         21    1    1    2  505  501 -0.24703392017E+02  0.48156505702E+02  0.15048216163E+03  0.15991931587E+03  0.00000000000E+00 0. -1.
          2    1    1    2  501    0  0.46922553631E+02 -0.13419114272E+03 -0.26242041205E+03  0.29845177413E+03  0.00000000000E+00 0. -1.
<scales pt_clust_3="44.58372" pt_clust_4="65.34638" pt_clust_5="14000.00000" pt_clust_6="93.76279"></scales>
<clustering>
<clus scale="   44.584">  1  3  2 -1</clus>
<clus scale="   65.346">  2  4  1 -1</clus>
<clus scale="   93.763">  2  6  1 -1</clus>
<clus scale="   44.584">  1  3  2 -1</clus>
</clustering>
</event>
<event>
 6    0  0.1849053E+002  0.3385550E+03  0.7546771E-02  0.1067413E+00
         21   -1    0    0  503  502  0.00000000000E+00  0.00000000000E+00  0.71988045869E+02  0.71988045869E+02  0.00000000000E+00 0.  1.
          2   -1    0    0  505    0 -0.00000000000E+00 -0.00000000000E+00 -0.28273489859E+04  0.28273489859E+04  0.00000000000E+00 0.  1.
         21    1    1    2  503  501  0.11943607456E+01  0.73087340827E+02 -0.11888545237E+03  0.13955979604E+03  0.00000000000E+00 0.  1.
         21    1    1    2  504  502 -0.12260727799E+03 -0.24185865034E+03 -0.17264522140E+04  0.17476170630E+04  0.00000000000E+00 0.  1.
         21    1    1    2  505  504 -0.14478429402E+02 -0.56465805292E+02 -0.61150269393E+03  0.61427482186E+03  0.00000000000E+00 0.  1.
          2    1    1    2  501    0  0.13589134665E+03  0.22523711481E+03 -0.29852057973E+03  0.39788535095E+03  0.00000000000E+00 0.  1.
<scales pt_clust_3="43.56336" pt_clust_4="335.41038" pt_clust_5="31.82074" pt_clust_6="43.56336"></scales>
<clustering>
<clus scale="   31.821">  4  5 -1 -1</clus>
<clus scale="   43.563">  3  6 -1 -1</clus>
<clus scale="  335.410">  2  4  1 -1</clus>
<clus scale="  338.555">  1  3  2 -1</clus>
</clustering>
</event>
<event>
 6    0  0.1849053E+002  0.1062963E+03  0.7546771E-02  0.1267586E+00
          2   -1    0    0  503    0 -0.00000000000E+00  0.00000000000E+00  0.30880131709E+04  0.30880131709E+04  0.00000000000E+00 0. -1.
         21   -1    0    0  505  502  0.00000000000E+00 -0.00000000000E+00 -0.47944108943E+03  0.47944108943E+03  0.00000000000E+00 0.  1.
         21    1    1    2  503  504 -0.41521390266E+01  0.49604539718E+02  0.32059023459E+03  0.32443173262E+03  0.00000000000E+00 0.  1.
         21    1    1    2  504  502  0.46628657316E+02  0.53806810069E+01 -0.36116273216E+03  0.36420008582E+03  0.00000000000E+00 0.  1.
         21    1    1    2  505  501  0.33302194650E+02 -0.77052969875E+02 -0.98856967252E+02  0.12968768758E+03  0.00000000000E+00 0. -1.
          2    1    1    2  501    0 -0.75778712940E+02  0.22067749150E+02  0.27480015463E+04  0.27491347543E+04  0.00000000000E+00 0. -1.
<scales pt_clust_3="49.80822" pt_clust_4="46.93808" pt_clust_5="106.29627" pt_clust_6="14000.00000"></scales>
<clustering>
<clus scale="   46.938">  2  4  1 -1</clus>
<clus scale="   49.808">  1  3  2 -1</clus>
<clus scale="  106.296">  2  5  1 -1</clus>
<clus scale="   46.938">  2  3  1 -1</clus>
</clustering>
</event>
<event>
 6    0  0.1849053E+002  0.1136823E+03  0.7546771E-02  0.1253899E+00
          2   -1    0    0  503    0 -0.00000000000E+00  0.00000000000E+00  0.34417318582E+03  0.34417318582E+03  0.00000000000E+00 0. -1.
         21   -1    0    0  505  502  0.00000000000E+00 -0.00000000000E+00 -0.34255762283E+03  0.34255762283E+03  0.00000000000E+00 0. -1.
         21    1    1    2  503  502 -0.30742521423E+02  0.20681758507E+01  0.16303482744E+02  0.34859482560E+02  0.00000000000E+00 0.  1.
         21    1    1    2  504  501  0.86971298796E+02 -0.17699118361E+02 -0.11523440108E+03  0.14545182294E+03  0.00000000000E+00 0. -1.
         21    1    1    2  505  504  0.19326362771E+02 -0.38078906580E+02 -0.19347461426E+03  0.19813111262E+03  0.00000000000E+00 0. -1.
          2    1    1    2  501    0 -0.75555140145E+02  0.53709849091E+02  0.29402109558E+03  0.30828839054E+03  0.00000000000E+00 0. -1.
<scales pt_clust_3="30.81201" pt_clust_4="14000.00000" pt_clust_5="42.58788" pt_clust_6="113.68226"></scales>
<clustering>
<clus scale="   30.812">  1  3  2 -1</clus>
<clus scale="   42.588">  2  5  1 -1</clus>
<clus scale="  113.682">  1  6  2 -1</clus>
<clus scale="   42.588">  2  3  1 -1</clus>
</clustering>
</event>
<event>
 6    0  0.1849053E+002  0.1880800E+03  0.7546771E-02  0.1160205E+00
          2   -1    0    0  505    0 -0.00000000000E+00  0.00000000000E+00  0.23805708434E+04  0.23805708434E+04  0.00000000000E+00 0. -1.
         21   -1    0    0  503  502  0.00000000000E+00 -0.00000000000E+00 -0.38652906094E+02  0.38652906094E+02  0.00000000000E+00 0.  1.
         21    1    1    2  503  504  0.17207537977E+02  0.35500479159E+02  0.73921951175E+02  0.83790442470E+02  0.00000000000E+00 0. -1.
         21    1    1    2  504  501  0.28169841138E+02 -0.73725898351E+02  0.66479862046E+03  0.66946714169E+03  0.00000000000E+00 0. -1.
         21    1    1    2  505  502 -0.89051882788E+02  0.13725349809E+03  0.19908635778E+03  0.25769000450E+03  0.00000000000E+00 0.  1.
          2    1    1    2  501    0  0.43674503673E+02 -0.99028078901E+02  0.14041110079E+04  0.14082761608E+04  0.00000000000E+00 0. -1.
<scales pt_clust_3="39.45103" pt_clust_4="34.41967" pt_clust_5="183.71020" pt_clust_6="34.41967"></scales>
<clustering>
<clus scale="   34.420">  4  6 -1 -1</clus>
<clus scale="   39.451">  2  3  1 -1</clus>
<clus scale="  183.710">  2  5  1 -1</clus>
<clus scale="   39.451">  2  3  1 -1</clus>
</clustering>
</event>
<event>
 6    0  0.1849053E+002  0.1299899E+03  0.7546771E-02  0.1227471E+00
          1   -1    0    0  505    0 -0.00000000000E+00  0.00000000000E+00  0.60357559271E+03  0.60357559271E+03  0.00000000000E+00 0.  1.
         21   -1    0    0  504  502  0.00000000000E+00 -0.00000000000E+00 -0.57015181546E+03  0.57015181546E+03  0.00000000000E+00 0. -1.
         21    1    1    2  503  501 -0.29089082736E+02 -0.72247160895E+02 -0.25129517234E+03  0.26308761019E+03  0.00000000000E+00 0. -1.
         21    1    1    2  504  503 -0.18504194328E+02 -0.41037674517E+02 -0.30358499450E+03  0.30690445553E+03  0.00000000000E+00 0. -1.
         21    1    1    2  505  502  0.25830459398E+02  0.20158266198E+02  0.78918257435E+02  0.85449749476E+02  0.00000000000E+00 0.  1.
          1    1    1    2  501    0  0.21762817666E+02  0.93126569214E+02  0.50938568665E+03  0.51828559298E+03  0.00000000000E+00 0.  1.
<scales pt_clust_3="33.17674" pt_clust_4="33.17674" pt_clust_5="32.76535" pt_clust_6="122.46216"></scales>
<clustering>
<clus scale="   32.765">  1  5  2 -1</clus>
<clus scale="   33.177">  3  4 -1 -1</clus>
<clus scale="  122.462">  1  6  2 -1</clus>
<clus scale="  129.990">  2  3  1 -1</clus>
</clustering>
</event>
<event>
 6    0  0.1849053E+002  0.2136395E+03  0.7546771E-02  0.1138716E+00
          2   -1    0    0  504    0 -0.00000000000E+00  0.00000000000E+00  0.76979039707E+03  0.76979039707E+03  0.00000000000E+00 0.  1.
         21   -1    0    0  503  502  0.00000000000E+00 -0.00000000000E+00 -0.67537117545E+03  0.67537117545E+03  0.00000000000E+00 0.  1.
         21    1    1    2  503  501 -0.45181532819E+02 -0.14449645686E+02 -0.43195995310E+03  0.43455674457E+03  0.00000000000E+00 0.  1.
         21    1    1    2  504  505 -0.11449918006E+02 -0.40978787048E+02  0.22123690276E+03  0.22529120878E+03  0.00000000000E+00 0. -1.
         21    1    1    2  505  502  0.25187889332E+03  0.58466892020E+02 -0.14370817108E+03  0.29582662625E+03  0.00000000000E+00 0.  1.
          2    1    1    2  501    0 -0.19524744249E+03 -0.30384592859E+01  0.44885044303E+03  0.48948699292E+03  0.00000000000E+00 0.  1.
<scales pt_clust_3="47.49152" pt_clust_4="42.54834" pt_clust_5="213.63946" pt_clust_6="14000.00000"></scales>
<clustering>
<clus scale="   42.548">  1  4  2 -1</clus>
<clus scale="   47.492">  2  3  1 -1</clus>
<clus scale="  213.639">  2  5  1 -1</clus>
<clus scale="   47.492">  2  3  1 -1</clus>
</clustering>
</event>
<event>
 6    0  0.1849053E+002  0.2393804E+03  0.7546771E-02  0.1120206E+00
         -1   -1    0    0    0  501 -0.00000000000E+00  0.00000000000E+00  0.30029602345E+03  0.30029602345E+03  0.00000000000E+00 0.  1.
         21   -1    0    0  503  502  0.00000000000E+00 -0.00000000000E+00 -0.58584817944E+03  0.58584817944E+03  0.00000000000E+00 0. -1.
         21    1    1    2  503  504 -0.63431916701E+02  0.11035340307E+02 -0.13922078510E+03  0.15338778894E+03  0.00000000000E+00 0. -1.
         21    1    1    2  504  505 -0.14158096049E+03  0.10261759304E+03 -0.31668651538E+03  0.36175390503E+03  0.00000000000E+00 0. -1.
         21    1    1    2  505  501  0.20324586532E+02  0.30187324692E+02  0.12804507972E+03  0.13311613663E+03  0.00000000000E+00 0.  1.
         -1    1    1    2    0  502  0.18468829066E+03 -0.14384025804E+03  0.42310064785E+02  0.23788637229E+03  0.00000000000E+00 0.  1.
<scales pt_clust_3="30.77532" pt_clust_4="30.77532" pt_clust_5="36.39180" pt_clust_6="233.94604"></scales>
<clustering>
<clus scale="   30.775">  3  4 -1 -1</clus>
<clus scale="   36.392">  1  5  2 -1</clus>
<clus scale="  233.946">  1  6  2 -1</clus>
<clus scale="  239.380">  2  3  1 -1</clus>
</clustering>
</event>
<event>
 6    0  0.1849053E+002  0.8765523E+02  0.7546771E-02  0.1308631E+00
         21   -1    0    0  504  502  0.00000000000E+00  0.00000000000E+00  0.20541449297E+03  0.20541449297E+03  0.00000000000E+00 0. -1.
          1   -1    0    0  503    0 -0.00000000000E+00 -0.00000000000E+00 -0.12335809176E+04  0.12335809176E+04  0.00000000000E+00 0.  1.
         21    1    1    2  503  502 -0.36571222675E+02 -0.24769995013E+02  0.14288866231E+03  0.14955994383E+03  0.00000000000E+00 0. -1.
         21    1    1    2  504  505  0.63555055912E+02 -0.48147644794E+01  0.17291249497E+02  0.66041005430E+02  0.00000000000E+00 0. -1.
         21    1    1    2  505  501 -0.65765976815E+02 -0.50643178906E+02 -0.93906231379E+02  0.12533265962E+03  0.00000000000E+00 0. -1.
          1    1    1    2  501    0  0.38782143578E+02  0.80227938398E+02 -0.10944401050E+04  0.10980618017E+04  0.00000000000E+00 0.  1.
<scales pt_clust_3="44.17020" pt_clust_4="43.87264" pt_clust_5="14000.00000" pt_clust_6="87.65523"></scales>
<clustering>
<clus scale="   44.170">  1  3  2 -1</clus>
<clus scale="   43.873">  1  4  2 -1</clus>
<clus scale="   87.655">  2  6  1 -1</clus>
<clus scale="   44.170">  1  3  2 -1</clus>
</clustering>
</event>
<event>
 6    0  0.1849053E+002  0.8794818E+02  0.7546771E-02  0.1307898E+00
          2   -1    0    0  504    0 -0.00000000000E+00  0.00000000000E+00  0.19548900261E+04  0.19548900261E+04  0.00000000000E+00 0. -1.
         21   -1    0    0  505  502  0.00000000000E+00 -0.00000000000E+00 -0.10065662103E+03  0.10065662103E+03  0.00000000000E+00 0.  1.
         21    1    1    2  503  501  0.19333513479E+02 -0.79996553455E+02  0.51448489268E+02  0.97057613591E+02  0.00000000000E+00 0.  1.
         21    1    1    2  504  502  0.42637648324E+02  0.32235509777E+02  0.66523663435E+02  0.85337535364E+02  0.00000000000E+00 0. -1.
         21    1    1    2  505  503 -0.54046937746E+01  0.80637712607E+02 -0.43775528299E+02  0.91912721030E+02  0.00000000000E+00 0.  1.
          2    1    1    2  501    0 -0.56566468028E+02 -0.32876668930E+02  0.17800367807E+04  0.17812387771E+04  0.00000000000E+00 0. -1.
<scales pt_clust_3="87.94818" pt_clust_4="53.45182" pt_clust_5="14000.00000" pt_clust_6="65.07714"></scales>
<clustering>
<clus scale="   53.452">  2  4  1 -1</clus>
<clus scale="   65.077">  1  6  2 -1</clus>
<clus scale="   87.948">  1  3  2 -1</clus>
<clus scale="   53.452">  2  3  1 -1</clus>
</clustering>
</event>
<event>
 6    0  0.1849053E+002  0.1081525E+03  0.7546771E-02  0.1264030E+00
          2   -1    0    0  503    0 -0.00000000000E+00  0.00000000000E+00  0.20359293049E+04  0.20359293049E+04  0.00000000000E+00 0. -1.
         21   -1    0    0  504  502  0.00000000000E+00 -0.00000000000E+00 -0.65789639062E+03  0.65789639062E+03  0.00000000000E+00 0.  1.
         21    1    1    2  503  505  0.36055730526E+02  0.54328970226E+02 -0.17524483349E+03  0.18698236380E+03  0.00000000000E+00 0.  1.
         21    1    1    2  504  501  0.11207697474E+02 -0.93910093239E+02  0.17424851865E+03  0.19826059706E+03  0.00000000000E+00 0.  1.
         21    1    1    2  505  502  0.20311358331E+02  0.46513149130E+02 -0.46276312485E+03  0.46553811234E+03  0.00000000000E+00 0.  1.
          2    1    1    2  501    0 -0.67574786331E+02 -0.69320261167E+01  0.18417923539E+04  0.18430446223E+04  0.00000000000E+00 0. -1.
<scales pt_clust_3="108.15246" pt_clust_4="14000.00000" pt_clust_5="50.75455" pt_clust_6="67.84892"></scales>
<clustering>
<clus scale="   50.755">  2  5  1 -1</clus>
<clus scale="   67.849">  1  6  2 -1</clus>
<clus scale="  108.152">  2  3  1 -1</clus>
<clus scale="   50.755">  2  3  1 -1</clus>
</clustering>
</event>
<event>
 6    0  0.1849053E+002  0.7009007E+02  0.7546771E-02  0.1359787E+00
          2   -1    0    0  503    0 -0.00000000000E+00  0.00000000000E+00  0.85143676429E+03  0.85143676429E+03  0.00000000000E+00 0.  1.
         21   -1    0    0  504  502  0.00000000000E+00 -0.00000000000E+00 -0.62421423650E+02  0.62421423650E+02  0.00000000000E+00 0.  1.
         21    1    1    2  503  502  0.33691822873E+02 -0.52019236702E+02  0.24048391275E+03  0.24834180520E+03  0.00000000000E+00 0.  1.
         21    1    1    2  504  505  0.64130508185E+02  0.23645511989E+01 -0.12411410195E+02  0.65363264036E+02  0.00000000000E+00 0.  1.
         21    1    1    2  505  501 -0.10404092600E+03 -0.57585191113E+01  0.13480285086E+03  0.17038040799E+03  0.00000000000E+00 0.  1.
          2    1    1    2  501    0  0.62185949479E+01  0.55413204614E+02  0.42613998722E+03  0.42977271072E+03  0.00000000000E+00 0.  1.
<scales pt_clust_3="42.32448" pt_clust_4="70.09007" pt_clust_5="14000.00000" pt_clust_6="55.76105"></scales>
<clustering>
<clus scale="   55.761">  1  6  2 -1</clus>
<clus scale="   42.324">  1  3  2 -1</clus>
<clus scale="   70.090">  2  4  1 -1</clus>
<clus scale="   70.090">  2  3  1 -1</clus>
</clustering>
</event>
<event>
 6    0  0.1849053E+002  0.8546752E+02  0.7546771E-02  0.1314214E+00
         21   -1    0    0  504  502  0.00000000000E+00  0.00000000000E+00  0.18190600200E+02  0.18190600200E+02  0.00000000000E+00 0. -1.
          2   -1    0    0  503    0 -0.00000000000E+00 -0.00000000000E+00 -0.31476814498E+04  0.31476814498E+04  0.00000000000E+00 0.  1.
         21    1    1    2  503  502 -0.10804242915E+03  0.20091700131E+02 -0.39203810573E+03  0.40714950480E+03  0.00000000000E+00 0. -1.
         21    1    1    2  504  505 -0.24556284293E+02 -0.29589566058E+02 -0.41486019914E+02  0.56565390179E+02  0.00000000000E+00 0. -1.
         21    1    1    2  505  501  0.49287978941E+02  0.53244803498E+01 -0.25548793415E+03  0.26025322180E+03  0.00000000000E+00 0. -1.
          2    1    1    2  501    0  0.83310734501E+02  0.41733855771E+01 -0.24404787898E+04  0.24419039332E+04  0.00000000000E+00 0.  1.
<scales pt_clust_3="85.46752" pt_clust_4="38.45196" pt_clust_5="43.81380" pt_clust_6="14000.00000"></scales>
<clustering>
<clus scale="   38.452">  1  4  2 -1</clus>
<clus scale="   43.814">  1  5  2 -1</clus>
<clus scale="   85.468">  1  3  2 -1</clus>
<clus scale="   38.452">  1  3  2 -1</clus>
</clustering>
</event>
<event>
 6    0  0.1849053E+002  0.7377350E+02  0.7546771E-02  0.1347712E+00
          2   -1    0    0  504    0 -0.00000000000E+00  0.00000000000E+00  0.12092295634E+04  0.12092295634E+04  0.00000000000E+00 0.  1.
         21   -1    0    0  505  502  0.00000000000E+00 -0.00000000000E+00 -0.15430876165E+03  0.15430876165E+03  0.00000000000E+00 0.  1.
         21    1    1    2  503  501 -0.62094386199E+02 -0.21119405275E+02  0.17601386299E+02  0.67908400631E+02  0.00000000000E+00 0. -1.
         21    1    1    2  504  502  0.57149545604E+02 -0.24447282609E+02  0.13297993217E+03  0.14679033534E+03  0.00000000000E+00 0.  1.
         21    1    1    2  505  503  0.61107157413E+02 -0.69386110196E+01 -0.11297202276E+03  0.12862700703E+03  0.00000000000E+00 0.  1.
          2    1    1    2  501    0 -0.56162316819E+02  0.52505298903E+02  0.10173115061E+04  0.10202125821E+04  0.00000000000E+00 0.  1.
<scales pt_clust_3="30.92563" pt_clust_4="73.77350" pt_clust_5="61.49983" pt_clust_6="14000.00000"></scales>
<clustering>
<clus scale="   61.500">  2  5  1 -1</clus>
<clus scale="   30.926">  2  3  1 -1</clus>
<clus scale="   73.774">  2  4  1 -1</clus>
<clus scale="   61.500">  2  3  1 -1</clus>
</clustering>
</event>
<event>
 6    0  0.1849053E+002  0.9091204E+02  0.7546771E-02  0.1300658E+00
         21   -1    0    0  501  502  0.00000000000E+00  0.00000000000E+00  0.11994440120E+03  0.11994440120E+03  0.00000000000E+00 0. -1.
          1   -1    0    0  504    0 -0.00000000000E+00 -0.00000000000E+00 -0.44663687691E+03  0.44663687691E+03  0.00000000000E+00 0. -1.
         21    1    1    2  503  505 -0.25088694157E+02 -0.75656006591E+02 -0.29303814311E+02  0.84923421039E+02  0.00000000000E+00 0. -1.
         21    1    1    2  504  503  0.36322993749E+02  0.63057694858E+02 -0.13977534433E+03  0.15758419857E+03  0.00000000000E+00 0. -1.
         21    1    1    2  505  502  0.47157562733E+02 -0.75434598785E+02  0.41887918681E+02  0.98330118215E+02  0.00000000000E+00 0. -1.
          1    1    1    2  501    0 -0.58391862324E+02  0.88032910518E+02 -0.19950123575E+03  0.22574354029E+03  0.00000000000E+00 0. -1.
<scales pt_clust_3="66.10262" pt_clust_4="72.77110" pt_clust_5="90.91204" pt_clust_6="14000.00000"></scales>
<clustering>
<clus scale="   72.771">  2  4  1 -1</clus>
<clus scale="   66.103">  2  3  1 -1</clus>
<clus scale="   90.912">  1  5  2 -1</clus>
<clus scale="   90.912">  1  3  2 -1</clus>
</clustering>
</event>
<event>
 6    0  0.1849053E+002  0.7915805E+02  0.7546771E-02  0.1331458E+00
         21   -1    0    0  504  502  0.00000000000E+00  0.00000000000E+00  0.57227487739E+02  0.57227487739E+02  0.00000000000E+00 0.  1.
          2   -1    0    0  505    0 -0.00000000000E+00 -0.00000000000E+00 -0.44375551633E+04  0.44375551633E+04  0.00000000000E+00 0.  1.
         21    1    1    2  503  502  0.61864095309E+02  0.37154588094E+02 -0.95489299690E+02  0.11969058468E+03  0.00000000000E+00 0. -1.
         21    1    1    2  504  501 -0.28746458311E+02  0.37100611050E+02  0.31119381491E+02  0.56313676049E+02  0.00000000000E+00 0.  1.
         21    1    1    2  505  503 -0.48476196747E+02  0.23594753795E+02 -0.11362540799E+04  0.11375324119E+04  0.00000000000E+00 0.  1.
          2    1    1    2  501    0  0.15358559749E+02 -0.97849952939E+02 -0.31797036775E+04  0.31812459784E+04  0.00000000000E+00 0.  1.
<scales pt_clust_3="14000.00000" pt_clust_4="46.93415" pt_clust_5="55.91292" pt_clust_6="79.15805"></scales>
<clustering>
<clus scale="   46.934">  1  4  2 -1</clus>
<clus scale="   55.913">  2  5  1 -1</clus>
<clus scale="   79.158">  2  6  1 -1</clus>
<clus scale="   46.934">  1  3  2 -1</clus>
</clustering>
</event>
<event>
 6    0  0.1849053E+002  0.1963918E+03  0.7546771E-02  0.1152819E+00
         21   -1    0    0  503  502  0.00000000000E+00  0.00000000000E+00  0.16285419290E+03  0.16285419290E+03  0.00000000000E+00 0. -1.
          1   -1    0    0  505    0 -0.00000000000E+00 -0.00000000000E+00 -0.96012504108E+03  0.96012504108E+03  0.00000000000E+00 0.  1.
         21    1    1    2  503  504  0.11821708707E+03 -0.30272978001E+02  0.67648018666E+02  0.13952772951E+03  0.00000000000E+00 0. -1.
         21    1    1    2  504  501  0.62409598592E+02  0.18889651923E+02  0.15898904989E+01  0.65225031222E+02  0.00000000000E+00 0.  1.
         21    1    1    2  505  502  0.40327559220E+02  0.57237019496E+02 -0.30786474180E+03  0.31572628601E+03  0.00000000000E+00 0.  1.
          1    1    1    2  501    0 -0.22095424488E+03 -0.45853693419E+02 -0.55864401554E+03  0.60250018724E+03  0.00000000000E+00 0.  1.
<scales pt_clust_3="48.34559" pt_clust_4="48.34559" pt_clust_5="70.01706" pt_clust_6="184.92025"></scales>
<clustering>
<clus scale="   48.346">  3  4 -1 -1</clus>
<clus scale="   70.017">  2  5  1 -1</clus>
<clus scale="  184.920">  2  6  1 -1</clus>
<clus scale="  196.392">  1  3  2 -1</clus>
</clustering>
</event>
<event>
 6    0  0.1849053E+002  0.1361488E+03  0.7546771E-02  0.1218607E+00
         21   -1    0    0  504  502  0.00000000000E+00  0.00000000000E+00  0.45259212887E+03  0.45259212887E+03  0.00000000000E+00 0. -1.
         -2   -1    0    0    0  501 -0.00000000000E+00 -0.00000000000E+00 -0.12865128918E+04  0.12865128918E+04  0.00000000000E+00 0. -1.
         21    1    1    2  503  502  0.11300704717E+02 -0.14130089768E+03  0.30064168695E+03  0.33238392492E+03  0.00000000000E+00 0. -1.
         21    1    1    2  504  505  0.36025532383E+02  0.12496071475E+02  0.10469810576E+03  0.11142568885E+03  0.00000000000E+00 0.  1.
         21    1    1    2  505  501 -0.97526430935E+02  0.36884280360E+02 -0.80282472891E+02  0.13159456798E+03  0.00000000000E+00 0. -1.
         -2    1    1    2    0  503  0.50200193835E+02  0.91920545844E+02 -0.11589780828E+04  0.11637008390E+04  0.00000000000E+00 0. -1.
<scales pt_clust_3="136.14883" pt_clust_4="38.13123" pt_clust_5="102.10433" pt_clust_6="14000.00000"></scales>
<clustering>
<clus scale="   38.131">  1  4  2 -1</clus>
<clus scale="  102.104">  2  5  1 -1</clus>
<clus scale="  136.149">  1  3  2 -1</clus>
<clus scale="   38.131">  1  3  2 -1</clus>
</clustering>
</event>
<event>
 6    0  0.1849053E+002  0.1242441E+03  0.7546771E-02  0.1236255E+00
         -4   -1    0    0    0  501 -0.00000000000E+00  0.00000000000E+00  0.10524165022E+03  0.10524165022E+03  0.00000000000E+00 0.  1.
         21   -1    0    0  503  502  0.00000000000E+00 -0.00000000000E+00 -0.39341601431E+03  0.39341601431E+03  0.00000000000E+00 0.  1.
         21    1    1    2  503  504 -0.72607510787E+02 -0.43823056444E+00 -0.18372134052E+03  0.19754891453E+03  0.00000000000E+00 0.  1.
         21    1    1    2  504  505 -0.43202589843E+02  0.26990447514E+02 -0.10358195672E+03  0.11543036769E+03  0.00000000000E+00 0.  1.
         21    1    1    2  505  501 -0.99218341275E+01 -0.45817188734E+02 -0.29378048779E+02  0.55323840484E+02  0.00000000000E+00 0.  1.
         -4    1    1    2    0  502  0.12573193476E+03  0.19264971784E+02  0.28506981939E+02  0.13035454183E+03  0.00000000000E+00 0.  1.
<scales pt_clust_3="30.15187" pt_clust_4="30.15187" pt_clust_5="46.87918" pt_clust_6="118.91493"></scales>
<clustering>
<clus scale="   30.152">  3  4 -1 -1</clus>
<clus scale="   46.879">  1  5  2 -1</clus>
<clus scale="  118.915">  1  6  2 -1</clus>
<clus scale="  124.244">  2  3  1 -1</clus>
</clustering>
</event>
<event>
 6    0  0.1849053E+002  0.6413412E+02  0.7546771E-02  0.1381258E+00
          2   -1    0    0  504    0 -0.00000000000E+00  0.00000000000E+00  0.39410988940E+03  0.39410988940E+03  0.00000000000E+00 0.  1.
         21   -1    0    0  503  502  0.00000000000E+00 -0.00000000000E+00 -0.11713375552E+04  0.11713375552E+04  0.00000000000E+00 0.  1.
         21    1    1    2  503  501  0.32724268647E+02 -0.55978328759E+01 -0.90377080760E+03  0.90438038798E+03  0.00000000000E+00 0.  1.
         21    1    1    2  504  505 -0.55003810721E+02 -0.31558359783E+02  0.65190366785E+02  0.90945770587E+02  0.00000000000E+00 0. -1.
         21    1    1    2  505  502 -0.11384400920E+02 -0.55883936194E+02 -0.24325282237E+03  0.24984906343E+03  0.00000000000E+00 0.  1.
          2    1    1    2  501    0  0.33663942994E+02  0.93040128852E+02  0.30460559736E+03  0.32027222261E+03  0.00000000000E+00 0.  1.
<scales pt_clust_3="33.19960" pt_clust_4="62.18902" pt_clust_5="64.13412" pt_clust_6="14000.00000"></scales>
<clustering>
<clus scale="   33.200">  2  3  1 -1</clus>
<clus scale="   62.189">  1  4  2 -1</clus>
<clus scale="   64.134">  2  5  1 -1</clus>
<clus scale="   33.200">  2  3  1 -1</clus>
</clustering>
</event>
<event>
 6    0  0.1849053E+002  0.1949082E+03  0.7546771E-02  0.1154108E+00
          1   -1    0    0  505    0 -0.00000000000E+00  0.00000000000E+00  0.22183152010E+03  0.22183152010E+03  0.00000000000E+00 0. -1.
         21   -1    0    0  504  502  0.00000000000E+00 -0.00000000000E+00 -0.17906642343E+04  0.17906642343E+04  0.00000000000E+00 0. -1.
         21    1    1    2  503  502  0.51155313445E+02  0.39044420276E+02 -0.69921756213E+03  0.70217272237E+03  0.00000000000E+00 0. -1.
         21    1    1    2  504  501 -0.89338346267E+02 -0.58910610820E+02 -0.50541609897E+02  0.11834802285E+03  0.00000000000E+00 0. -1.
         21    1    1    2  505  503  0.99453356720E+02  0.10136651489E+03 -0.98610719294E+03  0.99627984848E+03  0.00000000000E+00 0. -1.
          1    1    1    2  501    0 -0.61270323898E+02 -0.81500324344E+02  0.16703365073E+03  0.19569516074E+03  0.00000000000E+00 0. -1.
<scales pt_clust_3="30.28102" pt_clust_4="189.64649" pt_clust_5="30.28102" pt_clust_6="101.96252"></scales>
<clustering>
<clus scale="   30.281">  3  5 -1 -1</clus>
<clus scale="  101.963">  1  6  2 -1</clus>
<clus scale="  189.646">  1  4  2 -1</clus>
<clus scale="  194.908">  2  3  1 -1</clus>
</clustering>
</event>
<event>
 6    0  0.1849053E+002  0.7955302E+02  0.7546771E-02  0.1330325E+00
         21   -1    0    0  505  502  0.00000000000E+00  0.00000000000E+00  0.49409588904E+03  0.49409588904E+03  0.00000000000E+00 0.  1.
          2   -1    0    0  504    0 -0.00000000000E+00 -0.00000000000E+00 -0.18423749555E+04  0.18423749555E+04  0.00000000000E+00 0. -1.
         21    1    1    2  503  502  0.36698685561E+02  0.58713490428E+02 -0.70951067367E+02  0.99136882343E+02  0.00000000000E+00 0. -1.
         21    1    1    2  504  503  0.43463851670E+02  0.33712703042E+02 -0.14309956878E+04  0.14320524821E+04  0.00000000000E+00 0. -1.
         21    1    1    2  505  501 -0.66104478865E+02 -0.45379401540E+02  0.47423995560E+03  0.48097050606E+03  0.00000000000E+00 0.  1.
          2    1    1    2  501    0 -0.14058058366E+02 -0.47046791930E+02 -0.32057226688E+03  0.32431097412E+03  0.00000000000E+00 0. -1.
<scales pt_clust_3="14000.00000" pt_clust_4="32.02761" pt_clust_5="79.55302" pt_clust_6="49.10224"></scales>
<clustering>
<clus scale="   49.102">  2  6  1 -1</clus>
<clus scale="   32.028">  2  4  1 -1</clus>
<clus scale="   79.553">  1  5  2 -1</clus>
<clus scale="   79.553">  1  3  2 -1</clus>
</clustering>
</event>
<event>
 6    0  0.1849053E+002  0.1541807E+03  0.7546771E-02  0.1195428E+00
         21   -1    0    0  505  502  0.00000000000E+00  0.00000000000E+00  0.58637580803E+02  0.58637580803E+02  0.00000000000E+00 0.  1.
          1   -1    0    0  502    0 -0.00000000000E+00 -0.00000000000E+00 -0.15025702812E+04  0.15025702812E+04  0.00000000000E+00 0. -1.
         21    1    1    2  503  504 -0.67744997332E+02  0.12454755358E+02 -0.60913601801E+02  0.91950924296E+02  0.00000000000E+00 0.  1.
         21    1    1    2  504  501  0.10271774091E+03  0.79751787419E+01 -0.55677389908E+03  0.56622584935E+03  0.00000000000E+00 0. -1.
         21    1    1    2  505  503 -0.85039451175E+02  0.21676277980E+02 -0.14853812238E+02  0.89006769524E+02  0.00000000000E+00 0.  1.
          1    1    1    2  501    0  0.50066707596E+02 -0.42106212079E+02 -0.81139138726E+03  0.81402431882E+03  0.00000000000E+00 0. -1.
<scales pt_clust_3="44.27001" pt_clust_4="145.85857" pt_clust_5="44.27001" pt_clust_6="65.41872"></scales>
<clustering>
<clus scale="   44.270">  3  5 -1 -1</clus>
<clus scale="   65.419">  2  6  1 -1</clus>
<clus scale="  145.859">  2  4  1 -1</clus>
<clus scale="  154.181">  1  3  2 -1</clus>
</clustering>
</event>
<event>
 6    0  0.1849053E+002  0.1145970E+03  0.7546771E-02  0.1252286E+00
         21   -1    0    0  503  502  0.00000000000E+00  0.00000000000E+00  0.18725841826E+03  0.18725841826E+03  0.00000000000E+00 0.  1.
          2   -1    0    0  504    0 -0.00000000000E+00 -0.00000000000E+00 -0.11295248112E+03  0.11295248112E+03  0.00000000000E+00 0.  1.
         21    1    1    2  503  505  0.58622054555E+02  0.27183043809E+02  0.99486793150E+01  0.65379196776E+02  0.00000000000E+00 0.  1.
         21    1    1    2  504  502 -0.39937796129E+02  0.78161928742E+01  0.47050310966E+02  0.62208136065E+02  0.00000000000E+00 0. -1.
         21    1    1    2  505  501  0.72424840651E+02 -0.14327395546E+02  0.27193066319E+02  0.78677154640E+02  0.00000000000E+00 0.  1.
          2    1    1    2  501    0 -0.91109099077E+02 -0.20671841137E+02 -0.98861194549E+01  0.93946411898E+02  0.00000000000E+00 0.  1.
<scales pt_clust_3="44.34800" pt_clust_4="40.69546" pt_clust_5="44.34800" pt_clust_6="105.34850"></scales>
<clustering>
<clus scale="   40.695">  1  4  2 -1</clus>
<clus scale="   44.348">  3  5 -1 -1</clus>
<clus scale="  105.349">  2  6  1 -1</clus>
<clus scale="   40.695">  1  3  2 -1</clus>
</clustering>
</event>
<event>
 6    0  0.1849053E+002  0.7641661E+02  0.7546771E-02  0.1339540E+00
          1   -1    0    0  504    0 -0.00000000000E+00  0.00000000000E+00  0.20712847969E+04  0.20712847969E+04  0.00000000000E+00 0. -1.
         21   -1    0    0  503  502  0.00000000000E+00 -0.00000000000E+00 -0.83997400002E+02  0.83997400002E+02  0.00000000000E+00 0.  1.
         21    1    1    2  503  501  0.33044495815E+02 -0.36590517663E+02 -0.46172679617E+02  0.67547916545E+02  0.00000000000E+00 0.  1.
         21    1    1    2  504  505 -0.24475809227E+02 -0.39428886437E+02  0.11259247112E+03  0.12178163604E+03  0.00000000000E+00 0. -1.
         21    1    1    2  505  502 -0.38200820366E+02 -0.45265296319E+02  0.22307865920E+02  0.63292105427E+02  0.00000000000E+00 0.  1.
          1    1    1    2  501    0  0.29632133778E+02  0.12128470042E+03  0.18985597394E+04  0.19026605388E+04  0.00000000000E+00 0. -1.
<scales pt_clust_3="49.37412" pt_clust_4="46.40800" pt_clust_5="76.41661" pt_clust_6="14000.00000"></scales>
<clustering>
<clus scale="   46.408">  1  4  2 -1</clus>
<clus scale="   49.374">  2  3  1 -1</clus>
<clus scale="   76.417">  2  5  1 -1</clus>
<clus scale="   49.374">  2  3  1 -1</clus>
</clustering>
</event>
<event>
 6    0  0.1849053E+002  0.5588510E+03  0.7546771E-02  0.9994658E-01
          3   -1    0    0  505    0 -0.00000000000E+00  0.00000000000E+00  0.34143383686E+04  0.34143383686E+04  0.00000000000E+00 0. -1.
         21   -1    0    0  503  502  0.00000000000E+00 -0.00000000000E+00 -0.84745103325E+03  0.84745103325E+03  0.00000000000E+00 0.  1.
         21    1    1    2  503  504 -0.56232092057E+03  0.24608531071E+03 -0.57647928952E+03  0.84207551271E+03  0.00000000000E+00 0.  1.
         21    1    1    2  504  501  0.39137740822E+03 -0.15006499213E+03  0.20859196005E+03  0.46819481343E+03  0.00000000000E+00 0.  1.
         21    1    1    2  505  502  0.17361250594E+02 -0.32879089279E+02  0.21031094409E+04  0.21034380827E+04  0.00000000000E+00 0.  1.
          3    1    1    2  501    0  0.15358226176E+03 -0.63141229293E+02  0.83166522390E+03  0.84808099295E+03  0.00000000000E+00 0. -1.
<scales pt_clust_3="558.85097" pt_clust_4="14000.00000" pt_clust_5="37.18128" pt_clust_6="184.98014"></scales>
<clustering>
<clus scale="   37.181">  1  5  2 -1</clus>
<clus scale="  184.980">  1  6  2 -1</clus>
<clus scale="  558.851">  2  3  1 -1</clus>
<clus scale="  558.851">  2  3  1 -1</clus>
</clustering>
</event>
<event>
 6    0  0.1849053E+002  0.1700835E+03  0.7546771E-02  0.1177761E+00
         21   -1    0    0  505  502  0.00000000000E+00  0.00000000000E+00  0.42175481561E+02  0.42175481561E+02  0.00000000000E+00 0. -1.
          1   -1    0    0  503    0 -0.00000000000E+00 -0.00000000000E+00 -0.21400384051E+04  0.21400384051E+04  0.00000000000E+00 0. -1.
         21    1    1    2  503  502  0.79147874060E+01  0.44149635580E+02 -0.17617325565E+02  0.48189255458E+02  0.00000000000E+00 0. -1.
         21    1    1    2  504  501  0.13855492132E+03 -0.49054123500E+02 -0.35059863448E+03  0.38016203881E+03  0.00000000000E+00 0. -1.
         21    1    1    2  505  504  0.34025736083E+02  0.22728825791E+02 -0.50723628219E+02  0.65170827043E+02  0.00000000000E+00 0. -1.
          1    1    1    2  501    0 -0.18049544481E+03 -0.17824337871E+02 -0.16789233353E+04  0.16886917653E+04  0.00000000000E+00 0. -1.
<scales pt_clust_3="58.69723" pt_clust_4="170.08346" pt_clust_5="40.91882" pt_clust_6="14000.00000"></scales>
<clustering>
<clus scale="   40.919">  1  5  2 -1</clus>
<clus scale="   58.697">  1  3  2 -1</clus>
<clus scale="  170.083">  1  4  2 -1</clus>
<clus scale="   40.919">  1  3  2 -1</clus>
</clustering>
</event>
<event>
 6    0  0.1849053E+002  0.2315307E+03  0.7546771E-02  0.1125567E+00
          1   -1    0    0  504    0 -0.00000000000E+00  0.00000000000E+00  0.23371934027E+04  0.23371934027E+04  0.00000000000E+00 0.  1.
         21   -1    0    0  503  502  0.00000000000E+00 -0.00000000000E+00 -0.24002497432E+03  0.24002497432E+03  0.00000000000E+00 0. -1.
         21    1    1    2  503  501  0.67912647197E+02 -0.12543947026E+03  0.10777834069E+04  0.10871817973E+04  0.00000000000E+00 0.  1.
         21    1    1    2  504  505 -0.34895115099E+01  0.31006546055E+03  0.11563260697E+03  0.33094359989E+03  0.00000000000E+00 0. -1.
         21    1    1    2  505  502 -0.10944194967E+03 -0.11799130996E+03 -0.74641183949E+02  0.17740010123E+03  0.00000000000E+00 0. -1.
          1    1    1    2  501    0  0.45018813987E+02 -0.66634680329E+02  0.97839359853E+03  0.98169287859E+03  0.00000000000E+00 0.  1.
<scales pt_clust_3="39.24929" pt_clust_4="225.55249" pt_clust_5="160.93318" pt_clust_6="39.24929"></scales>
<clustering>
<clus scale="   39.249">  3  6 -1 -1</clus>
<clus scale="  160.933">  2  5  1 -1</clus>
<clus scale="  225.552">  2  4  1 -1</clus>
<clus scale="  160.933">  2  3  1 -1</clus>
</clustering>
</event>
<event>
 6    0  0.1849053E+002  0.9719137E+02  0.7546771E-02  0.1286315E+00
          1   -1    0    0  503    0 -0.00000000000E+00  0.00000000000E+00  0.12236566286E+04  0.12236566286E+04  0.00000000000E+00 0.  1.
         21   -1    0    0  501  502  0.00000000000E+00 -0.00000000000E+00 -0.14883695566E+02  0.14883695566E+02  0.00000000000E+00 0.  1.
         21    1    1    2  503  504 -0.63231723623E+02 -0.17388692216E+02  0.31340810109E+03  0.32019565162E+03  0.00000000000E+00 0.  1.
         21    1    1    2  504  505  0.31262133135E+02  0.70090696179E+02  0.40983240720E+03  0.41695638699E+03  0.00000000000E+00 0.  1.
         21    1    1    2  505  502  0.52486192055E+02  0.12786640232E+02  0.26396434200E+03  0.26943546977E+03  0.00000000000E+00 0.  1.
          1    1    1    2  501    0 -0.20516601568E+02 -0.65488644195E+02  0.22156808276E+03  0.23195281580E+03  0.00000000000E+00 0.  1.
<scales pt_clust_3="65.57909" pt_clust_4="47.82414" pt_clust_5="47.82414" pt_clust_6="78.72023"></scales>
<clustering>
<clus scale="   47.824">  4  5 -1 -1</clus>
<clus scale="   65.579">  1  3  2 -1</clus>
<clus scale="   78.720">  2  6  1 -1</clus>
<clus scale="   78.720">  2  3  1 -1</clus>
</clustering>
</event>
<event>
 6    0  0.1849053E+002  0.2089559E+03  0.7546771E-02  0.1142395E+00
         21   -1    0    0  501  502  0.00000000000E+00  0.00000000000E+00  0.12930142977E+03  0.12930142977E+03  0.00000000000E+00 0.  1.
          2   -1    0    0  505    0 -0.00000000000E+00 -0.00000000000E+00 -0.87253520314E+03  0.87253520314E+03  0.00000000000E+00 0.  1.
         21    1    1    2  503  504 -0.20348285690E+02 -0.35202631365E+02 -0.10168960677E+03  0.10951736899E+03  0.00000000000E+00 0. -1.
         21    1    1    2  504  502  0.49361766728E+02  0.20662934940E+03 -0.71292161583E+02  0.22408668937E+03  0.00000000000E+00 0.  1.
         21    1    1    2  505  503 -0.15610485852E+03 -0.61580354105E+02 -0.19610142247E+03  0.25810198519E+03  0.00000000000E+00 0.  1.
          2    1    1    2  501    0  0.12709137749E+03 -0.10984636393E+03 -0.37415058254E+03  0.41013058935E+03  0.00000000000E+00 0.  1.
<scales pt_clust_3="38.00712" pt_clust_4="194.16682" pt_clust_5="38.00712" pt_clust_6="167.98346"></scales>
<clustering>
<clus scale="   38.007">  3  5 -1 -1</clus>
<clus scale="  167.983">  2  6  1 -1</clus>
<clus scale="  194.167">  1  4  2 -1</clus>
<clus scale="  194.167">  1  3  2 -1</clus>
</clustering>
</event>
<event>
 6    0  0.1849053E+002  0.9567347E+02  0.7546771E-02  0.1289666E+00
          2   -1    0    0  503    0 -0.00000000000E+00  0.00000000000E+00  0.50005968372E+03  0.50005968372E+03  0.00000000000E+00 0.  1.
         21   -1    0    0  505  502  0.00000000000E+00 -0.00000000000E+00 -0.95054949070E+03  0.95054949070E+03  0.00000000000E+00 0.  1.
         21    1    1    2  503  504  0.35430476729E+02  0.24310739215E+01  0.88872291377E+02  0.95705344555E+02  0.00000000000E+00 0. -1.
         21    1    1    2  504  502 -0.83621676336E+02  0.74131822847E+02 -0.30875620429E+03  0.32835728346E+03  0.00000000000E+00 0.  1.
         21    1    1    2  505  501  0.91284436206E+02 -0.20248906240E+02 -0.62189455558E+03  0.62888449238E+03  0.00000000000E+00 0.  1.
          2    1    1    2  501    0 -0.43093236599E+02 -0.56313990529E+02  0.39128866152E+03  0.39766205402E+03  0.00000000000E+00 0.  1.
<scales pt_clust_3="35.51378" pt_clust_4="14000.00000" pt_clust_5="95.67347" pt_clust_6="54.67791"></scales>
<clustering>
<clus scale="   35.514">  1  3  2 -1</clus>
<clus scale="   54.678">  1  6  2 -1</clus>
<clus scale="   95.673">  2  5  1 -1</clus>
<clus scale="   95.673">  2  3  1 -1</clus>
</clustering>
</event>
<event>
 6    0  0.1849053E+002  0.1253889E+03  0.7546771E-02  0.1234463E+00
          2   -1    0    0  503    0 -0.00000000000E+00  0.00000000000E+00  0.82510743185E+03  0.82510743185E+03  0.00000000000E+00 0. -1.
         21   -1    0    0  501  502  0.00000000000E+00 -0.00000000000E+00 -0.52645909358E+03  0.52645909358E+03  0.00000000000E+00 0. -1.
         21    1    1    2  503  504 -0.31252609747E+02  0.98956051195E+01  0.31714786370E+03  0.31883760140E+03  0.00000000000E+00 0.  1.
         21    1    1    2  504  505 -0.37295353959E+02 -0.81248483805E+02  0.88474932353E+02  0.12577787247E+03  0.00000000000E+00 0. -1.
         21    1    1    2  505  502  0.54547616871E+02  0.11592345555E+03 -0.49745394762E+03  0.51368679179E+03  0.00000000000E+00 0. -1.
          2    1    1    2  501    0  0.14000346835E+02 -0.44570576868E+02  0.39047948984E+03  0.39326425978E+03  0.00000000000E+00 0. -1.
<scales pt_clust_3="32.78183" pt_clust_4="125.38890" pt_clust_5="14000.00000" pt_clust_6="38.29345"></scales>
<clustering>
<clus scale="   32.782">  1  3  2 -1</clus>
<clus scale="   38.293">  1  6  2 -1</clus>
<clus scale="  125.389">  1  4  2 -1</clus>
<clus scale="  125.389">  2  3  1 -1</clus>
</clustering>
</event>
<event>
 6    0  0.1849053E+002  0.9845779E+02  0.7546771E-02  0.1283573E+00
         21   -1    0    0  503  502  0.00000000000E+00  0.00000000000E+00  0.59508813774E+02  0.59508813774E+02  0.00000000000E+00 0.  1.
          2   -1    0    0  505    0 -0.00000000000E+00 -0.00000000000E+00 -0.93444768677E+03  0.93444768677E+03  0.00000000000E+00 0.  1.
         21    1    1    2  503  501 -0.51711773872E+02  0.17193385286E+02 -0.61454722460E+02  0.82136489865E+02  0.00000000000E+00 0.  1.
         21    1    1    2  504  502  0.25610149031E+02 -0.11980064912E+03 -0.55007020087E+02  0.13429016167E+03  0.00000000000E+00 0.  1.
         21    1    1    2  505  504  0.65702940988E+02  0.38656612981E+02 -0.20045260572E+03  0.21445852121E+03  0.00000000000E+00 0.  1.
          2    1    1    2  501    0 -0.39601316146E+02  0.63950650850E+02 -0.55802452473E+03  0.56307132780E+03  0.00000000000E+00 0.  1.
<scales pt_clust_3="54.49514" pt_clust_4="14000.00000" pt_clust_5="71.36485" pt_clust_6="98.45779"></scales>
<clustering>
<clus scale="   54.495">  1  3  2 -1</clus>
<clus scale="   71.365">  2  5  1 -1</clus>
<clus scale="   98.458">  2  6  1 -1</clus>
<clus scale="   54.495">  1  3  2 -1</clus>
</clustering>
</event>
<event>
 6    0  0.1849053E+002  0.9776586E+02  0.7546771E-02  0.1285065E+00
          2   -1    0    0  503    0 -0.00000000000E+00  0.00000000000E+00  0.33298720465E+03  0.33298720465E+03  0.00000000000E+00 0.  1.
         21   -1    0    0  505  502  0.00000000000E+00 -0.00000000000E+00 -0.42913412102E+03  0.42913412102E+03  0.00000000000E+00 0. -1.
         21    1    1    2  503  504 -0.87516635484E+02 -0.26040901556E+02  0.24067593736E+00  0.91309079314E+02  0.00000000000E+00 0. -1.
         21    1    1    2  504  502 -0.82690557107E+02  0.17748543619E+02 -0.32227824766E+03  0.33319064805E+03  0.00000000000E+00 0. -1.
         21    1    1    2  505  501 -0.12164964303E+01  0.31376831446E+02 -0.19821275956E+02  0.37133117237E+02  0.00000000000E+00 0. -1.
          2    1    1    2  501    0  0.17142368902E+03 -0.23084473510E+02  0.24571193130E+03  0.30048848108E+03  0.00000000000E+00 0.  1.
<scales pt_clust_3="90.49035" pt_clust_4="97.76586" pt_clust_5="31.40040" pt_clust_6="14000.00000"></scales>
<clustering>
<clus scale="   31.400">  2  5  1 -1</clus>
<clus scale="   90.490">  1  3  2 -1</clus>
<clus scale="   97.766">  2  4  1 -1</clus>
<clus scale="   31.400">  2  3  1 -1</clus>
</clustering>
</event>
<event>
 6    0  0.1849053E+002  0.1432409E+03  0.7546771E-02  0.1209033E+00
         21   -1    0    0  501  502  0.00000000000E+00  0.00000000000E+00  0.20673518442E+03  0.20673518442E+03  0.00000000000E+00 0. -1.
          2   -1    0    0  503    0 -0.00000000000E+00 -0.00000000000E+00 -0.35675090162E+03  0.35675090162E+03  0.00000000000E+00 0.  1.
         21    1    1    2  503  505 -0.21550100770E+02  0.40846903227E+02 -0.34565993124E+02  0.57686083478E+02  0.00000000000E+00 0.  1.
         21    1    1    2  504  502  0.84635368754E+01 -0.55784221391E+02  0.20642231112E+02  0.60080050915E+02  0.00000000000E+00 0. -1.
         21    1    1    2  505  504  0.14006626060E+03  0.36094127455E+02  0.10066875001E+03  0.17622582280E+03  0.00000000000E+00 0. -1.
          2    1    1    2  501    0 -0.12697969670E+03 -0.21156809290E+02 -0.23676070519E+03  0.26949412884E+03  0.00000000000E+00 0.  1.
<scales pt_clust_3="46.18307" pt_clust_4="53.66237" pt_clust_5="14000.00000" pt_clust_6="143.24087"></scales>
<clustering>
<clus scale="   46.183">  2  3  1 -1</clus>
<clus scale="   53.662">  1  4  2 -1</clus>
<clus scale="  143.241">  2  6  1 -1</clus>
<clus scale="   53.662">  1  3  2 -1</clus>
</clustering>
</event>
<event>
 6    0  0.1849053E+002  0.6523172E+02  0.7546771E-02  0.1377102E+00
         21   -1    0    0  504  502  0.00000000000E+00  0.00000000000E+00  0.19439874256E+02  0.19439874256E+02  0.00000000000E+00 0. -1.
          1   -1    0    0  505    0 -0.00000000000E+00 -0.00000000000E+00 -0.22851657959E+04  0.22851657959E+04  0.00000000000E+00 0. -1.
         21    1    1    2  503  502 -0.64021371515E+02 -0.13391084933E+02 -0.10560201714E+03  0.12421691991E+03  0.00000000000E+00 0. -1.
         21    1    1    2  504  501  0.62089060413E+02 -0.47155278808E+02 -0.19460422369E+03  0.20964130227E+03  0.00000000000E+00 0. -1.
         21    1    1    2  505  503  0.10311184162E+02 -0.31500887350E+02 -0.19345369800E+03  0.19627266670E+03  0.00000000000E+00 0. -1.
          1    1    1    2  501    0 -0.83788730595E+01  0.92047251091E+02 -0.17720659828E+04  0.17744747813E+04  0.00000000000E+00 0. -1.
<scales pt_clust_3="65.23172" pt_clust_4="14000.00000" pt_clust_5="33.14553" pt_clust_6="63.54064"></scales>
<clustering>
<clus scale="   33.146">  2  5  1 -1</clus>
<clus scale="   65.232">  1  3  2 -1</clus>
<clus scale="   63.541">  2  6  1 -1</clus>
<clus scale="   65.232">  1  3  2 -1</clus>
</clustering>
</event>
<event>
 6    0  0.1849053E+002  0.1573421E+03  0.7546771E-02  0.1191731E+00
         21   -1    0    0  503  502  0.00000000000E+00  0.00000000000E+00  0.74810004087E+01  0.74810004087E+01  0.00000000000E+00 0. -1.
          2   -1    0    0  505    0 -0.00000000000E+00 -0.00000000000E+00 -0.33460517739E+04  0.33460517739E+04  0.00000000000E+00 0. -1.
         21    1    1    2  503  501  0.64493098178E+02  0.53816080817E+02 -0.78043717726E+03  0.78494440434E+03  0.00000000000E+00 0. -1.
         21    1    1    2  504  502 -0.71718318572E+01 -0.43701336015E+02 -0.50044326925E+03  0.50239895271E+03  0.00000000000E+00 0. -1.
         21    1    1    2  505  504 -0.85566026933E+02 -0.71970654583E+02 -0.98037528076E+03  0.98673046533E+03  0.00000000000E+00 0. -1.
          2    1    1    2  501    0  0.28244760612E+02  0.61855909781E+02 -0.10773150463E+04  0.10794589520E+04  0.00000000000E+00 0. -1.
<scales pt_clust_3="47.40760" pt_clust_4="32.71740" pt_clust_5="157.10775" pt_clust_6="47.40760"></scales>
<clustering>
<clus scale="   32.717">  4  5 -1 -1</clus>
<clus scale="   47.408">  3  6 -1 -1</clus>
<clus scale="  157.108">  1  4  2 -1</clus>
<clus scale="  157.108">  1  3  2 -1</clus>
</clustering>
</event>
<event>
 6    0  0.1849053E+002  0.1252919E+03  0.7546771E-02  0.1234614E+00
          2   -1    0    0  504    0 -0.00000000000E+00  0.00000000000E+00  0.19400321643E+04  0.19400321643E+04  0.00000000000E+00 0. -1.
         21   -1    0    0  503  502  0.00000000000E+00 -0.00000000000E+00 -0.11018794364E+03  0.11018794364E+03  0.00000000000E+00 0.  1.
         21    1    1    2  503  501 -0.27167129132E+02 -0.29223552581E+02  0.28198609091E+02  0.48859292723E+02  0.00000000000E+00 0.  1.
         21    1    1    2  504  505  0.73852817869E+02  0.30417684211E+02  0.17517646872E+03  0.19252602269E+03  0.00000000000E+00 0.  1.
         21    1    1    2  505  502  0.93647423693E+02  0.17397224714E+02 -0.62512540302E+02  0.11393121208E+03  0.00000000000E+00 0.  1.
          2    1    1    2  501    0 -0.14033311243E+03 -0.18591356344E+02  0.16889816832E+04  0.16949035804E+04  0.00000000000E+00 0. -1.
<scales pt_clust_3="39.90074" pt_clust_4="125.29192" pt_clust_5="70.15316" pt_clust_6="14000.00000"></scales>
<clustering>
<clus scale="   39.901">  2  3  1 -1</clus>
<clus scale="   70.153">  2  5  1 -1</clus>
<clus scale="  125.292">  2  4  1 -1</clus>
<clus scale="   39.901">  2  3  1 -1</clus>
</clustering>
</event>
<event>
 6    0  0.1849053E+002  0.2286148E+03  0.7546771E-02  0.1127619E+00
          1   -1    0    0  504    0 -0.00000000000E+00  0.00000000000E+00  0.42282368480E+04  0.42282368480E+04  0.00000000000E+00 0.  1.
         21   -1    0    0  505  502  0.00000000000E+00 -0.00000000000E+00 -0.99016367570E+02  0.99016367570E+02  0.00000000000E+00 0. -1.
         21    1    1    2  503  501  0.10136072060E+03  0.15321555802E+03  0.23458372385E+02  0.18520069690E+03  0.00000000000E+00 0. -1.
         21    1    1    2  504  502  0.81454576159E+02 -0.10786801498E+03  0.77836966519E+03  0.79001879239E+03  0.00000000000E+00 0. -1.
         21    1    1    2  505  503  0.34466200137E+02  0.16901511945E+02  0.35172367435E+02  0.52064147827E+02  0.00000000000E+00 0.  1.
          1    1    1    2  501    0 -0.21728149689E+03 -0.62249054985E+02  0.32922200754E+04  0.32999695784E+04  0.00000000000E+00 0.  1.
<scales pt_clust_3="33.80285" pt_clust_4="135.16788" pt_clust_5="33.80285" pt_clust_6="216.32491"></scales>
<clustering>
<clus scale="   33.803">  3  5 -1 -1</clus>
<clus scale="  135.168">  1  4  2 -1</clus>
<clus scale="  216.325">  1  6  2 -1</clus>
<clus scale="  228.615">  2  3  1 -1</clus>
</clustering>
</event>
<event>
 6    0  0.1849053E+002  0.1388544E+03  0.7546771E-02  0.1214879E+00
         21   -1    0    0  504  502  0.00000000000E+00  0.00000000000E+00  0.48837978816E+03  0.48837978816E+03  0.00000000000E+00 0.  1.
         -1   -1    0    0    0  501 -0.00000000000E+00 -0.00000000000E+00 -0.10913738644E+03  0.10913738644E+03  0.00000000000E+00 0.  1.
         21    1    1    2  503  505 -0.25624353464E+02  0.56371059541E+02  0.10669035476E+03  0.12335775469E+03  0.00000000000E+00 0. -1.
         21    1    1    2  504  503 -0.38105165214E+02  0.47584545096E+02  0.28159830828E+03  0.28812132821E+03  0.00000000000E+00 0.  1.
         21    1    1    2  505  501  0.16229978522E+02  0.34432327170E+02 -0.11301481855E+02  0.39707944410E+02  0.00000000000E+00 0.  1.
         -1    1    1    2    0  502  0.47499540157E+02 -0.13838793181E+03  0.22552205355E+01  0.14633014729E+03  0.00000000000E+00 0.  1.
<scales pt_clust_3="59.31415" pt_clust_4="59.31415" pt_clust_5="38.06570" pt_clust_6="124.90717"></scales>
<clustering>
<clus scale="   38.066">  2  5  1 -1</clus>
<clus scale="   59.314">  3  4 -1 -1</clus>
<clus scale="  124.907">  2  6  1 -1</clus>
<clus scale="  138.854">  1  3  2 -1</clus>
</clustering>
</event>
<event>
 6    0  0.1849053E+002  0.1270283E+03  0.7546771E-02  0.1231933E+00
         21   -1    0    0  503  502  0.00000000000E+00  0.00000000000E+00  0.10169549165E+03  0.10169549165E+03  0.00000000000E+00 0. -1.
         -1   -1    0    0    0  501 -0.00000000000E+00 -0.00000000000E+00 -0.39067820889E+03  0.39067820889E+03  0.00000000000E+00 0. -1.
         21    1    1    2  503  505 -0.29617178569E+02  0.26023501111E+02  0.49235637980E+01  0.39732119965E+02  0.00000000000E+00 0.  1.
         21    1    1    2  504  502  0.80155052205E+02  0.10041976534E+03 -0.10896738567E+02  0.12894844154E+03  0.00000000000E+00 0. -1.
         21    1    1    2  505  501  0.19991210013E+02 -0.36719440044E+02 -0.59329818518E+02  0.72580941853E+02  0.00000000000E+00 0.  1.
         -1    1    1    2    0  504 -0.70529083649E+02 -0.89723826407E+02 -0.22367972395E+03  0.25111219718E+03  0.00000000000E+00 0. -1.
<scales pt_clust_3="39.42588" pt_clust_4="127.02835" pt_clust_5="38.73505" pt_clust_6="14000.00000"></scales>
<clustering>
<clus scale="   39.426">  1  3  2 -1</clus>
<clus scale="   38.735">  2  5  1 -1</clus>
<clus scale="  127.028">  1  4  2 -1</clus>
<clus scale="   39.426">  1  3  2 -1</clus>
</clustering>
</event>
<event>
 6    0  0.1849053E+002  0.1299272E+03  0.7546771E-02  0.1227564E+00
          2   -1    0    0  503    0 -0.00000000000E+00  0.00000000000E+00  0.14133281000E+04  0.14133281000E+04  0.00000000000E+00 0. -1.
         21   -1    0    0  504  502  0.00000000000E+00 -0.00000000000E+00 -0.13327857390E+03  0.13327857390E+03  0.00000000000E+00 0. -1.
         21    1    1    2  503  502  0.12710252884E+02  0.28373887585E+02  0.44743996158E+02  0.54485348647E+02  0.00000000000E+00 0. -1.
         21    1    1    2  504  505  0.67656675719E+02 -0.26941665057E+02 -0.70863846137E+02  0.10161182891E+03  0.00000000000E+00 0. -1.
         21    1    1    2  505  501  0.34019929760E+02 -0.42980870627E+02 -0.20311674054E+02  0.58457462856E+02  0.00000000000E+00 0. -1.
          2    1    1    2  501    0 -0.11438685836E+03  0.41548648098E+02  0.13264810502E+04  0.13320520335E+04  0.00000000000E+00 0. -1.
<scales pt_clust_3="31.09064" pt_clust_4="37.27292" pt_clust_5="37.27292" pt_clust_6="121.65183"></scales>
<clustering>
<clus scale="   31.091">  2  3  1 -1</clus>
<clus scale="   37.273">  4  5 -1 -1</clus>
<clus scale="  121.652">  1  6  2 -1</clus>
<clus scale="   31.091">  2  3  1 -1</clus>
</clustering>
</event>
<event>
 6    0  0.2636875E+002  0.6433836E+02  0.7546771E-02  0.1380478E+00
         21   -1    0    0  505  502  0.00000000000E+00  0.00000000000E+00  0.61354594851E+03  0.61354594851E+03  0.00000000000E+00 0. -1.
          1   -1    0    0  503    0 -0.00000000000E+00 -0.00000000000E+00 -0.17121768288E+04  0.17121768288E+04  0.00000000000E+00 0. -1.
         21    1    1    2  503  502 -0.90647883823E+01 -0.49115918302E+02 -0.63283564728E+02  0.80618567240E+02  0.00000000000E+00 0.  1.
         21    1    1    2  504  501 -0.13253888634E+02 -0.85670337854E+02  0.24239175625E+02  0.90014498759E+02  0.00000000000E+00 0. -1.
         21    1    1    2  505  504  0.39053492691E+02  0.50263497034E+02  0.54474244522E+03  0.54844865398E+03  0.00000000000E+00 0. -1.
          1    1    1    2  501    0 -0.16734815674E+02  0.84522759121E+02 -0.16043289364E+04  0.16066410573E+04  0.00000000000E+00 0. -1.
<scales pt_clust_3="49.94541" pt_clust_4="64.33836" pt_clust_5="14000.00000" pt_clust_6="44.54373"></scales>
<clustering>
<clus scale="   49.945">  2  3  1 -1</clus>
<clus scale="   44.544">  2  6  1 -1</clus>
<clus scale="   64.338">  2  4  1 -1</clus>
<clus scale="   64.338">  1  3  2 -1</clus>
</clustering>
</event>
<event>
 6    0  0.1849053E+002  0.1219804E+03  0.7546771E-02  0.1239865E+00
         21   -1    0    0  505  502  0.00000000000E+00  0.00000000000E+00  0.47696011593E+03  0.47696011593E+03  0.00000000000E+00 0. -1.
          3   -1    0    0  503    0 -0.00000000000E+00 -0.00000000000E+00 -0.73411401483E+02  0.73411401483E+02  0.00000000000E+00 0.  1.
         21    1    1    2  503  502  0.28944362673E+02 -0.11934793976E+02  0.68070892843E+02  0.74925709141E+02  0.00000000000E+00 0. -1.
         21    1    1    2  504  501 -0.30609145313E+02  0.40150062225E+02  0.70688640803E+02  0.86866743993E+02  0.00000000000E+00 0. -1.
         21    1    1    2  505  504 -0.34261304467E+02  0.72678279819E+02  0.26965334776E+03  0.28136968084E+03  0.00000000000E+00 0. -1.
          3    1    1    2  501    0  0.35926087106E+02 -0.10089354807E+03 -0.48641669572E+01  0.10720938344E+03  0.00000000000E+00 0.  1.
<scales pt_clust_3="31.30839" pt_clust_4="44.00176" pt_clust_5="44.00176" pt_clust_6="109.78264"></scales>
<clustering>
<clus scale="   31.308">  1  3  2 -1</clus>
<clus scale="   44.002">  4  5 -1 -1</clus>
<clus scale="  109.783">  2  6  1 -1</clus>
<clus scale="   31.308">  1  3  2 -1</clus>
</clustering>
</event>
<event>
 6    0  0.1849053E+002  0.3463859E+03  0.7546771E-02  0.1064108E+00
         21   -1    0    0  504  502  0.00000000000E+00  0.00000000000E+00  0.12647598327E+04  0.12647598327E+04  0.00000000000E+00 0. -1.
          1   -1    0    0  503    0 -0.00000000000E+00 -0.00000000000E+00 -0.98693816668E+03  0.98693816668E+03  0.00000000000E+00 0. -1.
         21    1    1    2  503  505 -0.85007487061E+02 -0.75929418601E+01  0.22386339578E+03  0.23958035310E+03  0.00000000000E+00 0.  1.
         21    1    1    2  504  501  0.10954259073E+03 -0.46340107738E+02 -0.20216798641E+03  0.23456103576E+03  0.00000000000E+00 0. -1.
         21    1    1    2  505  502 -0.20290406810E+03  0.15739551141E+03  0.98611524783E+03  0.10190027919E+04  0.00000000000E+00 0. -1.
          1    1    1    2  501    0  0.17836896444E+03 -0.10346246182E+03 -0.72998899120E+03  0.75855381862E+03  0.00000000000E+00 0. -1.
<scales pt_clust_3="69.77624" pt_clust_4="83.28933" pt_clust_5="69.77624" pt_clust_6="342.57916"></scales>
<clustering>
<clus scale="   69.776">  3  5 -1 -1</clus>
<clus scale="   83.289">  4  6 -1 -1</clus>
<clus scale="  342.579">  2  4  1 -1</clus>
<clus scale="  346.386">  1  3  2 -1</clus>
</clustering>
</event>
<event>
 6    0  0.1849053E+002  0.1593733E+03  0.7546771E-02  0.1189406E+00
          1   -1    0    0  504    0 -0.00000000000E+00  0.00000000000E+00  0.20222886866E+03  0.20222886866E+03  0.00000000000E+00 0. -1.
         21   -1    0    0  501  502  0.00000000000E+00 -0.00000000000E+00 -0.26002596043E+03  0.26002596043E+03  0.00000000000E+00 0. -1.
         21    1    1    2  503  502  0.14351048066E+02 -0.63733850370E+02 -0.48339346308E+02  0.81268989566E+02  0.00000000000E+00 0. -1.
         21    1    1    2  504  505  0.39403732440E+01  0.10922766367E+03  0.26583336079E+02  0.11248503371E+03  0.00000000000E+00 0. -1.
         21    1    1    2  505  503  0.99655512327E+02 -0.61931826140E+02 -0.79503507615E+02  0.14173065988E+03  0.00000000000E+00 0. -1.
          1    1    1    2  501    0 -0.11794693364E+03  0.16438012838E+02  0.43462426071E+02  0.12677014594E+03  0.00000000000E+00 0. -1.
<scales pt_clust_3="50.58507" pt_clust_4="109.29871" pt_clust_5="50.58507" pt_clust_6="144.23643"></scales>
<clustering>
<clus scale="   50.585">  3  5 -1 -1</clus>
<clus scale="  109.299">  1  4  2 -1</clus>
<clus scale="  144.236">  1  6  2 -1</clus>
<clus scale="  159.373">  2  3  1 -1</clus>
</clustering>
</event>
<event>
 6    0  0.1849053E+002  0.1451990E+03  0.7546771E-02  0.1206500E+00
         21   -1    0    0  505  502  0.00000000000E+00  0.00000000000E+00  0.30064685188E+03  0.30064685188E+03  0.00000000000E+00 0.  1.
          4   -1    0    0  504    0 -0.00000000000E+00 -0.00000000000E+00 -0.47645114066E+03  0.47645114066E+03  0.00000000000E+00 0. -1.
         21    1    1    2  503  502  0.30057886910E+02 -0.40932058717E+02  0.15979359643E+01  0.50808103642E+02  0.00000000000E+00 0.  1.
         21    1    1    2  504  503 -0.63203158010E+02  0.10672546520E+03 -0.14133214998E+03  0.18804185896E+03  0.00000000000E+00 0.  1.
         21    1    1    2  505  501 -0.24359625062E+02  0.94567530062E+02  0.21425047827E+03  0.23545631551E+03  0.00000000000E+00 0.  1.
          4    1    1    2  501    0  0.57504896162E+02 -0.16036093654E+03 -0.25032055303E+03  0.30279171442E+03  0.00000000000E+00 0. -1.
<scales pt_clust_3="50.78297" pt_clust_4="14000.00000" pt_clust_5="61.03224" pt_clust_6="145.19899"></scales>
<clustering>
<clus scale="   50.783">  1  3  2 -1</clus>
<clus scale="   61.032">  1  5  2 -1</clus>
<clus scale="  145.199">  1  6  2 -1</clus>
<clus scale="   50.783">  1  3  2 -1</clus>
</clustering>
</event>
<event>
 6    0  0.1849053E+002  0.2546428E+03  0.7546771E-02  0.1110405E+00
          2   -1    0    0  505    0 -0.00000000000E+00  0.00000000000E+00  0.67494561287E+03  0.67494561287E+03  0.00000000000E+00 0.  1.
         21   -1    0    0  504  502  0.00000000000E+00 -0.00000000000E+00 -0.19439117664E+04  0.19439117664E+04  0.00000000000E+00 0.  1.
         21    1    1    2  503  501  0.30739719886E+02  0.59573567825E+02  0.15682489454E+03  0.17055200940E+03  0.00000000000E+00 0. -1.
         21    1    1    2  504  503 -0.12368714376E+03 -0.28504833007E+03 -0.17176623620E+04  0.17455414776E+04  0.00000000000E+00 0.  1.
         21    1    1    2  505  502  0.92036940275E+02  0.38654714988E+02 -0.17412666097E+03  0.20071143322E+03  0.00000000000E+00 0.  1.
          2    1    1    2  501    0  0.91048360174E+00  0.18682004726E+03  0.46599797493E+03  0.50205245909E+03  0.00000000000E+00 0.  1.
<scales pt_clust_3="31.56620" pt_clust_4="249.13057" pt_clust_5="99.82477" pt_clust_6="31.56620"></scales>
<clustering>
<clus scale="   31.566">  3  6 -1 -1</clus>
<clus scale="   99.825">  2  5  1 -1</clus>
<clus scale="  249.131">  2  4  1 -1</clus>
<clus scale="   99.825">  2  3  1 -1</clus>
</clustering>
</event>
<event>
 6    0  0.1849053E+002  0.1118673E+03  0.7546771E-02  0.1257151E+00
         21   -1    0    0  505  502  0.00000000000E+00  0.00000000000E+00  0.21446741076E+03  0.21446741076E+03  0.00000000000E+00 0. -1.
         -3   -1    0    0    0  501 -0.00000000000E+00 -0.00000000000E+00 -0.97534811658E+03  0.97534811658E+03  0.00000000000E+00 0.  1.
         21    1    1    2  503  504  0.50418579172E+02 -0.39206424579E+02 -0.14363495140E+03  0.15719470766E+03  0.00000000000E+00 0. -1.
         21    1    1    2  504  501  0.12538222537E-02  0.47020510916E+02 -0.68269950422E+02  0.82895805558E+02  0.00000000000E+00 0.  1.
         21    1    1    2  505  503 -0.86857067706E+02 -0.71974295984E+02  0.18249435520E+03  0.21454286092E+03  0.00000000000E+00 0. -1.
         -3    1    1    2    0  502  0.36437234711E+02  0.64160209646E+02 -0.73147015920E+03  0.73518215320E+03  0.00000000000E+00 0.  1.
<scales pt_clust_3="59.36853" pt_clust_4="47.02051" pt_clust_5="14000.00000" pt_clust_6="111.86729"></scales>
<clustering>
<clus scale="   47.021">  2  4  1 -1</clus>
<clus scale="   59.369">  2  3  1 -1</clus>
<clus scale="  111.867">  2  6  1 -1</clus>
<clus scale="  111.867">  1  3  2 -1</clus>
</clustering>
</event>
<event>
 6    0  0.1849053E+002  0.1059089E+03  0.7546771E-02  0.1268339E+00
          2   -1    0    0  504    0 -0.00000000000E+00  0.00000000000E+00  0.38723915676E+03  0.38723915676E+03  0.00000000000E+00 0. -1.
         21   -1    0    0  505  502  0.00000000000E+00 -0.00000000000E+00 -0.12076165025E+03  0.12076165025E+03  0.00000000000E+00 0. -1.
         21    1    1    2  503  502  0.29997220172E+02 -0.10363726204E+02  0.13198675328E+02  0.34372155436E+02  0.00000000000E+00 0. -1.
         21    1    1    2  504  503 -0.38299710055E+02  0.23834770751E+02  0.15050506268E+03  0.15712013868E+03  0.00000000000E+00 0. -1.
         21    1    1    2  505  501 -0.49808059095E+02 -0.97195592531E+02 -0.59887941393E+02  0.12455678015E+03  0.00000000000E+00 0. -1.
          2    1    1    2  501    0  0.58110548978E+02  0.83724547984E+02  0.16266170990E+03  0.19195173275E+03  0.00000000000E+00 0. -1.
<scales pt_clust_3="31.73705" pt_clust_4="44.18212" pt_clust_5="105.90892" pt_clust_6="14000.00000"></scales>
<clustering>
<clus scale="   31.737">  2  3  1 -1</clus>
<clus scale="   44.182">  1  4  2 -1</clus>
<clus scale="  105.909">  2  5  1 -1</clus>
<clus scale="   31.737">  2  3  1 -1</clus>
</clustering>
</event>
<event>
 6    0  0.1849053E+002  0.1880369E+03  0.7546771E-02  0.1160244E+00
         -3   -1    0    0    0  501 -0.00000000000E+00  0.00000000000E+00  0.63894767509E+03  0.63894767509E+03  0.00000000000E+00 0.  1.
         21   -1    0    0  505  502  0.00000000000E+00 -0.00000000000E+00 -0.10325129556E+03  0.10325129556E+03  0.00000000000E+00 0.  1.
         21    1    1    2  503  501 -0.38998467466E+02 -0.15362798071E+02  0.21863640538E+02  0.47274885583E+02  0.00000000000E+00 0.  1.
         21    1    1    2  504  502  0.59460676906E+02 -0.15529735481E+02  0.11426060677E+03  0.12973908834E+03  0.00000000000E+00 0. -1.
         21    1    1    2  505  503 -0.13969436342E+03  0.20382109927E+02 -0.70129326418E+01  0.14134753907E+03  0.00000000000E+00 0.  1.
         -3    1    1    2    0  504  0.11923215398E+03  0.10510423626E+02  0.40658506486E+03  0.42383745766E+03  0.00000000000E+00 0.  1.
<scales pt_clust_3="31.77962" pt_clust_4="40.59997" pt_clust_5="31.77962" pt_clust_6="187.52807"></scales>
<clustering>
<clus scale="   31.780">  3  5 -1 -1</clus>
<clus scale="   40.600">  4  6 -1 -1</clus>
<clus scale="  187.528">  1  4  2 -1</clus>
<clus scale="  188.037">  2  3  1 -1</clus>
</clustering>
</event>
<event>
 6    0  0.1849053E+002  0.1819589E+03  0.7546771E-02  0.1165921E+00
         21   -1    0    0  504  502  0.00000000000E+00  0.00000000000E+00  0.88015097874E+02  0.88015097874E+02  0.00000000000E+00 0.  1.
          2   -1    0    0  503    0 -0.00000000000E+00 -0.00000000000E+00 -0.10192602807E+04  0.10192602807E+04  0.00000000000E+00 0. -1.
         21    1    1    2  503  502  0.31896007906E+01 -0.87300193884E+02 -0.13158671434E+03  0.15794480301E+03  0.00000000000E+00 0.  1.
         21    1    1    2  504  505  0.11304074008E+03 -0.44069068813E+02  0.58740251572E+01  0.12146932088E+03  0.00000000000E+00 0.  1.
         21    1    1    2  505  501 -0.50815880454E+02  0.60538909928E+02 -0.20632061556E+03  0.22094209586E+03  0.00000000000E+00 0.  1.
          2    1    1    2  501    0 -0.65414460419E+02  0.70830352768E+02 -0.59921187813E+03  0.60691915886E+03  0.00000000000E+00 0. -1.
<scales pt_clust_3="87.35844" pt_clust_4="165.54378" pt_clust_5="68.38301" pt_clust_6="68.38301"></scales>
<clustering>
<clus scale="   68.383">  5  6 -1 -1</clus>
<clus scale="   87.358">  1  3  2 -1</clus>
<clus scale="  165.544">  1  4  2 -1</clus>
<clus scale="   87.358">  1  3  2 -1</clus>
</clustering>
</event>
<event>
 6    0  0.1849053E+002  0.1427530E+03  0.7546771E-02  0.1209672E+00
          3   -1    0    0  505    0 -0.00000000000E+00  0.00000000000E+00  0.20964818463E+04  0.20964818463E+04  0.00000000000E+00 0. -1.
         21   -1    0    0  504  502  0.00000000000E+00 -0.00000000000E+00 -0.58893126806E+02  0.58893126806E+02  0.00000000000E+00 0. -1.
         21    1    1    2  503  502  0.27421953714E+02 -0.21274799292E+02 -0.37147646911E+02  0.50838256279E+02  0.00000000000E+00 0. -1.
         21    1    1    2  504  501  0.13784852546E+02 -0.27155308641E+02  0.62265484430E+02  0.69313948801E+02  0.00000000000E+00 0. -1.
         21    1    1    2  505  503  0.20048078052E+01  0.17074789671E+03  0.99996022022E+03  0.10144354615E+04  0.00000000000E+00 0. -1.
          3    1    1    2  501    0 -0.43211614066E+02 -0.12231778877E+03  0.10125106618E+04  0.10207873066E+04  0.00000000000E+00 0. -1.
<scales pt_clust_3="57.52222" pt_clust_4="30.45378" pt_clust_5="14000.00000" pt_clust_6="142.75303"></scales>
<clustering>
<clus scale="   30.454">  2  4  1 -1</clus>
<clus scale="   57.522">  2  3  1 -1</clus>
<clus scale="  142.753">  1  6  2 -1</clus>
<clus scale="   30.454">  2  3  1 -1</clus>
</clustering>
</event>
<event>
 6    0  0.1849053E+002  0.1157025E+03  0.7546771E-02  0.1250360E+00
         -2   -1    0    0    0  501 -0.00000000000E+00  0.00000000000E+00  0.97949726242E+02  0.97949726242E+02  0.00000000000E+00 0.  1.
         21   -1    0    0  504  502  0.00000000000E+00 -0.00000000000E+00 -0.40953797568E+03  0.40953797568E+03  0.00000000000E+00 0. -1.
         21    1    1    2  503  502 -0.52460229099E+02  0.10367011260E+02 -0.17392900840E+03  0.18196387148E+03  0.00000000000E+00 0. -1.
         21    1    1    2  504  501 -0.74235435294E+02  0.77822284991E+02 -0.10569567437E+03  0.15079384429E+03  0.00000000000E+00 0.  1.
         21    1    1    2  505  503  0.79700756798E+02 -0.86197686267E+02 -0.45306663133E+02  0.12583697976E+03  0.00000000000E+00 0.  1.
         -2    1    1    2    0  505  0.46994907595E+02 -0.19916099848E+01  0.13343096472E+02  0.48893006388E+02  0.00000000000E+00 0.  1.
<scales pt_clust_3="50.68199" pt_clust_4="115.70247" pt_clust_5="14000.00000" pt_clust_6="47.03709"></scales>
<clustering>
<clus scale="   47.037">  1  6  2 -1</clus>
<clus scale="   50.682">  2  3  1 -1</clus>
<clus scale="  115.702">  1  4  2 -1</clus>
<clus scale="   50.682">  2  3  1 -1</clus>
</clustering>
</event>
<event>
 6    0  0.1849053E+002  0.2600937E+03  0.7546771E-02  0.1107087E+00
         -2   -1    0    0    0  501 -0.00000000000E+00  0.00000000000E+00  0.31247725444E+03  0.31247725444E+03  0.00000000000E+00 0. -1.
         21   -1    0    0  505  502  0.00000000000E+00 -0.00000000000E+00 -0.27306987479E+03  0.27306987479E+03  0.00000000000E+00 0. -1.
         21    1    1    2  503  501 -0.84343332059E+01  0.32659976252E+02  0.27963717901E+02  0.43815311756E+02  0.00000000000E+00 0. -1.
         21    1    1    2  504  503  0.10802893597E+03  0.80899049758E+02 -0.34400093676E+02  0.13927768559E+03  0.00000000000E+00 0. -1.
         21    1    1    2  505  504  0.63653762009E+02  0.10016302959E+03 -0.31178389923E+02  0.12270503622E+03  0.00000000000E+00 0. -1.
         -2    1    1    2    0  502 -0.16324836477E+03 -0.21372205560E+03  0.77022145349E+02  0.27974909567E+03  0.00000000000E+00 0. -1.
<scales pt_clust_3="33.73147" pt_clust_4="43.01276" pt_clust_5="43.01276" pt_clust_6="256.07180"></scales>
<clustering>
<clus scale="   33.731">  1  3  2 -1</clus>
<clus scale="   43.013">  4  5 -1 -1</clus>
<clus scale="  256.072">  1  6  2 -1</clus>
<clus scale="  260.094">  2  3  1 -1</clus>
</clustering>
</event>
<event>
 6    0  0.1849053E+002  0.7349890E+02  0.7546771E-02  0.1348583E+00
         21   -1    0    0  504  502  0.00000000000E+00  0.00000000000E+00  0.36529769566E+02  0.36529769566E+02  0.00000000000E+00 0.  1.
          1   -1    0    0  503    0 -0.00000000000E+00 -0.00000000000E+00 -0.30075507947E+04  0.30075507947E+04  0.00000000000E+00 0. -1.
         21    1    1    2  503  502 -0.11315843518E+03  0.57943938406E+01 -0.72491920795E+03  0.73372083554E+03  0.00000000000E+00 0.  1.
         21    1    1    2  504  505  0.33706323496E+02 -0.13033095805E+01  0.15066563624E+02  0.36943418885E+02  0.00000000000E+00 0.  1.
         21    1    1    2  505  501  0.19538836038E+02 -0.41696718000E+02 -0.89936957644E+02  0.10103978798E+03  0.00000000000E+00 0.  1.
          1    1    1    2  501    0  0.59913275642E+02  0.37205633740E+02 -0.21712314232E+04  0.21723765219E+04  0.00000000000E+00 0. -1.
<scales pt_clust_3="14000.00000" pt_clust_4="33.73151" pt_clust_5="56.47143" pt_clust_6="73.49890"></scales>
<clustering>
<clus scale="   33.732">  1  4  2 -1</clus>
<clus scale="   56.471">  1  5  2 -1</clus>
<clus scale="   73.499">  2  6  1 -1</clus>
<clus scale="   33.732">  1  3  2 -1</clus>
</clustering>
</event>
<event>
 6    0  0.1849053E+002  0.4089092E+03  0.7546771E-02  0.1040738E+00
          2   -1    0    0  504    0 -0.00000000000E+00  0.00000000000E+00  0.64726327899E+03  0.64726327899E+03  0.00000000000E+00 0.  1.
         21   -1    0    0  503  502  0.00000000000E+00 -0.00000000000E+00 -0.13170206113E+04  0.13170206113E+04  0.00000000000E+00 0. -1.
         21    1    1    2  503  505  0.76081251763E+01 -0.42781220127E+02 -0.72736829313E+03  0.72866504665E+03  0.00000000000E+00 0. -1.
         21    1    1    2  504  502  0.22168526811E+03 -0.34700672896E+03  0.42724986443E+03  0.59338054796E+03  0.00000000000E+00 0. -1.
         21    1    1    2  505  501 -0.12670879215E+02  0.55225439837E+02 -0.20209260723E+03  0.20988525980E+03  0.00000000000E+00 0. -1.
          2    1    1    2  501    0 -0.21662251407E+03  0.33456250925E+03 -0.16754629636E+03  0.43235303586E+03  0.00000000000E+00 0.  1.
<scales pt_clust_3="43.45246" pt_clust_4="408.90916" pt_clust_5="41.48948" pt_clust_6="14000.00000"></scales>
<clustering>
<clus scale="   43.452">  2  3  1 -1</clus>
<clus scale="   41.489">  2  5  1 -1</clus>
<clus scale="  408.909">  1  4  2 -1</clus>
<clus scale="   43.452">  2  3  1 -1</clus>
</clustering>
</event>
<event>
 6    0  0.1849053E+002  0.1628096E+03  0.7546771E-02  0.1185561E+00
         21   -1    0    0  504  502  0.00000000000E+00  0.00000000000E+00  0.10087944330E+04  0.10087944330E+04  0.00000000000E+00 0. -1.
          1   -1    0    0  505    0 -0.00000000000E+00 -0.00000000000E+00 -0.12657759844E+04  0.12657759844E+04  0.00000000000E+00 0.  1.
         21    1    1    2  503  501 -0.86370224662E+02 -0.23550081095E+02 -0.80033774844E+02  0.12008258468E+03  0.00000000000E+00 0. -1.
         21    1    1    2  504  503  0.15078954775E+03  0.74469272807E+02  0.97887546123E+03  0.99321716100E+03  0.00000000000E+00 0. -1.
         21    1    1    2  505  502 -0.55099170961E+02  0.38044807929E+01 -0.47864232363E+03  0.48181829218E+03  0.00000000000E+00 0. -1.
          1    1    1    2  501    0 -0.93201521318E+01 -0.54723672505E+02 -0.67718091413E+03  0.67945237952E+03  0.00000000000E+00 0.  1.
<scales pt_clust_3="162.80956" pt_clust_4="14000.00000" pt_clust_5="55.23036" pt_clust_6="76.70280"></scales>
<clustering>
<clus scale="   55.230">  2  5  1 -1</clus>
<clus scale="   76.703">  2  6  1 -1</clus>
<clus scale="  162.810">  2  3  1 -1</clus>
<clus scale="  162.810">  1  3  2 -1</clus>
</clustering>
</event>
<event>
 6    0  0.1849053E+002  0.1648187E+03  0.7546771E-02  0.1183361E+00
          2   -1    0    0  504    0 -0.00000000000E+00  0.00000000000E+00  0.12845588949E+04  0.12845588949E+04  0.00000000000E+00 0. -1.
         21   -1    0    0  501  502  0.00000000000E+00 -0.00000000000E+00 -0.62265336696E+03  0.62265336696E+03  0.00000000000E+00 0. -1.
         21    1    1    2  503  505  0.20763986447E+02  0.11079876225E+03 -0.32319265044E+03  0.34228788782E+03  0.00000000000E+00 0. -1.
         21    1    1    2  504  503 -0.58107761997E+01 -0.10942263894E+03  0.10866111808E+04  0.10921222172E+04  0.00000000000E+00 0. -1.
         21    1    1    2  505  502  0.91146732330E+02  0.18809021097E+02 -0.26274414295E+03  0.27874000563E+03  0.00000000000E+00 0. -1.
          2    1    1    2  501    0 -0.10609994258E+03 -0.20185144406E+02  0.16123114059E+03  0.19406215129E+03  0.00000000000E+00 0. -1.
<scales pt_clust_3="14000.00000" pt_clust_4="164.81866" pt_clust_5="93.06721" pt_clust_6="103.66222"></scales>
<clustering>
<clus scale="   93.067">  2  5  1 -1</clus>
<clus scale="  103.662">  1  6  2 -1</clus>
<clus scale="  164.819">  1  4  2 -1</clus>
<clus scale="   93.067">  2  3  1 -1</clus>
</clustering>
</event>
<event>
 6    0  0.1849053E+002  0.9088401E+02  0.7546771E-02  0.1300725E+00
         21   -1    0    0  504  502  0.00000000000E+00  0.00000000000E+00  0.39712551328E+03  0.39712551328E+03  0.00000000000E+00 0. -1.
         -2   -1    0    0    0  501 -0.00000000000E+00 -0.00000000000E+00 -0.24849019791E+03  0.24849019791E+03  0.00000000000E+00 0. -1.
         21    1    1    2  503  501 -0.10313185942E+02  0.65270060697E+02 -0.74610310184E+01  0.66499696327E+02  0.00000000000E+00 0. -1.
         21    1    1    2  504  503  0.22815301342E+02  0.24285529907E+02  0.48976552150E+02  0.59237045830E+02  0.00000000000E+00 0.  1.
         21    1    1    2  505  502 -0.67127179427E+02 -0.11903761456E+01  0.29642987708E+03  0.30393773579E+03  0.00000000000E+00 0. -1.
         -2    1    1    2    0  505  0.54625064027E+02 -0.88365214458E+02 -0.18931008284E+03  0.21594123324E+03  0.00000000000E+00 0. -1.
<scales pt_clust_3="90.88401" pt_clust_4="33.32154" pt_clust_5="51.25095" pt_clust_6="14000.00000"></scales>
<clustering>
<clus scale="   33.322">  1  4  2 -1</clus>
<clus scale="   51.251">  1  5  2 -1</clus>
<clus scale="   90.884">  1  3  2 -1</clus>
<clus scale="   33.322">  1  3  2 -1</clus>
</clustering>
</event>
<event>
 6    0  0.1849053E+002  0.2970473E+03  0.7546771E-02  0.1086726E+00
         21   -1    0    0  504  502  0.00000000000E+00  0.00000000000E+00  0.12554577417E+04  0.12554577417E+04  0.00000000000E+00 0. -1.
         -1   -1    0    0    0  501 -0.00000000000E+00 -0.00000000000E+00 -0.11280536890E+03  0.11280536890E+03  0.00000000000E+00 0. -1.
         21    1    1    2  503  502  0.71250696947E+02  0.23897216754E+02  0.25092813489E+02  0.79229969536E+02  0.00000000000E+00 0.  1.
         21    1    1    2  504  505 -0.89066741969E+02 -0.47238114402E+02  0.45411308922E+03  0.46516988486E+03  0.00000000000E+00 0. -1.
         21    1    1    2  505  501 -0.19018353133E+03 -0.12662565547E+03  0.36237363275E+03  0.42839057170E+03  0.00000000000E+00 0. -1.
         -1    1    1    2    0  503  0.20799957635E+03  0.14996655312E+03  0.30107283738E+03  0.39547268455E+03  0.00000000000E+00 0. -1.
<scales pt_clust_3="56.12774" pt_clust_4="100.81827" pt_clust_5="278.36636" pt_clust_6="56.12774"></scales>
<clustering>
<clus scale="   56.128">  3  6 -1 -1</clus>
<clus scale="  100.818">  1  4  2 -1</clus>
<clus scale="  278.366">  1  5  2 -1</clus>
<clus scale="  100.818">  1  3  2 -1</clus>
</clustering>
</event>
<event>
 6    0  0.1849053E+002  0.8464659E+02  0.7546771E-02  0.1316359E+00
         21   -1    0    0  501  502  0.00000000000E+00  0.00000000000E+00  0.10693277246E+03  0.10693277246E+03  0.00000000000E+00 0. -1.
          1   -1    0    0  504    0 -0.00000000000E+00 -0.00000000000E+00 -0.23984129312E+03  0.23984129312E+03  0.00000000000E+00 0.  1.
         21    1    1    2  503  502 -0.80513704388E+02  0.40371450343E+02  0.44170473009E+02  0.10031620648E+03  0.00000000000E+00 0. -1.
         21    1    1    2  504  505 -0.30113412692E+02 -0.22243279442E+02 -0.19339283064E+02  0.42137738118E+02  0.00000000000E+00 0. -1.
         21    1    1    2  505  503  0.39805957402E+02 -0.32104362024E+02 -0.35145506811E+02  0.62051679709E+02  0.00000000000E+00 0. -1.
          1    1    1    2  501    0  0.70821159677E+02  0.13976191122E+02 -0.12259420379E+03  0.14226844126E+03  0.00000000000E+00 0.  1.
<scales pt_clust_3="84.64659" pt_clust_4="37.43770" pt_clust_5="49.65544" pt_clust_6="14000.00000"></scales>
<clustering>
<clus scale="   37.438">  2  4  1 -1</clus>
<clus scale="   49.655">  2  5  1 -1</clus>
<clus scale="   84.647">  1  3  2 -1</clus>
<clus scale="   84.647">  1  3  2 -1</clus>
</clustering>
</event>
<event>
 6    0  0.1849053E+002  0.1234200E+03  0.7546771E-02  0.1237559E+00
         -4   -1    0    0    0  501 -0.00000000000E+00  0.00000000000E+00  0.16482604361E+03  0.16482604361E+03  0.00000000000E+00 0.  1.
         21   -1    0    0  503  502  0.00000000000E+00 -0.00000000000E+00 -0.25507147620E+03  0.25507147620E+03  0.00000000000E+00 0.  1.
         21    1    1    2  503  504  0.39236628696E+02 -0.10335573330E+03 -0.15820430996E+03  0.19300394900E+03  0.00000000000E+00 0.  1.
         21    1    1    2  504  501  0.18708525727E+02 -0.42852549499E+02 -0.78103588236E+01  0.47406240500E+02  0.00000000000E+00 0.  1.
         21    1    1    2  505  502 -0.25627170581E+02  0.72318739369E+02  0.14210697176E+02  0.78030095797E+02  0.00000000000E+00 0. -1.
         -4    1    1    2    0  505 -0.32317983843E+02  0.73889543434E+02  0.61558539017E+02  0.10145723451E+03  0.00000000000E+00 0.  1.
<scales pt_clust_3="116.15630" pt_clust_4="46.75842" pt_clust_5="40.68873" pt_clust_6="40.68873"></scales>
<clustering>
<clus scale="   40.689">  5  6 -1 -1</clus>
<clus scale="   46.758">  1  4  2 -1</clus>
<clus scale="  116.156">  2  3  1 -1</clus>
<clus scale="  116.156">  2  3  1 -1</clus>
</clustering>
</event>
<event>
 6    0  0.1849053E+002  0.1385756E+03  0.7546771E-02  0.1215259E+00
         21   -1    0    0  504  502  0.00000000000E+00  0.00000000000E+00  0.51535269671E+03  0.51535269671E+03  0.00000000000E+00 0.  1.
          1   -1    0    0  503    0 -0.00000000000E+00 -0.00000000000E+00 -0.67079976460E+03  0.67079976460E+03  0.00000000000E+00 0.  1.
         21    1    1    2  503  502 -0.47862011998E+01  0.50692644100E+02  0.24648036116E+03  0.25168476379E+03  0.00000000000E+00 0.  1.
         21    1    1    2  504  505 -0.79751119580E+02  0.55186631207E+02  0.24978173340E+03  0.26794909904E+03  0.00000000000E+00 0.  1.
         21    1    1    2  505  501  0.50074503227E+02 -0.35616331513E+02 -0.29121675867E+03  0.29762926515E+03  0.00000000000E+00 0.  1.
          1    1    1    2  501    0  0.34462817553E+02 -0.70262943794E+02 -0.36049240378E+03  0.36888933334E+03  0.00000000000E+00 0.  1.
<scales pt_clust_3="50.91809" pt_clust_4="134.30548" pt_clust_5="30.24784" pt_clust_6="30.24784"></scales>
<clustering>
<clus scale="   30.248">  5  6 -1 -1</clus>
<clus scale="   50.918">  1  3  2 -1</clus>
<clus scale="  134.305">  1  4  2 -1</clus>
<clus scale="   50.918">  1  3  2 -1</clus>
</clustering>
</event>
<event>
 6    0  0.1849053E+002  0.1308272E+03  0.7546771E-02  0.1226233E+00
          2   -1    0    0  504    0 -0.00000000000E+00  0.00000000000E+00  0.30911576362E+04  0.30911576362E+04  0.00000000000E+00 0.  1.
         21   -1    0    0  501  502  0.00000000000E+00 -0.00000000000E+00 -0.22967387738E+02  0.22967387738E+02  0.00000000000E+00 0.  1.
         21    1    1    2  503  502  0.44948799669E+02  0.40040499205E+02  0.13802995961E+03  0.15058521149E+03  0.00000000000E+00 0.  1.
         21    1    1    2  504  505 -0.62303710246E+01 -0.92955683681E+02  0.66140484196E+03  0.66793408479E+03  0.00000000000E+00 0. -1.
         21    1    1    2  505  503  0.64359660638E+02  0.32991057044E+02  0.95396011107E+02  0.11971204909E+03  0.00000000000E+00 0.  1.
          2    1    1    2  501    0 -0.10307808928E+03  0.19924127432E+02  0.21733594358E+04  0.21758936786E+04  0.00000000000E+00 0.  1.
<scales pt_clust_3="32.77994" pt_clust_4="93.16425" pt_clust_5="32.77994" pt_clust_6="125.79663"></scales>
<clustering>
<clus scale="   32.780">  3  5 -1 -1</clus>
<clus scale="   93.164">  1  4  2 -1</clus>
<clus scale="  125.797">  1  6  2 -1</clus>
<clus scale="  130.827">  2  3  1 -1</clus>
</clustering>
</event>
<event>
 6    0  0.1849053E+002  0.1867246E+03  0.7546771E-02  0.1161449E+00
          2   -1    0    0  503    0 -0.00000000000E+00  0.00000000000E+00  0.59660583584E+03  0.59660583584E+03  0.00000000000E+00 0. -1.
         21   -1    0    0  505  502  0.00000000000E+00 -0.00000000000E+00 -0.66375885143E+03  0.66375885143E+03  0.00000000000E+00 0. -1.
         21    1    1    2  503  502 -0.31094216030E+02  0.22877437918E+02 -0.63247026956E+02  0.74097326908E+02  0.00000000000E+00 0.  1.
         21    1    1    2  504  501  0.10447470323E+03  0.36817536888E+02  0.17204287451E+03  0.20461975786E+03  0.00000000000E+00 0. -1.
         21    1    1    2  505  504 -0.12442025884E+03 -0.14358376930E+03 -0.55680992123E+03  0.58833152898E+03  0.00000000000E+00 0. -1.
          2    1    1    2  501    0  0.51039771645E+02  0.83888794491E+02  0.38086105807E+03  0.39331607352E+03  0.00000000000E+00 0. -1.
<scales pt_clust_3="38.60346" pt_clust_4="14000.00000" pt_clust_5="186.72464" pt_clust_6="98.23188"></scales>
<clustering>
<clus scale="   38.603">  2  3  1 -1</clus>
<clus scale="   98.232">  1  6  2 -1</clus>
<clus scale="  186.725">  2  5  1 -1</clus>
<clus scale="   38.603">  2  3  1 -1</clus>
</clustering>
</event>
<event>
 6    0  0.1849053E+002  0.1791595E+03  0.7546771E-02  0.1168619E+00
          1   -1    0    0  502    0 -0.00000000000E+00  0.00000000000E+00  0.40295904145E+04  0.40295904145E+04  0.00000000000E+00 0. -1.
         21   -1    0    0  505  502  0.00000000000E+00 -0.00000000000E+00 -0.28339341410E+02  0.28339341410E+02  0.00000000000E+00 0. -1.
         21    1    1    2  503  501  0.15466429654E+02 -0.44771787156E+02  0.65703162478E+03  0.65873688172E+03  0.00000000000E+00 0.  1.
         21    1    1    2  504  503 -0.20745712311E+01  0.41559935237E+02  0.66185743415E+02  0.78179822807E+02  0.00000000000E+00 0. -1.
         21    1    1    2  505  504 -0.11515672733E+03  0.75210177058E+02  0.21364725687E+03  0.25409209541E+03  0.00000000000E+00 0. -1.
          1    1    1    2  501    0  0.10176486891E+03 -0.71998325139E+02  0.30643864480E+04  0.30669209560E+04  0.00000000000E+00 0. -1.
<scales pt_clust_3="39.92713" pt_clust_4="37.78743" pt_clust_5="37.78743" pt_clust_6="177.69032"></scales>
<clustering>
<clus scale="   37.787">  4  5 -1 -1</clus>
<clus scale="   39.927">  3  6 -1 -1</clus>
<clus scale="  177.690">  1  3  2 -1</clus>
<clus scale="  179.159">  2  3  1 -1</clus>
</clustering>
</event>
<event>
 6    0  0.1849053E+002  0.1846658E+03  0.7546771E-02  0.1163362E+00
         21   -1    0    0  501  502  0.00000000000E+00  0.00000000000E+00  0.56618167616E+03  0.56618167616E+03  0.00000000000E+00 0. -1.
          1   -1    0    0  504    0 -0.00000000000E+00 -0.00000000000E+00 -0.57979910938E+03  0.57979910938E+03  0.00000000000E+00 0.  1.
         21    1    1    2  503  502 -0.22723828275E+02  0.40635754983E+02  0.25271381642E+03  0.25696674875E+03  0.00000000000E+00 0. -1.
         21    1    1    2  504  505  0.10145313090E+02 -0.68340834481E+02 -0.70802056566E+02  0.98925872496E+02  0.00000000000E+00 0.  1.
         21    1    1    2  505  503 -0.94446470155E+02  0.84184922232E+02  0.27581950903E+03  0.30345286029E+03  0.00000000000E+00 0. -1.
          1    1    1    2  501    0  0.10702498534E+03 -0.56479842735E+02 -0.47134870210E+03  0.48663530400E+03  0.00000000000E+00 0.  1.
<scales pt_clust_3="44.63339" pt_clust_4="69.08978" pt_clust_5="44.63339" pt_clust_6="169.37497"></scales>
<clustering>
<clus scale="   44.633">  3  5 -1 -1</clus>
<clus scale="   69.090">  2  4  1 -1</clus>
<clus scale="  169.375">  2  6  1 -1</clus>
<clus scale="  184.666">  1  3  2 -1</clus>
</clustering>
</event>
<event>
 6    0  0.1849053E+002  0.1095840E+03  0.7546771E-02  0.1261342E+00
         -2   -1    0    0    0  501 -0.00000000000E+00  0.00000000000E+00  0.10584024644E+04  0.10584024644E+04  0.00000000000E+00 0. -1.
         21   -1    0    0  504  502  0.00000000000E+00 -0.00000000000E+00 -0.82860747597E+03  0.82860747597E+03  0.00000000000E+00 0. -1.
         21    1    1    2  503  502  0.64423061489E+02 -0.26491743373E+02 -0.18407991974E+03  0.19681859711E+03  0.00000000000E+00 0. -1.
         21    1    1    2  504  505 -0.34095855993E+02 -0.50229506835E+02 -0.59010948391E+03  0.59322401650E+03  0.00000000000E+00 0. -1.
         21    1    1    2  505  501  0.80660175753E+02  0.59377233445E+02  0.14589219270E+02  0.10121543915E+03  0.00000000000E+00 0. -1.
         -2    1    1    2    0  503 -0.11098738125E+03  0.17344016763E+02  0.98939517285E+03  0.99575188765E+03  0.00000000000E+00 0. -1.
<scales pt_clust_3="76.42820" pt_clust_4="60.70857" pt_clust_5="14000.00000" pt_clust_6="109.58405"></scales>
<clustering>
<clus scale="   60.709">  2  4  1 -1</clus>
<clus scale="   76.428">  2  3  1 -1</clus>
<clus scale="  109.584">  1  6  2 -1</clus>
<clus scale="   60.709">  2  3  1 -1</clus>
</clustering>
</event>
<event>
 6    0  0.1849053E+002  0.1415052E+03  0.7546771E-02  0.1211318E+00
         21   -1    0    0  501  502  0.00000000000E+00  0.00000000000E+00  0.40077653154E+02  0.40077653154E+02  0.00000000000E+00 0.  1.
          2   -1    0    0  503    0 -0.00000000000E+00 -0.00000000000E+00 -0.14265679076E+04  0.14265679076E+04  0.00000000000E+00 0.  1.
         21    1    1    2  503  505  0.65389817853E+02  0.36270861084E+02 -0.88692855047E+03  0.89007508519E+03  0.00000000000E+00 0.  1.
         21    1    1    2  504  502 -0.47782408950E+02 -0.64328898128E+02 -0.15112468766E+03  0.17105565456E+03  0.00000000000E+00 0.  1.
         21    1    1    2  505  504  0.58830966667E+00 -0.88851201219E+02 -0.15986190825E+03  0.18289535745E+03  0.00000000000E+00 0.  1.
          2    1    1    2  501    0 -0.18195718569E+02  0.11690923826E+03 -0.18857510804E+03  0.22261946352E+03  0.00000000000E+00 0.  1.
<scales pt_clust_3="74.77569" pt_clust_4="50.93986" pt_clust_5="50.93986" pt_clust_6="130.94465"></scales>
<clustering>
<clus scale="   50.940">  4  5 -1 -1</clus>
<clus scale="   74.776">  2  3  1 -1</clus>
<clus scale="  130.945">  1  6  2 -1</clus>
<clus scale="  130.945">  1  3  2 -1</clus>
</clustering>
</event>
<event>
 6    0  0.1849053E+002  0.1328734E+03  0.7546771E-02  0.1223253E+00
         21   -1    0    0  503  502  0.00000000000E+00  0.00000000000E+00  0.27449406177E+03  0.27449406177E+03  0.00000000000E+00 0.  1.
          1   -1    0    0  505    0 -0.00000000000E+00 -0.00000000000E+00 -0.16890817773E+04  0.16890817773E+04  0.00000000000E+00 0. -1.
         21    1    1    2  503  501 -0.99004070648E+02  0.85858062113E+02  0.21756949448E+03  0.25398798744E+03  0.00000000000E+00 0.  1.
         21    1    1    2  504  502 -0.27618716025E+02 -0.63924098345E+02 -0.56653347813E+02  0.89770182369E+02  0.00000000000E+00 0.  1.
         21    1    1    2  505  504 -0.73408485666E+02  0.83041549074E+02 -0.22804146550E+03  0.25355002392E+03  0.00000000000E+00 0.  1.
          1    1    1    2  501    0  0.20003127234E+03 -0.10497551284E+03 -0.13474623967E+04  0.13662676454E+04  0.00000000000E+00 0. -1.
<scales pt_clust_3="14000.00000" pt_clust_4="69.63536" pt_clust_5="109.41707" pt_clust_6="132.87342"></scales>
<clustering>
<clus scale="   69.635">  1  4  2 -1</clus>
<clus scale="  109.417">  2  5  1 -1</clus>
<clus scale="  132.873">  2  6  1 -1</clus>
<clus scale="   69.635">  1  3  2 -1</clus>
</clustering>
</event>
<event>
 6    0  0.1849053E+002  0.1644726E+03  0.7546771E-02  0.1183738E+00
         21   -1    0    0  501  502  0.00000000000E+00  0.00000000000E+00  0.59352522982E+02  0.59352522982E+02  0.00000000000E+00 0. -1.
         -2   -1    0    0    0  501 -0.00000000000E+00 -0.00000000000E+00 -0.10362096092E+04  0.10362096092E+04  0.00000000000E+00 0. -1.
         21    1    1    2  503  502 -0.58515560178E+02 -0.33280859775E+02 -0.44704926362E+02  0.80809757154E+02  0.00000000000E+00 0.  1.
         21    1    1    2  504  503 -0.34184787180E+02 -0.89135043147E+02 -0.32152846209E+02  0.10073460731E+03  0.00000000000E+00 0. -1.
         21    1    1    2  505  504  0.32681645568E+02  0.67085798295E+02 -0.52180574771E+03  0.52711462950E+03  0.00000000000E+00 0. -1.
         -2    1    1    2    0  505  0.60018701790E+02  0.55330104626E+02 -0.37819356589E+03  0.38690313816E+03  0.00000000000E+00 0. -1.
<scales pt_clust_3="49.48187" pt_clust_4="49.48187" pt_clust_5="41.13173" pt_clust_6="159.46697"></scales>
<clustering>
<clus scale="   41.132">  5  6 -1 -1</clus>
<clus scale="   49.482">  3  4 -1 -1</clus>
<clus scale="  159.467">  2  5  1 -1</clus>
<clus scale="  164.473">  1  3  2 -1</clus>
</clustering>
</event>
<event>
 6    0  0.1849053E+002  0.2326157E+03  0.7546771E-02  0.1124812E+00
         21   -1    0    0  503  502  0.00000000000E+00  0.00000000000E+00  0.14652465816E+03  0.14652465816E+03  0.00000000000E+00 0.  1.
          2   -1    0    0  502    0 -0.00000000000E+00 -0.00000000000E+00 -0.16992306331E+04  0.16992306331E+04  0.00000000000E+00 0.  1.
         21    1    1    2  503  504 -0.25357544071E+02  0.16866967358E+02 -0.97028152345E+01  0.31963170253E+02  0.00000000000E+00 0. -1.
         21    1    1    2  504  505  0.62068241117E+02 -0.87713435704E+02 -0.13623118679E+03  0.17350806786E+03  0.00000000000E+00 0. -1.
         21    1    1    2  505  501  0.48745906217E+02 -0.15262590924E+03  0.46986916657E+02  0.16696886501E+03  0.00000000000E+00 0.  1.
          2    1    1    2  501    0 -0.85456603263E+02  0.22347237759E+03 -0.14537588896E+04  0.14733151881E+04  0.00000000000E+00 0.  1.
<scales pt_clust_3="30.45488" pt_clust_4="103.55210" pt_clust_5="232.61572" pt_clust_6="14000.00000"></scales>
<clustering>
<clus scale="   30.455">  1  3  2 -1</clus>
<clus scale="  103.552">  1  4  2 -1</clus>
<clus scale="  232.616">  1  5  2 -1</clus>
<clus scale="   30.455">  1  3  2 -1</clus>
</clustering>
</event>
<event>
 6    0  0.1849053E+002  0.1298046E+03  0.7546771E-02  0.1227746E+00
         -2   -1    0    0    0  501 -0.00000000000E+00  0.00000000000E+00  0.56958323857E+03  0.56958323857E+03  0.00000000000E+00 0. -1.
         21   -1    0    0  505  502  0.00000000000E+00 -0.00000000000E+00 -0.21587959809E+03  0.21587959809E+03  0.00000000000E+00 0. -1.
         21    1    1    2  503  502  0.49360954233E+02 -0.11886393669E+03 -0.10505925336E+03  0.16614025991E+03  0.00000000000E+00 0. -1.
         21    1    1    2  504  501  0.33811990752E+02 -0.29770028140E+02  0.25910740280E+03  0.26299458451E+03  0.00000000000E+00 0. -1.
         21    1    1    2  505  504  0.77273571228E+02  0.74336925839E+02  0.30136774880E+02  0.11137956973E+03  0.00000000000E+00 0. -1.
         -2    1    1    2    0  503 -0.16044651621E+03  0.74297038990E+02  0.16951871615E+03  0.24494842252E+03  0.00000000000E+00 0. -1.
<scales pt_clust_3="129.80463" pt_clust_4="45.05003" pt_clust_5="108.56928" pt_clust_6="14000.00000"></scales>
<clustering>
<clus scale="   45.050">  1  4  2 -1</clus>
<clus scale="  108.569">  1  5  2 -1</clus>
<clus scale="  129.805">  2  3  1 -1</clus>
<clus scale="  129.805">  2  3  1 -1</clus>
</clustering>
</event>
<event>
 6    0  0.1849053E+002  0.7577634E+02  0.7546771E-02  0.1341484E+00
         21   -1    0    0  503  502  0.00000000000E+00  0.00000000000E+00  0.34159622359E+03  0.34159622359E+03  0.00000000000E+00 0. -1.
          1   -1    0    0  505    0 -0.00000000000E+00 -0.00000000000E+00 -0.11400487917E+04  0.11400487917E+04  0.00000000000E+00 0.  1.
         21    1    1    2  503  504 -0.51167357589E+02 -0.18673566497E+02  0.28902335212E+03  0.29411103114E+03  0.00000000000E+00 0. -1.
         21    1    1    2  504  501  0.32838850248E+02 -0.52974612614E+02 -0.25412960148E+02  0.67309124275E+02  0.00000000000E+00 0.  1.
         21    1    1    2  505  502 -0.52908095964E+02  0.96305642675E+02 -0.81597182801E+02  0.13686542175E+03  0.00000000000E+00 0. -1.
          1    1    1    2  501    0  0.71236603305E+02 -0.24657463564E+02 -0.98046577729E+03  0.98335943815E+03  0.00000000000E+00 0.  1.
<scales pt_clust_3="54.46834" pt_clust_4="61.85581" pt_clust_5="14000.00000" pt_clust_6="75.77634"></scales>
<clustering>
<clus scale="   54.468">  1  3  2 -1</clus>
<clus scale="   61.856">  1  4  2 -1</clus>
<clus scale="   75.776">  2  6  1 -1</clus>
<clus scale="   54.468">  1  3  2 -1</clus>
</clustering>
</event>
<event>
 6    0  0.1849053E+002  0.1490945E+03  0.7546771E-02  0.1201590E+00
         21   -1    0    0  503  502  0.00000000000E+00  0.00000000000E+00  0.12199808953E+03  0.12199808953E+03  0.00000000000E+00 0. -1.
          2   -1    0    0  504    0 -0.00000000000E+00 -0.00000000000E+00 -0.85958176071E+03  0.85958176071E+03  0.00000000000E+00 0.  1.
         21    1    1    2  503  505 -0.31751980310E+02 -0.82012362490E+02  0.11316865190E+02  0.88669539823E+02  0.00000000000E+00 0. -1.
         21    1    1    2  504  502  0.11063096492E+03  0.24750085902E+02 -0.34128424179E+02  0.11839141223E+03  0.00000000000E+00 0.  1.
         21    1    1    2  505  501 -0.41820539337E+02 -0.72227022569E+02 -0.52299851526E+02  0.98493526535E+02  0.00000000000E+00 0. -1.
          2    1    1    2  501    0 -0.37058445277E+02  0.12948929916E+03 -0.66247226067E+03  0.67602537165E+03  0.00000000000E+00 0.  1.
<scales pt_clust_3="62.73950" pt_clust_4="113.36568" pt_clust_5="62.73950" pt_clust_6="134.46733"></scales>
<clustering>
<clus scale="   62.739">  3  5 -1 -1</clus>
<clus scale="  113.366">  1  4  2 -1</clus>
<clus scale="  134.467">  2  6  1 -1</clus>
<clus scale="  113.366">  1  3  2 -1</clus>
</clustering>
</event>
<event>
 6    0  0.1849053E+002  0.1159164E+03  0.7546771E-02  0.1249990E+00
          2   -1    0    0  504    0 -0.00000000000E+00  0.00000000000E+00  0.14458020575E+04  0.14458020575E+04  0.00000000000E+00 0.  1.
         21   -1    0    0  505  502  0.00000000000E+00 -0.00000000000E+00 -0.24845463959E+03  0.24845463959E+03  0.00000000000E+00 0.  1.
         21    1    1    2  503  502 -0.74578567693E+02 -0.89522255461E+02 -0.18714022909E+03  0.22044877484E+03  0.00000000000E+00 0.  1.
         21    1    1    2  504  503  0.76347063675E+02 -0.51719328299E+02  0.98932112289E+03  0.99360960505E+03  0.00000000000E+00 0. -1.
         21    1    1    2  505  501 -0.40612653024E+02  0.12157550038E+03  0.58794947173E+02  0.14102069242E+03  0.00000000000E+00 0. -1.
          2    1    1    2  501    0  0.38844157042E+02  0.19666083377E+02  0.33637157698E+03  0.33917762481E+03  0.00000000000E+00 0.  1.
<scales pt_clust_3="115.91642" pt_clust_4="14000.00000" pt_clust_5="112.06325" pt_clust_6="43.53876"></scales>
<clustering>
<clus scale="   43.539">  1  6  2 -1</clus>
<clus scale="  115.916">  2  3  1 -1</clus>
<clus scale="  112.063">  2  5  1 -1</clus>
<clus scale="  115.916">  2  3  1 -1</clus>
</clustering>
</event>
<event>
 6    0  0.1849053E+002  0.1375173E+03  0.7546771E-02  0.1216709E+00
         21   -1    0    0  501  502  0.00000000000E+00  0.00000000000E+00  0.21216832943E+03  0.21216832943E+03  0.00000000000E+00 0. -1.
          2   -1    0    0  504    0 -0.00000000000E+00 -0.00000000000E+00 -0.34078583482E+04  0.34078583482E+04  0.00000000000E+00 0. -1.
         21    1    1    2  503  502 -0.43442741035E+02  0.54882029039E+02  0.11518727559E+03  0.13478656208E+03  0.00000000000E+00 0. -1.
         21    1    1    2  504  505  0.37811901529E+02  0.42340990602E+02 -0.34372697580E+03  0.34838302668E+03  0.00000000000E+00 0. -1.
         21    1    1    2  505  503 -0.56678786930E+02  0.32912459270E+02  0.70223911498E+02  0.96057860736E+02  0.00000000000E+00 0. -1.
          2    1    1    2  501    0  0.62309626436E+02 -0.13013547891E+03 -0.30373742300E+04  0.30407992281E+04  0.00000000000E+00 0. -1.
<scales pt_clust_3="33.23542" pt_clust_4="56.76706" pt_clust_5="33.23542" pt_clust_6="133.15913"></scales>
<clustering>
<clus scale="   33.235">  3  5 -1 -1</clus>
<clus scale="   56.767">  2  4  1 -1</clus>
<clus scale="  133.159">  2  6  1 -1</clus>
<clus scale="  137.517">  1  3  2 -1</clus>
</clustering>
</event>
<event>
 6    0  0.1849053E+002  0.9978029E+02  0.7546771E-02  0.1280759E+00
         -2   -1    0    0    0  501 -0.00000000000E+00  0.00000000000E+00  0.13486376819E+03  0.13486376819E+03  0.00000000000E+00 0.  1.
         21   -1    0    0  505  502  0.00000000000E+00 -0.00000000000E+00 -0.51843968481E+03  0.51843968481E+03  0.00000000000E+00 0. -1.
         21    1    1    2  503  502 -0.55076627151E+01  0.38657580689E+02 -0.95928832888E+02  0.10357163643E+03  0.00000000000E+00 0. -1.
         21    1    1    2  504  501 -0.62594460936E+02 -0.30111150799E+01 -0.13245345373E+03  0.14653003364E+03  0.00000000000E+00 0. -1.
         21    1    1    2  505  504 -0.37066991556E+02 -0.22008071972E+02 -0.25437402212E+03  0.25800089190E+03  0.00000000000E+00 0. -1.
         -2    1    1    2    0  503  0.10516911521E+03 -0.13638393637E+02  0.99180392121E+02  0.14520089103E+03  0.00000000000E+00 0.  1.
<scales pt_clust_3="39.04796" pt_clust_4="14000.00000" pt_clust_5="40.47049" pt_clust_6="99.78029"></scales>
<clustering>
<clus scale="   39.048">  2  3  1 -1</clus>
<clus scale="   40.470">  2  5  1 -1</clus>
<clus scale="   99.780">  1  6  2 -1</clus>
<clus scale="   39.048">  2  3  1 -1</clus>
</clustering>
</event>
<event>
 6    0  0.1849053E+002  0.1002732E+03  0.7546771E-02  0.1279722E+00
         21   -1    0    0  503  502  0.00000000000E+00  0.00000000000E+00  0.58155927422E+03  0.58155927422E+03  0.00000000000E+00 0. -1.
         -1   -1    0    0    0  501 -0.00000000000E+00 -0.00000000000E+00 -0.12850933425E+03  0.12850933425E+03  0.00000000000E+00 0.  1.
         21    1    1    2  503  501  0.68143786368E+02 -0.34329079683E+02  0.25105567690E+03  0.26239476792E+03  0.00000000000E+00 0. -1.
         21    1    1    2  504  505 -0.34960445026E+02 -0.14084379730E+02 -0.42050881717E+02  0.56470161342E+02  0.00000000000E+00 0.  1.
         21    1    1    2  505  502 -0.21601333552E+02  0.10944731379E+03  0.29209047065E+03  0.31266943431E+03  0.00000000000E+00 0.  1.
         -1    1    1    2    0  504 -0.11582007790E+02 -0.61033854375E+02 -0.48045325863E+02  0.78534244897E+02  0.00000000000E+00 0.  1.
<scales pt_clust_3="76.30243" pt_clust_4="37.35490" pt_clust_5="88.06139" pt_clust_6="37.35490"></scales>
<clustering>
<clus scale="   37.355">  4  6 -1 -1</clus>
<clus scale="   76.302">  1  3  2 -1</clus>
<clus scale="   88.061">  1  5  2 -1</clus>
<clus scale="   76.302">  1  3  2 -1</clus>
</clustering>
</event>
<event>
 6    0  0.1849053E+002  0.1015607E+03  0.7546771E-02  0.1277048E+00
         21   -1    0    0  505  502  0.00000000000E+00  0.00000000000E+00  0.82261496849E+03  0.82261496849E+03  0.00000000000E+00 0. -1.
          2   -1    0    0  504    0 -0.00000000000E+00 -0.00000000000E+00 -0.32396495134E+03  0.32396495134E+03  0.00000000000E+00 0. -1.
         21    1    1    2  503  502  0.92261799319E+01  0.72152133426E+02  0.65481995433E+03  0.65884764957E+03  0.00000000000E+00 0. -1.
         21    1    1    2  504  503 -0.88502357724E+02 -0.10626130840E+03 -0.13836546724E+03  0.19562498692E+03  0.00000000000E+00 0. -1.
         21    1    1    2  505  501  0.55362789966E+02  0.56149259541E+01  0.12909149222E+03  0.14057446166E+03  0.00000000000E+00 0. -1.
          2    1    1    2  501    0  0.23913387826E+02  0.28494249015E+02 -0.14689596216E+03  0.15153282167E+03  0.00000000000E+00 0. -1.
<scales pt_clust_3="101.56070" pt_clust_4="14000.00000" pt_clust_5="56.52936" pt_clust_6="37.19909"></scales>
<clustering>
<clus scale="   37.199">  2  6  1 -1</clus>
<clus scale="   56.529">  1  5  2 -1</clus>
<clus scale="  101.561">  1  3  2 -1</clus>
<clus scale="   56.529">  1  3  2 -1</clus>
</clustering>
</event>
<event>
 6    0  0.1849053E+002  0.9962237E+02  0.7546771E-02  0.1281092E+00
         21   -1    0    0  505  502  0.00000000000E+00  0.00000000000E+00  0.12146249807E+03  0.12146249807E+03  0.00000000000E+00 0.  1.
          2   -1    0    0  504    0 -0.00000000000E+00 -0.00000000000E+00 -0.16754817009E+04  0.16754817009E+04  0.00000000000E+00 0.  1.
         21    1    1    2  503  502  0.22327827219E+02 -0.90108104542E+02  0.81910493909E+02  0.12380360005E+03  0.00000000000E+00 0.  1.
         21    1    1    2  504  503 -0.61313469113E+02 -0.27288685058E+02 -0.14652390291E+03  0.16116224108E+03  0.00000000000E+00 0.  1.
         21    1    1    2  505  501 -0.45558279913E+02  0.47064710631E+02 -0.10877833955E+03  0.12697783669E+03  0.00000000000E+00 0. -1.
          2    1    1    2  501    0  0.84543921806E+02  0.70332078970E+02 -0.13806274542E+04  0.13850005211E+04  0.00000000000E+00 0.  1.
<scales pt_clust_3="50.86050" pt_clust_4="14000.00000" pt_clust_5="65.50301" pt_clust_6="99.62237"></scales>
<clustering>
<clus scale="   65.503">  1  5  2 -1</clus>
<clus scale="   50.861">  1  3  2 -1</clus>
<clus scale="   99.622">  2  6  1 -1</clus>
<clus scale="   65.503">  1  3  2 -1</clus>
</clustering>
</event>
<event>
 6    0  0.1849053E+002  0.1196149E+03  0.7546771E-02  0.1243734E+00
         21   -1    0    0  503  502  0.00000000000E+00  0.00000000000E+00  0.47379510837E+03  0.47379510837E+03  0.00000000000E+00 0. -1.
          2   -1    0    0  505    0 -0.00000000000E+00 -0.00000000000E+00 -0.10040921558E+04  0.10040921558E+04  0.00000000000E+00 0. -1.
         21    1    1    2  503  504 -0.35094421619E+02  0.11642437940E+03  0.37975448804E+03  0.39874769684E+03  0.00000000000E+00 0. -1.
         21    1    1    2  504  501  0.65108384535E+02 -0.94424783611E+02  0.26468076129E+02  0.11771023979E+03  0.00000000000E+00 0. -1.
         21    1    1    2  505  502  0.41252213361E+02 -0.32189401796E+02 -0.51267369637E+02  0.73254664594E+02  0.00000000000E+00 0. -1.
          2    1    1    2  501    0 -0.71266176277E+02  0.10189806011E+02 -0.88525224197E+03  0.88817466297E+03  0.00000000000E+00 0. -1.
<scales pt_clust_3="119.61492" pt_clust_4="14000.00000" pt_clust_5="52.32497" pt_clust_6="38.16057"></scales>
<clustering>
<clus scale="   52.325">  2  5  1 -1</clus>
<clus scale="   38.161">  2  6  1 -1</clus>
<clus scale="  119.615">  1  3  2 -1</clus>
<clus scale="  119.615">  1  3  2 -1</clus>
</clustering>
</event>
<event>
 6    0  0.1849053E+002  0.3094007E+03  0.7546771E-02  0.1080633E+00
         21   -1    0    0  503  502  0.00000000000E+00  0.00000000000E+00  0.12824385191E+04  0.12824385191E+04  0.00000000000E+00 0.  1.
          2   -1    0    0  502    0 -0.00000000000E+00 -0.00000000000E+00 -0.14982313161E+03  0.14982313161E+03  0.00000000000E+00 0. -1.
         21    1    1    2  503  505 -0.87154261418E+02 -0.17786961288E+03  0.63649977653E+03  0.66660740320E+03  0.00000000000E+00 0.  1.
         21    1    1    2  504  501  0.75888055961E+02  0.94550467358E+02  0.56788839477E+02  0.13387964821E+03  0.00000000000E+00 0. -1.
         21    1    1    2  505  504 -0.65893714827E+02 -0.80149550991E+02  0.43891239388E+03  0.45101000175E+03  0.00000000000E+00 0.  1.
          2    1    1    2  501    0  0.77159920284E+02  0.16346869651E+03  0.41437765514E+00  0.18076459760E+03  0.00000000000E+00 0. -1.
<scales pt_clust_3="304.23236" pt_clust_4="61.99945" pt_clust_5="36.61828" pt_clust_6="61.99945"></scales>
<clustering>
<clus scale="   36.618">  3  5 -1 -1</clus>
<clus scale="   61.999">  4  6 -1 -1</clus>
<clus scale="  304.232">  1  3  2 -1</clus>
<clus scale="  304.232">  1  3  2 -1</clus>
</clustering>
</event>
<event>
 6    0  0.2497723E+002  0.1407183E+03  0.7546771E-02  0.1212366E+00
          2   -1    0    0  503    0 -0.00000000000E+00  0.00000000000E+00  0.61609874399E+03  0.61609874399E+03  0.00000000000E+00 0. -1.
         21   -1    0    0  505  502  0.00000000000E+00 -0.00000000000E+00 -0.13311685505E+04  0.13311685505E+04  0.00000000000E+00 0.  1.
         21    1    1    2  503  502  0.14533896444E+03  0.26824574353E+02 -0.12899419027E+04  0.12983809474E+04  0.00000000000E+00 0.  1.
         21    1    1    2  504  501 -0.48451222346E+02  0.17359109157E+02  0.11747329959E+03  0.12825301452E+03  0.00000000000E+00 0. -1.
         21    1    1    2  505  504 -0.67179856209E+02 -0.25485587868E+02  0.10801843003E+02  0.72658984864E+02  0.00000000000E+00 0.  1.
          2    1    1    2  501    0 -0.29707885883E+02 -0.18698095642E+02  0.44659695355E+03  0.44797434769E+03  0.00000000000E+00 0. -1.
<scales pt_clust_3="140.71829" pt_clust_4="70.17309" pt_clust_5="14000.00000" pt_clust_6="35.10238"></scales>
<clustering>
<clus scale="   35.102">  1  6  2 -1</clus>
<clus scale="   70.173">  1  4  2 -1</clus>
<clus scale="  140.718">  2  3  1 -1</clus>
<clus scale="  140.718">  2  3  1 -1</clus>
</clustering>
</event>
<event>
 6    0  0.1849053E+002  0.1361746E+03  0.7546771E-02  0.1218571E+00
          2   -1    0    0  504    0 -0.00000000000E+00  0.00000000000E+00  0.10503685307E+04  0.10503685307E+04  0.00000000000E+00 0. -1.
         21   -1    0    0  501  502  0.00000000000E+00 -0.00000000000E+00 -0.78526183395E+02  0.78526183395E+02  0.00000000000E+00 0.  1.
         21    1    1    2  503  505 -0.36411877178E+02  0.64417743376E+02  0.71154089672E+01  0.74337739447E+02  0.00000000000E+00 0.  1.
         21    1    1    2  504  503 -0.63495926793E+02 -0.19818951250E+02  0.15568546326E+03  0.16929999119E+03  0.00000000000E+00 0.  1.
         21    1    1    2  505  502  0.23843323859E+01  0.61994696730E+02 -0.13824706688E+01  0.62055931938E+02  0.00000000000E+00 0. -1.
          2    1    1    2  501    0  0.97523471585E+02 -0.10659348886E+03  0.81042394574E+03  0.82320105151E+03  0.00000000000E+00 0. -1.
<scales pt_clust_3="34.65475" pt_clust_4="66.51709" pt_clust_5="34.65475" pt_clust_6="130.80954"></scales>
<clustering>
<clus scale="   34.655">  3  5 -1 -1</clus>
<clus scale="   66.517">  1  4  2 -1</clus>
<clus scale="  130.810">  1  6  2 -1</clus>
<clus scale="  136.175">  2  3  1 -1</clus>
</clustering>
</event>
<event>
 6    0  0.1849053E+002  0.1844525E+03  0.7546771E-02  0.1163562E+00
          2   -1    0    0  502    0 -0.00000000000E+00  0.00000000000E+00  0.10632549044E+04  0.10632549044E+04  0.00000000000E+00 0. -1.
         21   -1    0    0  504  502  0.00000000000E+00 -0.00000000000E+00 -0.11483405151E+03  0.11483405151E+03  0.00000000000E+00 0. -1.
         21    1    1    2  503  501  0.48737210034E+02  0.11486472580E+03  0.64821694371E+03  0.66011697977E+03  0.00000000000E+00 0.  1.
         21    1    1    2  504  505 -0.77907610457E+02 -0.10712339111E+02 -0.28537767346E+02  0.83658556893E+02  0.00000000000E+00 0. -1.
         21    1    1    2  505  503 -0.28374699567E+02 -0.13836034139E+03  0.53476531606E+02  0.15102465718E+03  0.00000000000E+00 0. -1.
          2    1    1    2  501    0  0.57545099989E+02  0.34207954697E+02  0.27526514495E+03  0.28328876208E+03  0.00000000000E+00 0. -1.
<scales pt_clust_3="44.41372" pt_clust_4="78.64064" pt_clust_5="174.20131" pt_clust_6="44.41372"></scales>
<clustering>
<clus scale="   44.414">  3  6 -1 -1</clus>
<clus scale="   78.641">  2  4  1 -1</clus>
<clus scale="  174.201">  2  5  1 -1</clus>
<clus scale="   78.641">  2  3  1 -1</clus>
</clustering>
</event>
<event>
 6    0  0.1849053E+002  0.2339264E+03  0.7546771E-02  0.1123906E+00
          2   -1    0    0  504    0 -0.00000000000E+00  0.00000000000E+00  0.21247332424E+04  0.21247332424E+04  0.00000000000E+00 0.  1.
         21   -1    0    0  505  502  0.00000000000E+00 -0.00000000000E+00 -0.19656881919E+03  0.19656881919E+03  0.00000000000E+00 0.  1.
         21    1    1    2  503  502 -0.92290757629E+02  0.23348772036E+03 -0.49846883934E+02  0.25596642620E+03  0.00000000000E+00 0.  1.
         21    1    1    2  504  503 -0.39869357491E+02  0.10319311695E+03  0.31187514378E+03  0.33091462700E+03  0.00000000000E+00 0.  1.
         21    1    1    2  505  501  0.39656402780E+02 -0.16163887352E+02  0.86399950076E+01  0.43686966587E+02  0.00000000000E+00 0.  1.
          2    1    1    2  501    0  0.92503712340E+02 -0.32051694996E+03  0.16574961684E+04  0.16907340419E+04  0.00000000000E+00 0.  1.
<scales pt_clust_3="14000.00000" pt_clust_4="109.07826" pt_clust_5="42.82408" pt_clust_6="233.92637"></scales>
<clustering>
<clus scale="   42.824">  2  5  1 -1</clus>
<clus scale="  109.078">  1  4  2 -1</clus>
<clus scale="  233.926">  1  6  2 -1</clus>
<clus scale="   42.824">  2  3  1 -1</clus>
</clustering>
</event>
<event>
 6    0  0.1849053E+002  0.1077233E+03  0.7546771E-02  0.1264845E+00
          3   -1    0    0  505    0 -0.00000000000E+00  0.00000000000E+00  0.54521392726E+03  0.54521392726E+03  0.00000000000E+00 0. -1.
         21   -1    0    0  503  502  0.00000000000E+00 -0.00000000000E+00 -0.25692793590E+03  0.25692793590E+03  0.00000000000E+00 0. -1.
         21    1    1    2  503  504  0.10606200198E+03 -0.68807019435E+02 -0.13716434763E+03  0.18654118164E+03  0.00000000000E+00 0. -1.
         21    1    1    2  504  501 -0.73133965327E+02  0.31415965101E+02  0.23585854370E+03  0.24892728332E+03  0.00000000000E+00 0. -1.
         21    1    1    2  505  502  0.75725949459E+01  0.71945079752E+02 -0.70604644039E+02  0.10108637126E+03  0.00000000000E+00 0. -1.
          3    1    1    2  501    0 -0.40500631597E+02 -0.34554025418E+02  0.26019643933E+03  0.26558702693E+03  0.00000000000E+00 0. -1.
<scales pt_clust_3="107.72327" pt_clust_4="14000.00000" pt_clust_5="70.28640" pt_clust_6="53.23797"></scales>
<clustering>
<clus scale="   53.238">  1  6  2 -1</clus>
<clus scale="   70.286">  2  5  1 -1</clus>
<clus scale="  107.723">  2  3  1 -1</clus>
<clus scale="   70.286">  2  3  1 -1</clus>
</clustering>
</event>
<event>
 6    0  0.1849053E+002  0.1495800E+03  0.7546771E-02  0.1200990E+00
         21   -1    0    0  505  502  0.00000000000E+00  0.00000000000E+00  0.98605930782E+02  0.98605930782E+02  0.00000000000E+00 0. -1.
          3   -1    0    0  504    0 -0.00000000000E+00 -0.00000000000E+00 -0.71776725344E+03  0.71776725344E+03  0.00000000000E+00 0. -1.
         21    1    1    2  503  501  0.73831879596E+02 -0.15334830972E+02 -0.20507135049E+03  0.21849613790E+03  0.00000000000E+00 0.  1.
         21    1    1    2  504  502 -0.13620097813E+03  0.39580645103E+02 -0.65204114991E+02  0.15610544681E+03  0.00000000000E+00 0. -1.
         21    1    1    2  505  503  0.28928539499E+01 -0.47817723192E+02  0.30656681325E+02  0.56874733978E+02  0.00000000000E+00 0. -1.
          3    1    1    2  501    0  0.59476244586E+02  0.23571909061E+02 -0.37954253850E+03  0.38489686553E+03  0.00000000000E+00 0. -1.
<scales pt_clust_3="60.55876" pt_clust_4="133.80344" pt_clust_5="47.90515" pt_clust_6="60.55876"></scales>
<clustering>
<clus scale="   47.905">  1  5  2 -1</clus>
<clus scale="   60.559">  3  6 -1 -1</clus>
<clus scale="  133.803">  1  4  2 -1</clus>
<clus scale="   47.905">  1  3  2 -1</clus>
</clustering>
</event>
<event>
 6    0  0.1849053E+002  0.8805963E+02  0.7546771E-02  0.1307620E+00
         21   -1    0    0  503  502  0.00000000000E+00  0.00000000000E+00  0.93574905506E+02  0.93574905506E+02  0.00000000000E+00 0.  1.
          2   -1    0    0  505    0 -0.00000000000E+00 -0.00000000000E+00 -0.14914920271E+04  0.14914920271E+04  0.00000000000E+00 0.  1.
         21    1    1    2  503  501  0.18148741653E+01 -0.35153197368E+02  0.20307977358E+02  0.40638097861E+02  0.00000000000E+00 0.  1.
         21    1    1    2  504  502 -0.56622767272E+02  0.10447327328E+03  0.35104127285E+01  0.11888282298E+03  0.00000000000E+00 0.  1.
         21    1    1    2  505  504  0.24258314999E+02 -0.65541321178E+02 -0.79916083881E+03  0.80221080579E+03  0.00000000000E+00 0. -1.
          2    1    1    2  501    0  0.30549578107E+02 -0.37787547338E+01 -0.62257467287E+03  0.62333520598E+03  0.00000000000E+00 0.  1.
<scales pt_clust_3="35.26440" pt_clust_4="14000.00000" pt_clust_5="88.05963" pt_clust_6="30.78239"></scales>
<clustering>
<clus scale="   30.782">  2  6  1 -1</clus>
<clus scale="   35.264">  1  3  2 -1</clus>
<clus scale="   88.060">  2  5  1 -1</clus>
<clus scale="   35.264">  1  3  2 -1</clus>
</clustering>
</event>
<event>
 6    0  0.1849053E+002  0.2231614E+03  0.7546771E-02  0.1131548E+00
         21   -1    0    0  504  502  0.00000000000E+00  0.00000000000E+00  0.13797025451E+04  0.13797025451E+04  0.00000000000E+00 0. -1.
         -1   -1    0    0    0  501 -0.00000000000E+00 -0.00000000000E+00 -0.15029467006E+04  0.15029467006E+04  0.00000000000E+00 0.  1.
         21    1    1    2  503  505 -0.13065557718E+03  0.85532002639E+02 -0.22265812658E+03  0.27196184412E+03  0.00000000000E+00 0. -1.
         21    1    1    2  504  501  0.23087364105E+03 -0.10542563142E+03  0.10271981081E+04  0.10580893891E+04  0.00000000000E+00 0. -1.
         21    1    1    2  505  502 -0.85706519635E+01  0.57359326090E+02  0.30771770805E+03  0.31313533211E+03  0.00000000000E+00 0.  1.
         -1    1    1    2    0  503 -0.91647411910E+02 -0.37465697305E+02 -0.12355018452E+04  0.12394626804E+04  0.00000000000E+00 0.  1.
<scales pt_clust_3="14000.00000" pt_clust_4="223.16144" pt_clust_5="57.99611" pt_clust_6="98.98428"></scales>
<clustering>
<clus scale="   57.996">  1  5  2 -1</clus>
<clus scale="   98.984">  2  6  1 -1</clus>
<clus scale="  223.161">  1  4  2 -1</clus>
<clus scale="   57.996">  1  3  2 -1</clus>
</clustering>
</event>
<event>
 6    0  0.1849053E+002  0.1134303E+03  0.7546771E-02  0.1254346E+00
         21   -1    0    0  503  502  0.00000000000E+00  0.00000000000E+00  0.97171524840E+02  0.97171524840E+02  0.00000000000E+00 0. -1.
          2   -1    0    0  504    0 -0.00000000000E+00 -0.00000000000E+00 -0.80043212195E+03  0.80043212195E+03  0.00000000000E+00 0. -1.
         21    1    1    2  503  505  0.21486090707E+02  0.56450355323E+02  0.44704261605E+02  0.75144964672E+02  0.00000000000E+00 0. -1.
         21    1    1    2  504  502 -0.35211740114E+02 -0.46706470151E+02 -0.15957729313E+03  0.16995962309E+03  0.00000000000E+00 0.  1.
         21    1    1    2  505  501  0.34381118601E+02  0.70043646082E+02 -0.23297908095E+02  0.81430744773E+02  0.00000000000E+00 0.  1.
          2    1    1    2  501    0 -0.20655469194E+02 -0.79787531254E+02 -0.56508965749E+03  0.57106831426E+03  0.00000000000E+00 0. -1.
<scales pt_clust_3="59.05730" pt_clust_4="58.49240" pt_clust_5="113.43033" pt_clust_6="14000.00000"></scales>
<clustering>
<clus scale="   58.492">  2  4  1 -1</clus>
<clus scale="   59.057">  1  3  2 -1</clus>
<clus scale="  113.430">  1  5  2 -1</clus>
<clus scale="   59.057">  1  3  2 -1</clus>
</clustering>
</event>
<event>
 6    0  0.1849053E+002  0.1405430E+03  0.7546771E-02  0.1212600E+00
         -1   -1    0    0    0  501 -0.00000000000E+00  0.00000000000E+00  0.27135909167E+03  0.27135909167E+03  0.00000000000E+00 0. -1.
         21   -1    0    0  501  502  0.00000000000E+00 -0.00000000000E+00 -0.27586346038E+03  0.27586346038E+03  0.00000000000E+00 0.  1.
         21    1    1    2  503  502 -0.10530722026E+02  0.84371041838E+02 -0.18312832574E+03  0.20190431520E+03  0.00000000000E+00 0.  1.
         21    1    1    2  504  505  0.46311885360E+01 -0.42985439654E+02  0.44167114637E+02  0.61805581826E+02  0.00000000000E+00 0. -1.
         21    1    1    2  505  503 -0.32252742772E+02  0.38699436016E+02 -0.54836570376E+02  0.74464321758E+02  0.00000000000E+00 0.  1.
         -1    1    1    2    0  504  0.38152276262E+02 -0.80085038200E+02  0.18929341277E+03  0.20904833327E+03  0.00000000000E+00 0. -1.
<scales pt_clust_3="40.55259" pt_clust_4="30.27995" pt_clust_5="40.55259" pt_clust_6="137.32453"></scales>
<clustering>
<clus scale="   30.280">  4  6 -1 -1</clus>
<clus scale="   40.553">  3  5 -1 -1</clus>
<clus scale="  137.325">  1  4  2 -1</clus>
<clus scale="  140.543">  2  3  1 -1</clus>
</clustering>
</event>
<event>
 6    0  0.1849053E+002  0.6631674E+02  0.7546771E-02  0.1373086E+00
         21   -1    0    0  504  502  0.00000000000E+00  0.00000000000E+00  0.30374332359E+03  0.30374332359E+03  0.00000000000E+00 0. -1.
         -3   -1    0    0    0  501 -0.00000000000E+00 -0.00000000000E+00 -0.82864855590E+02  0.82864855590E+02  0.00000000000E+00 0. -1.
         21    1    1    2  503  502 -0.25059508667E+02 -0.21612019000E+02  0.66803431006E+02  0.74550363742E+02  0.00000000000E+00 0. -1.
         21    1    1    2  504  505  0.86046749900E+02 -0.57950568663E+01  0.15415811860E+03  0.17664187325E+03  0.00000000000E+00 0. -1.
         21    1    1    2  505  501 -0.11037506065E+02  0.67381806405E+02 -0.14576916419E+02  0.69818485137E+02  0.00000000000E+00 0. -1.
         -3    1    1    2    0  503 -0.49949735169E+02 -0.39974730538E+02  0.14493834814E+02  0.65597457059E+02  0.00000000000E+00 0. -1.
<scales pt_clust_3="33.09167" pt_clust_4="14000.00000" pt_clust_5="66.31674" pt_clust_6="64.78221"></scales>
<clustering>
<clus scale="   33.092">  1  3  2 -1</clus>
<clus scale="   66.317">  2  5  1 -1</clus>
<clus scale="   64.782">  2  6  1 -1</clus>
<clus scale="   33.092">  1  3  2 -1</clus>
</clustering>
</event>
<event>
 6    0  0.1849053E+002  0.1334549E+03  0.7546771E-02  0.1222418E+00
          2   -1    0    0  505    0 -0.00000000000E+00  0.00000000000E+00  0.16607372978E+04  0.16607372978E+04  0.00000000000E+00 0.  1.
         21   -1    0    0  503  502  0.00000000000E+00 -0.00000000000E+00 -0.36117589136E+02  0.36117589136E+02  0.00000000000E+00 0. -1.
         21    1    1    2  503  504  0.86163229532E+02 -0.22346868087E+01  0.65228483870E+02  0.10809186397E+03  0.00000000000E+00 0. -1.
         21    1    1    2  504  501  0.41929602104E+02  0.13894382748E+02  0.77203514778E+02  0.88946771153E+02  0.00000000000E+00 0. -1.
         21    1    1    2  505  502 -0.11015866745E+03 -0.59720740832E+02  0.47271150281E+03  0.48903748710E+03  0.00000000000E+00 0. -1.
          2    1    1    2  501    0 -0.17934164190E+02  0.48061044892E+02  0.10094762072E+04  0.10107787647E+04  0.00000000000E+00 0.  1.
<scales pt_clust_3="31.96395" pt_clust_4="31.96395" pt_clust_5="125.76398" pt_clust_6="51.29813"></scales>
<clustering>
<clus scale="   31.964">  3  4 -1 -1</clus>
<clus scale="   51.298">  1  6  2 -1</clus>
<clus scale="  125.764">  1  5  2 -1</clus>
<clus scale="  133.455">  2  3  1 -1</clus>
</clustering>
</event>
<event>
 6    0  0.1849053E+002  0.8882377E+02  0.7546771E-02  0.1305725E+00
         21   -1    0    0  504  502  0.00000000000E+00  0.00000000000E+00  0.79674200549E+02  0.79674200549E+02  0.00000000000E+00 0.  1.
          2   -1    0    0  503    0 -0.00000000000E+00 -0.00000000000E+00 -0.31381996080E+04  0.31381996080E+04  0.00000000000E+00 0. -1.
         21    1    1    2  503  505  0.41526939605E+02 -0.62722598612E+02 -0.82749484716E+03  0.83090693412E+03  0.00000000000E+00 0. -1.
         21    1    1    2  504  501  0.21743452457E+02 -0.23256871001E+02  0.21007191902E+02  0.38143962630E+02  0.00000000000E+00 0.  1.
         21    1    1    2  505  502  0.31480608861E+02  0.43793313254E+02  0.31813515298E+02  0.62617751282E+02  0.00000000000E+00 0.  1.
          2    1    1    2  501    0 -0.94751000923E+02  0.42186156359E+02 -0.22838512675E+04  0.22862051606E+04  0.00000000000E+00 0. -1.
<scales pt_clust_3="88.82377" pt_clust_4="31.83802" pt_clust_5="56.38864" pt_clust_6="14000.00000"></scales>
<clustering>
<clus scale="   31.838">  1  4  2 -1</clus>
<clus scale="   56.389">  1  5  2 -1</clus>
<clus scale="   88.824">  1  3  2 -1</clus>
<clus scale="   31.838">  1  3  2 -1</clus>
</clustering>
</event>
<event>
 6    0  0.1849053E+002  0.4025950E+03  0.7546771E-02  0.1042885E+00
         21   -1    0    0  503  502  0.00000000000E+00  0.00000000000E+00  0.27645690437E+03  0.27645690437E+03  0.00000000000E+00 0.  1.
          2   -1    0    0  502    0 -0.00000000000E+00 -0.00000000000E+00 -0.16304392711E+04  0.16304392711E+04  0.00000000000E+00 0.  1.
         21    1    1    2  503  504 -0.21069830002E+03  0.29924146382E+03  0.86030635180E+02  0.37595278625E+03  0.00000000000E+00 0.  1.
         21    1    1    2  504  505 -0.35741680561E+02  0.25119116075E+01  0.48481135033E+00  0.35833119754E+02  0.00000000000E+00 0.  1.
         21    1    1    2  505  501  0.10485974792E+03 -0.10391224790E+03 -0.39512699788E+03  0.42180406168E+03  0.00000000000E+00 0.  1.
          2    1    1    2  501    0  0.14158023266E+03 -0.19784112753E+03 -0.10453708154E+04  0.10733062078E+04  0.00000000000E+00 0.  1.
<scales pt_clust_3="31.74735" pt_clust_4="31.74735" pt_clust_5="71.95765" pt_clust_6="400.40076"></scales>
<clustering>
<clus scale="   31.747">  3  4 -1 -1</clus>
<clus scale="   71.958">  5  6 -1 -1</clus>
<clus scale="  400.401">  2  5  1 -1</clus>
<clus scale="  402.595">  1  3  2 -1</clus>
</clustering>
</event>
<event>
 6    0  0.1849053E+002  0.1324978E+03  0.7546771E-02  0.1223796E+00
          1   -1    0    0  504    0 -0.00000000000E+00  0.00000000000E+00  0.14507257198E+03  0.14507257198E+03  0.00000000000E+00 0. -1.
         21   -1    0    0  505  502  0.00000000000E+00 -0.00000000000E+00 -0.54553713280E+03  0.54553713280E+03  0.00000000000E+00 0.  1.
         21    1    1    2  503  501 -0.12318312779E+02 -0.53293084858E+02  0.18666894228E+02  0.57795732226E+02  0.00000000000E+00 0. -1.
         21    1    1    2  504  502  0.75515134290E+02  0.17214424065E+02 -0.22695546929E+03  0.23980754147E+03  0.00000000000E+00 0.  1.
         21    1    1    2  505  503 -0.23769754408E+02  0.10432815094E+03 -0.26494230307E+03  0.28573377165E+03  0.00000000000E+00 0.  1.
          1    1    1    2  501    0 -0.39427067103E+02 -0.68249490152E+02  0.72766317321E+02  0.10727265944E+03  0.00000000000E+00 0. -1.
<scales pt_clust_3="31.58297" pt_clust_4="77.45238" pt_clust_5="126.95793" pt_clust_6="31.58297"></scales>
<clustering>
<clus scale="   31.583">  3  6 -1 -1</clus>
<clus scale="   77.452">  2  4  1 -1</clus>
<clus scale="  126.958">  2  5  1 -1</clus>
<clus scale="   77.452">  2  3  1 -1</clus>
</clustering>
</event>
<event>
 6    0  0.1849053E+002  0.1423349E+03  0.7546771E-02  0.1210221E+00
         21   -1    0    0  504  502  0.00000000000E+00  0.00000000000E+00  0.17708164345E+03  0.17708164345E+03  0.00000000000E+00 0.  1.
          2   -1    0    0  503    0 -0.00000000000E+00 -0.00000000000E+00 -0.10659884231E+04  0.10659884231E+04  0.00000000000E+00 0.  1.
         21    1    1    2  503  505  0.46209124017E+02  0.30630926993E+02  0.53769358480E+02  0.77231345594E+02  0.00000000000E+00 0.  1.
         21    1    1    2  504  501 -0.18432560325E+03  0.78344281348E+02 -0.23110518565E+03  0.30581589439E+03  0.00000000000E+00 0.  1.
         21    1    1    2  505  502  0.26130527022E+02 -0.35734228085E+02  0.61322392979E+02  0.75631841046E+02  0.00000000000E+00 0.  1.
          2    1    1    2  501    0  0.11198595221E+03 -0.73240980256E+02 -0.77289334543E+03  0.78439098547E+03  0.00000000000E+00 0.  1.
<scales pt_clust_3="62.63027" pt_clust_4="14000.00000" pt_clust_5="44.26895" pt_clust_6="142.33487"></scales>
<clustering>
<clus scale="   44.269">  1  5  2 -1</clus>
<clus scale="   62.630">  1  3  2 -1</clus>
<clus scale="  142.335">  2  6  1 -1</clus>
<clus scale="   44.269">  1  3  2 -1</clus>
</clustering>
</event>
<event>
 6    0  0.1849053E+002  0.1703913E+03  0.7546771E-02  0.1177440E+00
         21   -1    0    0  505  502  0.00000000000E+00  0.00000000000E+00  0.68064040710E+02  0.68064040710E+02  0.00000000000E+00 0. -1.
          2   -1    0    0  504    0 -0.00000000000E+00 -0.00000000000E+00 -0.24946598843E+04  0.24946598843E+04  0.00000000000E+00 0.  1.
         21    1    1    2  503  501 -0.84811757238E+02  0.42420122511E+00 -0.31810926519E+02  0.90582278391E+02  0.00000000000E+00 0. -1.
         21    1    1    2  504  502  0.19834415850E+02 -0.41130179333E+02 -0.38469069383E+03  0.38739130814E+03  0.00000000000E+00 0.  1.
         21    1    1    2  505  503 -0.45979160296E+02  0.73515815954E+02 -0.17075193000E+02  0.88375452434E+02  0.00000000000E+00 0. -1.
          2    1    1    2  501    0  0.11095650168E+03 -0.32809837847E+02 -0.19930190303E+04  0.19963748861E+04  0.00000000000E+00 0.  1.
<scales pt_clust_3="83.38098" pt_clust_4="45.66285" pt_clust_5="83.38098" pt_clust_6="148.22469"></scales>
<clustering>
<clus scale="   45.663">  2  4  1 -1</clus>
<clus scale="   83.381">  3  5 -1 -1</clus>
<clus scale="  148.225">  2  6  1 -1</clus>
<clus scale="  170.391">  1  3  2 -1</clus>
</clustering>
</event>
<event>
 6    0  0.1849053E+002  0.1426163E+03  0.7546771E-02  0.1209851E+00
          1   -1    0    0  503    0 -0.00000000000E+00  0.00000000000E+00  0.50716116693E+04  0.50716116693E+04  0.00000000000E+00 0.  1.
         21   -1    0    0  501  502  0.00000000000E+00 -0.00000000000E+00 -0.81976282834E+03  0.81976282834E+03  0.00000000000E+00 0.  1.
         21    1    1    2  503  505  0.76144942025E+02  0.12783465869E+02  0.29549530988E+03  0.30541602342E+03  0.00000000000E+00 0.  1.
         21    1    1    2  504  502 -0.24119952322E+02 -0.81315065053E+02 -0.47826102143E+03  0.48572370389E+03  0.00000000000E+00 0.  1.
         21    1    1    2  505  504 -0.42963397378E+02 -0.38752515101E+02 -0.32968265326E+03  0.33472117173E+03  0.00000000000E+00 0.  1.
          1    1    1    2  501    0 -0.90615923252E+01  0.10728411429E+03  0.47642972057E+04  0.47655135986E+04  0.00000000000E+00 0.  1.
<scales pt_clust_3="77.21055" pt_clust_4="31.34628" pt_clust_5="31.34628" pt_clust_6="137.47365"></scales>
<clustering>
<clus scale="   31.346">  4  5 -1 -1</clus>
<clus scale="   77.211">  1  3  2 -1</clus>
<clus scale="  137.474">  1  6  2 -1</clus>
<clus scale="  142.616">  2  3  1 -1</clus>
</clustering>
</event>
<event>
 6    0  0.1849053E+002  0.2016231E+03  0.7546771E-02  0.1148377E+00
          1   -1    0    0  503    0 -0.00000000000E+00  0.00000000000E+00  0.43249105946E+03  0.43249105946E+03  0.00000000000E+00 0.  1.
         21   -1    0    0  505  502  0.00000000000E+00 -0.00000000000E+00 -0.49034502990E+03  0.49034502990E+03  0.00000000000E+00 0.  1.
         21    1    1    2  503  504  0.32358325638E+02  0.39495919082E+02  0.44972745161E+02  0.68040698626E+02  0.00000000000E+00 0.  1.
         21    1    1    2  504  502 -0.15735032523E+03  0.16176282436E+03 -0.35541909070E+03  0.42100957973E+03  0.00000000000E+00 0.  1.
         21    1    1    2  505  501 -0.57638416279E+01 -0.46623220731E+02 -0.50688069639E+02  0.69110252389E+02  0.00000000000E+00 0.  1.
          1    1    1    2  501    0  0.13075584122E+03 -0.15463552271E+03  0.30328044473E+03  0.36467555862E+03  0.00000000000E+00 0.  1.
<scales pt_clust_3="49.99895" pt_clust_4="201.62310" pt_clust_5="46.97815" pt_clust_6="14000.00000"></scales>
<clustering>
<clus scale="   46.978">  2  5  1 -1</clus>
<clus scale="   49.999">  1  3  2 -1</clus>
<clus scale="  201.623">  2  4  1 -1</clus>
<clus scale="   46.978">  2  3  1 -1</clus>
</clustering>
</event>
<event>
 6    0  0.1849053E+002  0.1116476E+03  0.7546771E-02  0.1257549E+00
          2   -1    0    0  503    0 -0.00000000000E+00  0.00000000000E+00  0.13662419227E+04  0.13662419227E+04  0.00000000000E+00 0.  1.
         21   -1    0    0  504  502  0.00000000000E+00 -0.00000000000E+00 -0.97203978627E+02  0.97203978627E+02  0.00000000000E+00 0.  1.
         21    1    1    2  503  505 -0.97964466242E+02 -0.14209037475E+02  0.27924246288E+03  0.29626894280E+03  0.00000000000E+00 0. -1.
         21    1    1    2  504  501  0.19728361660E+02  0.10903535180E+03 -0.28003206122E+02  0.11428952599E+03  0.00000000000E+00 0.  1.
         21    1    1    2  505  502  0.31453415551E+02 -0.52560759135E+01  0.18688173511E+01  0.31944266498E+02  0.00000000000E+00 0.  1.
          2    1    1    2  501    0  0.46782689031E+02 -0.89570238416E+02  0.10159298700E+04  0.10209431660E+04  0.00000000000E+00 0.  1.
<scales pt_clust_3="95.84788" pt_clust_4="111.64755" pt_clust_5="31.88955" pt_clust_6="14000.00000"></scales>
<clustering>
<clus scale="   31.890">  2  5  1 -1</clus>
<clus scale="   95.848">  1  3  2 -1</clus>
<clus scale="  111.648">  2  4  1 -1</clus>
<clus scale="   31.890">  2  3  1 -1</clus>
</clustering>
</event>
<event>
 6    0  0.1849053E+002  0.3118310E+03  0.7546771E-02  0.1079472E+00
          1   -1    0    0  503    0 -0.00000000000E+00  0.00000000000E+00  0.32067734478E+04  0.32067734478E+04  0.00000000000E+00 0.  1.
         21   -1    0    0  505  502  0.00000000000E+00 -0.00000000000E+00 -0.87230623301E+03  0.87230623301E+03  0.00000000000E+00 0.  1.
         21    1    1    2  503  504 -0.23526372459E+02  0.65541022304E+02  0.30420969015E+03  0.31207795723E+03  0.00000000000E+00 0. -1.
         21    1    1    2  504  502  0.45028627662E+02 -0.10739990362E+01 -0.97628345507E+01  0.46087348823E+02  0.00000000000E+00 0. -1.
         21    1    1    2  505  501 -0.30318509413E+03  0.17305915858E+03 -0.79173749692E+03  0.86528546601E+03  0.00000000000E+00 0.  1.
          1    1    1    2  501    0  0.28168283892E+03 -0.23752618185E+03  0.28317578561E+04  0.28556289087E+04  0.00000000000E+00 0.  1.
<scales pt_clust_3="69.56028" pt_clust_4="45.04143" pt_clust_5="14000.00000" pt_clust_6="311.83101"></scales>
<clustering>
<clus scale="   45.041">  2  4  1 -1</clus>
<clus scale="   69.560">  1  3  2 -1</clus>
<clus scale="  311.831">  1  6  2 -1</clus>
<clus scale="   45.041">  2  3  1 -1</clus>
</clustering>
</event>
<event>
 6    0  0.1849053E+002  0.1118011E+03  0.7546771E-02  0.1257270E+00
          3   -1    0    0  504    0 -0.00000000000E+00  0.00000000000E+00  0.11346944091E+03  0.11346944091E+03  0.00000000000E+00 0. -1.
         21   -1    0    0  501  502  0.00000000000E+00 -0.00000000000E+00 -0.52894573204E+03  0.52894573204E+03  0.00000000000E+00 0. -1.
         21    1    1    2  503  505  0.59444552563E+02  0.55462337219E+01 -0.73133097137E+02  0.94407973365E+02  0.00000000000E+00 0.  1.
         21    1    1    2  504  503 -0.29490130688E+02 -0.10074265544E+02  0.39701424696E+02  0.50471395434E+02  0.00000000000E+00 0. -1.
         21    1    1    2  505  502 -0.11303495318E+03 -0.25560656359E+02 -0.39185413273E+03  0.40863175248E+03  0.00000000000E+00 0. -1.
          3    1    1    2  501    0  0.83080531306E+02  0.30088688181E+02  0.98095140394E+01  0.88904051675E+02  0.00000000000E+00 0. -1.
<scales pt_clust_3="55.00129" pt_clust_4="31.16342" pt_clust_5="111.80113" pt_clust_6="14000.00000"></scales>
<clustering>
<clus scale="   31.163">  1  4  2 -1</clus>
<clus scale="   55.001">  1  3  2 -1</clus>
<clus scale="  111.801">  2  5  1 -1</clus>
<clus scale="  111.801">  2  3  1 -1</clus>
</clustering>
</event>
<event>
 6    0  0.1849053E+002  0.8200790E+02  0.7546771E-02  0.1323448E+00
          2   -1    0    0  505    0 -0.00000000000E+00  0.00000000000E+00  0.37718114993E+04  0.37718114993E+04  0.00000000000E+00 0. -1.
         21   -1    0    0  503  502  0.00000000000E+00 -0.00000000000E+00 -0.15816648731E+04  0.15816648731E+04  0.00000000000E+00 0.  1.
         21    1    1    2  503  504  0.31382967321E+02  0.14201002618E+03 -0.15519788969E+04  0.15587784431E+04  0.00000000000E+00 0.  1.
         21    1    1    2  504  501  0.20550946260E+02 -0.27766589000E+02  0.14587019620E+04  0.14591109413E+04  0.00000000000E+00 0. -1.
         21    1    1    2  505  502 -0.38591438831E+02 -0.68857768913E+02  0.34464884282E+02  0.86130829204E+02  0.00000000000E+00 0.  1.
          2    1    1    2  501    0 -0.13342474750E+02 -0.45385668271E+02  0.22489586768E+04  0.22494561588E+04  0.00000000000E+00 0. -1.
<scales pt_clust_3="73.52542" pt_clust_4="31.03870" pt_clust_5="78.93473" pt_clust_6="31.03870"></scales>
<clustering>
<clus scale="   31.039">  4  6 -1 -1</clus>
<clus scale="   78.935">  2  5  1 -1</clus>
<clus scale="   73.525">  2  3  1 -1</clus>
<clus scale="   78.935">  2  3  1 -1</clus>
</clustering>
</event>
<event>
 6    0  0.1849053E+002  0.2466184E+03  0.7546771E-02  0.1115461E+00
          2   -1    0    0  504    0 -0.00000000000E+00  0.00000000000E+00  0.14695483742E+04  0.14695483742E+04  0.00000000000E+00 0. -1.
         21   -1    0    0  501  502  0.00000000000E+00 -0.00000000000E+00 -0.65564777117E+03  0.65564777117E+03  0.00000000000E+00 0. -1.
         21    1    1    2  503  502  0.27469190434E+02 -0.58632411456E+02 -0.19930018955E+03  0.20955400653E+03  0.00000000000E+00 0. -1.
         21    1    1    2  504  505  0.39132502066E+02  0.38655867584E+02  0.71157055067E+02  0.89938619638E+02  0.00000000000E+00 0.  1.
         21    1    1    2  505  503 -0.18431991410E+02 -0.17975965635E+03 -0.41529340160E+03  0.45290383280E+03  0.00000000000E+00 0. -1.
          2    1    1    2  501    0 -0.48169701091E+02  0.19973620022E+03  0.13573371391E+04  0.13727996864E+04  0.00000000000E+00 0. -1.
<scales pt_clust_3="38.85169" pt_clust_4="55.00572" pt_clust_5="38.85169" pt_clust_6="237.92432"></scales>
<clustering>
<clus scale="   38.852">  3  5 -1 -1</clus>
<clus scale="   55.006">  1  4  2 -1</clus>
<clus scale="  237.924">  1  6  2 -1</clus>
<clus scale="  246.618">  2  3  1 -1</clus>
</clustering>
</event>
<event>
 6    0  0.1849053E+002  0.1631229E+03  0.7546771E-02  0.1185216E+00
         21   -1    0    0  503  502  0.00000000000E+00  0.00000000000E+00  0.20228839060E+03  0.20228839060E+03  0.00000000000E+00 0.  1.
          2   -1    0    0  504    0 -0.00000000000E+00 -0.00000000000E+00 -0.86088741926E+03  0.86088741926E+03  0.00000000000E+00 0. -1.
         21    1    1    2  503  501 -0.96296515704E+02 -0.71171565404E+02  0.14348670801E+03  0.18688725487E+03  0.00000000000E+00 0.  1.
         21    1    1    2  504  505  0.23571045599E+02  0.26381051616E+02 -0.55237211402E+02  0.65594996749E+02  0.00000000000E+00 0. -1.
         21    1    1    2  505  502 -0.31489134925E+02 -0.39554825960E+02  0.13514565571E+01  0.50576440265E+02  0.00000000000E+00 0. -1.
          2    1    1    2  501    0  0.10421460503E+03  0.84345339748E+02 -0.74819998182E+03  0.76011711797E+03  0.00000000000E+00 0. -1.
<scales pt_clust_3="14000.00000" pt_clust_4="35.37731" pt_clust_5="49.47241" pt_clust_6="163.12285"></scales>
<clustering>
<clus scale="   35.377">  2  4  1 -1</clus>
<clus scale="   49.472">  1  5  2 -1</clus>
<clus scale="  163.123">  2  6  1 -1</clus>
<clus scale="   49.472">  1  3  2 -1</clus>
</clustering>
</event>
<event>
 6    0  0.1849053E+002  0.1118924E+03  0.7546771E-02  0.1257105E+00
          2   -1    0    0  505    0 -0.00000000000E+00  0.00000000000E+00  0.18295669869E+04  0.18295669869E+04  0.00000000000E+00 0. -1.
         21   -1    0    0  503  502  0.00000000000E+00 -0.00000000000E+00 -0.91127633214E+02  0.91127633214E+02  0.00000000000E+00 0. -1.
         21    1    1    2  503  504  0.93603545527E+01  0.52995037362E+02 -0.54682250846E+02  0.76721827272E+02  0.00000000000E+00 0. -1.
         21    1    1    2  504  501  0.68255800921E+02  0.34525249063E+02  0.59436050933E+02  0.96868422784E+02  0.00000000000E+00 0.  1.
         21    1    1    2  505  502  0.49275599215E+02  0.13973325028E+02  0.53714057993E+03  0.53957700201E+03  0.00000000000E+00 0. -1.
          2    1    1    2  501    0 -0.12689175469E+03 -0.10149361145E+03  0.11965449737E+04  0.12075273680E+04  0.00000000000E+00 0. -1.
<scales pt_clust_3="54.00735" pt_clust_4="111.89241" pt_clust_5="51.21854" pt_clust_6="14000.00000"></scales>
<clustering>
<clus scale="   51.219">  1  5  2 -1</clus>
<clus scale="   54.007">  2  3  1 -1</clus>
<clus scale="  111.892">  2  4  1 -1</clus>
<clus scale="   54.007">  2  3  1 -1</clus>
</clustering>
</event>
<event>
 6    0  0.1849053E+002  0.1277216E+03  0.7546771E-02  0.1230876E+00
         21   -1    0    0  503  502  0.00000000000E+00  0.00000000000E+00  0.11548323148E+04  0.11548323148E+04  0.00000000000E+00 0. -1.
          2   -1    0    0  504    0 -0.00000000000E+00 -0.00000000000E+00 -0.29464251245E+02  0.29464251245E+02  0.00000000000E+00 0. -1.
         21    1    1    2  503  505 -0.10623417299E+03 -0.43618906315E+02  0.76267344187E+03  0.77127108556E+03  0.00000000000E+00 0. -1.
         21    1    1    2  504  502 -0.36200666377E+02  0.27001226260E+02  0.59859597739E+02  0.74984837848E+02  0.00000000000E+00 0. -1.
         21    1    1    2  505  501  0.44244447243E+02 -0.14341195808E+02  0.79250588888E+02  0.91890678788E+02  0.00000000000E+00 0. -1.
          2    1    1    2  501    0  0.98190392122E+02  0.30958875863E+02  0.22358443507E+03  0.24614996386E+03  0.00000000000E+00 0. -1.
<scales pt_clust_3="119.64205" pt_clust_4="45.16143" pt_clust_5="30.04789" pt_clust_6="30.04789"></scales>
<clustering>
<clus scale="   30.048">  5  6 -1 -1</clus>
<clus scale="   45.161">  2  4  1 -1</clus>
<clus scale="  119.642">  1  3  2 -1</clus>
<clus scale="  119.642">  1  3  2 -1</clus>
</clustering>
</event>
<event>
 6    0  0.1849053E+002  0.9918327E+02  0.7546771E-02  0.1282023E+00
         21   -1    0    0  501  502  0.00000000000E+00  0.00000000000E+00  0.52347221233E+03  0.52347221233E+03  0.00000000000E+00 0.  1.
         -1   -1    0    0    0  501 -0.00000000000E+00 -0.00000000000E+00 -0.73876303259E+03  0.73876303259E+03  0.00000000000E+00 0. -1.
         21    1    1    2  503  505 -0.87274454591E+01 -0.65446418065E+02 -0.11186494652E+03  0.12989675978E+03  0.00000000000E+00 0. -1.
         21    1    1    2  504  502 -0.61750959622E+02  0.77842049109E+02  0.39990137683E+03  0.41206028298E+03  0.00000000000E+00 0.  1.
         21    1    1    2  505  504  0.10791241561E+03  0.23767749895E+02  0.78870059333E+02  0.13575890997E+03  0.00000000000E+00 0.  1.
         -1    1    1    2    0  503 -0.37434010527E+02 -0.36163380939E+02 -0.58219730991E+03  0.58451929218E+03  0.00000000000E+00 0. -1.
<scales pt_clust_3="14000.00000" pt_clust_4="99.18327" pt_clust_5="92.85671" pt_clust_6="52.04897"></scales>
<clustering>
<clus scale="   52.049">  2  6  1 -1</clus>
<clus scale="   99.183">  1  4  2 -1</clus>
<clus scale="   92.857">  1  5  2 -1</clus>
<clus scale="   99.183">  1  3  2 -1</clus>
</clustering>
</event>
<event>
 6    0  0.1849053E+002  0.1697646E+03  0.7546771E-02  0.1178094E+00
          1   -1    0    0  502    0 -0.00000000000E+00  0.00000000000E+00  0.12605938885E+04  0.12605938885E+04  0.00000000000E+00 0. -1.
         21   -1    0    0  505  502  0.00000000000E+00 -0.00000000000E+00 -0.21872013139E+03  0.21872013139E+03  0.00000000000E+00 0. -1.
         21    1    1    2  503  501  0.30574199378E+02 -0.28713335161E+02  0.20069605686E+03  0.20503205730E+03  0.00000000000E+00 0. -1.
         21    1    1    2  504  503 -0.74843305624E+02  0.10412179496E+03 -0.15220164343E+03  0.19901811185E+03  0.00000000000E+00 0. -1.
         21    1    1    2  505  504  0.11874652862E+02  0.37685661013E+02 -0.27172598943E+02  0.47953796094E+02  0.00000000000E+00 0. -1.
          1    1    1    2  501    0  0.32394453384E+02 -0.11309412081E+03  0.10205519426E+04  0.10273100546E+04  0.00000000000E+00 0. -1.
<scales pt_clust_3="33.49106" pt_clust_4="38.23991" pt_clust_5="38.23991" pt_clust_6="164.98607"></scales>
<clustering>
<clus scale="   33.491">  3  6 -1 -1</clus>
<clus scale="   38.240">  4  5 -1 -1</clus>
<clus scale="  164.986">  1  3  2 -1</clus>
<clus scale="  169.765">  2  3  1 -1</clus>
</clustering>
</event>
<event>
 6    0  0.1849053E+002  0.1329682E+03  0.7546771E-02  0.1223117E+00
         21   -1    0    0  505  502  0.00000000000E+00  0.00000000000E+00  0.56742306010E+03  0.56742306010E+03  0.00000000000E+00 0.  1.
          2   -1    0    0  504    0 -0.00000000000E+00 -0.00000000000E+00 -0.16548378365E+04  0.16548378365E+04  0.00000000000E+00 0.  1.
         21    1    1    2  503  501  0.36096309501E+01 -0.11847472917E+03  0.16318492651E+03  0.20168939270E+03  0.00000000000E+00 0.  1.
         21    1    1    2  504  502  0.61429727790E+01 -0.34788770980E+02 -0.32829553241E+03  0.33019078016E+03  0.00000000000E+00 0.  1.
         21    1    1    2  505  503 -0.76082898686E+02  0.65066250945E+01  0.37521423692E+03  0.38290555916E+03  0.00000000000E+00 0.  1.
          2    1    1    2  501    0  0.66330294957E+02  0.14675687505E+03 -0.12975184074E+04  0.13074751646E+04  0.00000000000E+00 0.  1.
<scales pt_clust_3="14000.00000" pt_clust_4="35.32697" pt_clust_5="76.33432" pt_clust_6="132.96817"></scales>
<clustering>
<clus scale="   35.327">  2  4  1 -1</clus>
<clus scale="   76.334">  1  5  2 -1</clus>
<clus scale="  132.968">  2  6  1 -1</clus>
<clus scale="   76.334">  1  3  2 -1</clus>
</clustering>
</event>
<event>
 6    0  0.1849053E+002  0.9529392E+02  0.7546771E-02  0.1290515E+00
          1   -1    0    0  504    0 -0.00000000000E+00  0.00000000000E+00  0.44739345670E+04  0.44739345670E+04  0.00000000000E+00 0. -1.
         21   -1    0    0  505  502  0.00000000000E+00 -0.00000000000E+00 -0.46060052294E+02  0.46060052294E+02  0.00000000000E+00 0.  1.
         21    1    1    2  503  501 -0.10778149570E+03  0.38140279251E+02  0.55355130533E+02  0.12702646257E+03  0.00000000000E+00 0.  1.
         21    1    1    2  504  502 -0.32242515381E+02 -0.80716938193E+02  0.63938469786E+03  0.64526552346E+03  0.00000000000E+00 0.  1.
         21    1    1    2  505  503  0.30779070526E+02  0.16220599067E+02  0.40640274752E+02  0.53498513516E+02  0.00000000000E+00 0.  1.
          1    1    1    2  501    0  0.10924494056E+03  0.26356059876E+02  0.36924944115E+04  0.36942041197E+04  0.00000000000E+00 0. -1.
<scales pt_clust_3="95.29392" pt_clust_4="84.97013" pt_clust_5="34.79165" pt_clust_6="14000.00000"></scales>
<clustering>
<clus scale="   34.792">  2  5  1 -1</clus>
<clus scale="   84.970">  1  4  2 -1</clus>
<clus scale="   95.294">  2  3  1 -1</clus>
<clus scale="   34.792">  2  3  1 -1</clus>
</clustering>
</event>
<event>
 6    0  0.1849053E+002  0.8624586E+02  0.7546771E-02  0.1312206E+00
          2   -1    0    0  503    0 -0.00000000000E+00  0.00000000000E+00  0.62907039559E+03  0.62907039559E+03  0.00000000000E+00 0. -1.
         21   -1    0    0  504  502  0.00000000000E+00 -0.00000000000E+00 -0.50125540927E+02  0.50125540927E+02  0.00000000000E+00 0. -1.
         21    1    1    2  503  505  0.45745843445E+02 -0.39971611339E+02  0.22489078233E+03  0.23295123069E+03  0.00000000000E+00 0. -1.
         21    1    1    2  504  501 -0.75369376694E+02 -0.24806627405E+02  0.38268404272E+02  0.88093033050E+02  0.00000000000E+00 0.  1.
         21    1    1    2  505  502 -0.29355180207E+02  0.33869355459E+02  0.10963912290E+02  0.46141816358E+02  0.00000000000E+00 0. -1.
          2    1    1    2  501    0  0.58978713456E+02  0.30908883285E+02  0.30482175578E+03  0.31200985642E+03  0.00000000000E+00 0. -1.
<scales pt_clust_3="55.25550" pt_clust_4="86.24586" pt_clust_5="44.82031" pt_clust_6="14000.00000"></scales>
<clustering>
<clus scale="   44.820">  2  5  1 -1</clus>
<clus scale="   55.255">  1  3  2 -1</clus>
<clus scale="   86.246">  2  4  1 -1</clus>
<clus scale="   44.820">  2  3  1 -1</clus>
</clustering>
</event>
<event>
 6    0  0.1849053E+002  0.1022062E+03  0.7546771E-02  0.1275724E+00
          1   -1    0    0  504    0 -0.00000000000E+00  0.00000000000E+00  0.11164514823E+04  0.11164514823E+04  0.00000000000E+00 0.  1.
         21   -1    0    0  501  502  0.00000000000E+00 -0.00000000000E+00 -0.18069469466E+03  0.18069469466E+03  0.00000000000E+00 0.  1.
         21    1    1    2  503  505  0.23763988720E+02  0.40282072467E+02  0.49005593418E+02  0.67741572969E+02  0.00000000000E+00 0.  1.
         21    1    1    2  504  503  0.90645850268E+01 -0.40613588634E+02  0.72856035075E+02  0.83902515637E+02  0.00000000000E+00 0. -1.
         21    1    1    2  505  502 -0.37694548575E+02 -0.95207308361E+02 -0.14738983534E+03  0.17946886671E+03  0.00000000000E+00 0.  1.
          1    1    1    2  501    0  0.48659748284E+01  0.95538824528E+02  0.96128499450E+03  0.96603322166E+03  0.00000000000E+00 0.  1.
<scales pt_clust_3="45.08970" pt_clust_4="41.61286" pt_clust_5="102.20623" pt_clust_6="14000.00000"></scales>
<clustering>
<clus scale="   41.613">  1  4  2 -1</clus>
<clus scale="   45.090">  1  3  2 -1</clus>
<clus scale="  102.206">  2  5  1 -1</clus>
<clus scale="  102.206">  2  3  1 -1</clus>
</clustering>
</event>
<event>
 6    0  0.1849053E+002  0.2083315E+03  0.7546771E-02  0.1142894E+00
         21   -1    0    0  505  502  0.00000000000E+00  0.00000000000E+00  0.21461343209E+03  0.21461343209E+03  0.00000000000E+00 0.  1.
          1   -1    0    0  504    0 -0.00000000000E+00 -0.00000000000E+00 -0.14095842253E+04  0.14095842253E+04  0.00000000000E+00 0.  1.
         21    1    1    2  503  502 -0.12705374225E+03 -0.15840174758E+03  0.11470483295E+03  0.23321870800E+03  0.00000000000E+00 0.  1.
         21    1    1    2  504  503 -0.88621013711E+01  0.49478756164E+02 -0.79875660617E+02  0.94375872506E+02  0.00000000000E+00 0.  1.
         21    1    1    2  505  501  0.27275245737E+02 -0.28005773666E+02  0.13285541082E+02  0.41288836148E+02  0.00000000000E+00 0.  1.
          1    1    1    2  501    0  0.10864059788E+03  0.13692876509E+03 -0.12430855066E+04  0.12553142408E+04  0.00000000000E+00 0.  1.
<scales pt_clust_3="208.33147" pt_clust_4="49.02042" pt_clust_5="39.09300" pt_clust_6="14000.00000"></scales>
<clustering>
<clus scale="   39.093">  1  5  2 -1</clus>
<clus scale="   49.020">  2  4  1 -1</clus>
<clus scale="  208.331">  1  3  2 -1</clus>
<clus scale="   39.093">  1  3  2 -1</clus>
</clustering>
</event>
<event>
 6    0  0.1849053E+002  0.2078642E+03  0.7546771E-02  0.1143269E+00
         21   -1    0    0  505  502  0.00000000000E+00  0.00000000000E+00  0.99032123706E+03  0.99032123706E+03  0.00000000000E+00 0.  1.
         -1   -1    0    0    0  501 -0.00000000000E+00 -0.00000000000E+00 -0.82114296952E+03  0.82114296952E+03  0.00000000000E+00 0.  1.
         21    1    1    2  503  504 -0.77934428595E+02  0.79662229441E+02  0.52499823793E+03  0.53669637207E+03  0.00000000000E+00 0.  1.
         21    1    1    2  504  501  0.14841616950E+03  0.60247505490E+02 -0.90273916249E+02  0.18386544331E+03  0.00000000000E+00 0. -1.
         21    1    1    2  505  503 -0.10196366113E+03  0.13215595282E+02  0.39703370211E+03  0.41013046797E+03  0.00000000000E+00 0. -1.
         -1    1    1    2    0  502  0.31481920218E+02 -0.15312533021E+03 -0.66257975625E+03  0.68077192322E+03  0.00000000000E+00 0.  1.
<scales pt_clust_3="70.24584" pt_clust_4="194.57381" pt_clust_5="70.24584" pt_clust_6="156.32811"></scales>
<clustering>
<clus scale="   70.246">  3  5 -1 -1</clus>
<clus scale="  156.328">  2  6  1 -1</clus>
<clus scale="  194.574">  2  4  1 -1</clus>
<clus scale="  207.864">  1  3  2 -1</clus>
</clustering>
</event>
<event>
 6    0  0.1849053E+002  0.1450149E+03  0.7546771E-02  0.1206736E+00
         21   -1    0    0  501  502  0.00000000000E+00  0.00000000000E+00  0.26168373639E+03  0.26168373639E+03  0.00000000000E+00 0.  1.
          3   -1    0    0  504    0 -0.00000000000E+00 -0.00000000000E+00 -0.35814584777E+03  0.35814584777E+03  0.00000000000E+00 0. -1.
         21    1    1    2  503  502  0.97912758011E+02  0.17429115971E+02  0.18427016100E+03  0.20939478145E+03  0.00000000000E+00 0.  1.
         21    1    1    2  504  505  0.45088306744E+01 -0.46052560933E+02 -0.67147914982E+02  0.81547595973E+02  0.00000000000E+00 0.  1.
         21    1    1    2  505  503  0.24000908920E+02  0.32650103735E+02  0.32667272176E+02  0.52050202443E+02  0.00000000000E+00 0.  1.
          3    1    1    2  501    0 -0.12642249761E+03 -0.40266587737E+01 -0.24625162957E+03  0.27683700430E+03  0.00000000000E+00 0. -1.
<scales pt_clust_3="39.96931" pt_clust_4="46.27276" pt_clust_5="39.96931" pt_clust_6="130.79967"></scales>
<clustering>
<clus scale="   39.969">  3  5 -1 -1</clus>
<clus scale="   46.273">  2  4  1 -1</clus>
<clus scale="  130.800">  2  6  1 -1</clus>
<clus scale="  145.015">  1  3  2 -1</clus>
</clustering>
</event>
<event>
 6    0  0.1849053E+002  0.6805602E+02  0.7546771E-02  0.1366831E+00
          1   -1    0    0  504    0 -0.00000000000E+00  0.00000000000E+00  0.90552715180E+03  0.90552715180E+03  0.00000000000E+00 0. -1.
         21   -1    0    0  503  502  0.00000000000E+00 -0.00000000000E+00 -0.28119562246E+03  0.28119562246E+03  0.00000000000E+00 0.  1.
         21    1    1    2  503  501  0.17829222264E+02  0.57377915283E+02 -0.69784438214E+02  0.92086775086E+02  0.00000000000E+00 0. -1.
         21    1    1    2  504  505  0.16794217284E+02 -0.36612195474E+02  0.90834955781E+02  0.99365425493E+02  0.00000000000E+00 0.  1.
         21    1    1    2  505  502  0.27262948986E+02 -0.10543038077E+03 -0.17708508356E+03  0.20788929841E+03  0.00000000000E+00 0.  1.
          1    1    1    2  501    0 -0.61886388534E+02  0.84664660962E+02  0.78036609533E+03  0.78738127526E+03  0.00000000000E+00 0. -1.
<scales pt_clust_3="59.67280" pt_clust_4="40.28025" pt_clust_5="14000.00000" pt_clust_6="68.05602"></scales>
<clustering>
<clus scale="   40.280">  1  4  2 -1</clus>
<clus scale="   59.673">  2  3  1 -1</clus>
<clus scale="   68.056">  1  6  2 -1</clus>
<clus scale="   59.673">  2  3  1 -1</clus>
</clustering>
</event>
<event>
 6    0  0.1849053E+002  0.1450601E+03  0.7546771E-02  0.1206678E+00
          1   -1    0    0  502    0 -0.00000000000E+00  0.00000000000E+00  0.35233666503E+04  0.35233666503E+04  0.00000000000E+00 0.  1.
         21   -1    0    0  503  502  0.00000000000E+00 -0.00000000000E+00 -0.15268077447E+02  0.15268077447E+02  0.00000000000E+00 0. -1.
         21    1    1    2  503  505  0.34276950601E+02 -0.46871579208E+02  0.12342404932E+03  0.13640143046E+03  0.00000000000E+00 0. -1.
         21    1    1    2  504  501 -0.57118719637E+02  0.14639548499E+02  0.10304937068E+04  0.10321793179E+04  0.00000000000E+00 0.  1.
         21    1    1    2  505  504  0.84435611260E+02 -0.14261463924E+02  0.24630582395E+03  0.26076679373E+03  0.00000000000E+00 0. -1.
          1    1    1    2  501    0 -0.61593842224E+02  0.46493494633E+02  0.21078749928E+04  0.21092871857E+04  0.00000000000E+00 0.  1.
<scales pt_clust_3="46.67365" pt_clust_4="35.22342" pt_clust_5="46.67365" pt_clust_6="139.47652"></scales>
<clustering>
<clus scale="   35.223">  4  6 -1 -1</clus>
<clus scale="   46.674">  3  5 -1 -1</clus>
<clus scale="  139.477">  1  4  2 -1</clus>
<clus scale="  145.060">  2  3  1 -1</clus>
</clustering>
</event>
<event>
 6    0  0.1849053E+002  0.1023831E+03  0.7546771E-02  0.1275363E+00
          2   -1    0    0  503    0 -0.00000000000E+00  0.00000000000E+00  0.54520994925E+03  0.54520994925E+03  0.00000000000E+00 0.  1.
         21   -1    0    0  504  502  0.00000000000E+00 -0.00000000000E+00 -0.88040656484E+02  0.88040656484E+02  0.00000000000E+00 0. -1.
         21    1    1    2  503  505 -0.21613656212E+02  0.50727928878E+02  0.79905750423E+02  0.97084508825E+02  0.00000000000E+00 0.  1.
         21    1    1    2  504  501 -0.57923326941E+02  0.53195355769E+02 -0.10129636984E+02  0.79293550966E+02  0.00000000000E+00 0. -1.
         21    1    1    2  505  502  0.23477871472E+02  0.43683959790E+02  0.14098246035E+02  0.51558310029E+02  0.00000000000E+00 0. -1.
          2    1    1    2  501    0  0.56059111681E+02 -0.14760724444E+03  0.37329493329E+03  0.40531423592E+03  0.00000000000E+00 0.  1.
<scales pt_clust_3="59.17527" pt_clust_4="102.38310" pt_clust_5="49.59333" pt_clust_6="14000.00000"></scales>
<clustering>
<clus scale="   49.593">  2  5  1 -1</clus>
<clus scale="   59.175">  1  3  2 -1</clus>
<clus scale="  102.383">  2  4  1 -1</clus>
<clus scale="   49.593">  2  3  1 -1</clus>
</clustering>
</event>
<event>
 6    0  0.1849053E+002  0.1129487E+03  0.7546771E-02  0.1255205E+00
         21   -1    0    0  504  502  0.00000000000E+00  0.00000000000E+00  0.27753096520E+03  0.27753096520E+03  0.00000000000E+00 0.  1.
          1   -1    0    0  505    0 -0.00000000000E+00 -0.00000000000E+00 -0.40633626795E+03  0.40633626795E+03  0.00000000000E+00 0. -1.
         21    1    1    2  503  502  0.27392700499E+02 -0.53976940193E+02  0.10522317828E+02  0.61437686200E+02  0.00000000000E+00 0. -1.
         21    1    1    2  504  501 -0.19566825907E+02  0.31063821014E+02  0.19472953530E+03  0.19816007057E+03  0.00000000000E+00 0.  1.
         21    1    1    2  505  503 -0.77223032275E+02 -0.70391040904E+02 -0.47038786174E+02  0.11459032576E+03  0.00000000000E+00 0. -1.
          1    1    1    2  501    0  0.69397157682E+02  0.93304160083E+02 -0.28701836970E+03  0.30967915062E+03  0.00000000000E+00 0. -1.
<scales pt_clust_3="44.33471" pt_clust_4="36.71269" pt_clust_5="14000.00000" pt_clust_6="112.94874"></scales>
<clustering>
<clus scale="   36.713">  1  4  2 -1</clus>
<clus scale="   44.335">  1  3  2 -1</clus>
<clus scale="  112.949">  2  6  1 -1</clus>
<clus scale="   36.713">  1  3  2 -1</clus>
</clustering>
</event>
<event>
 6    0  0.1849053E+002  0.1596211E+03  0.7546771E-02  0.1189125E+00
         21   -1    0    0  505  502  0.00000000000E+00  0.00000000000E+00  0.42729890417E+02  0.42729890417E+02  0.00000000000E+00 0. -1.
          1   -1    0    0  503    0 -0.00000000000E+00 -0.00000000000E+00 -0.28597209111E+04  0.28597209111E+04  0.00000000000E+00 0.  1.
         21    1    1    2  503  504 -0.56377846131E+02 -0.81506188721E+02 -0.64037657811E+02  0.11799382167E+03  0.00000000000E+00 0. -1.
         21    1    1    2  504  502 -0.15944404977E+02  0.27439982060E+02 -0.41773924584E+02  0.52461771231E+02  0.00000000000E+00 0. -1.
         21    1    1    2  505  501 -0.73989625525E+02 -0.77350485668E+02 -0.46217601713E+03  0.47440935186E+03  0.00000000000E+00 0. -1.
          1    1    1    2  501    0  0.14631187663E+03  0.13141669233E+03 -0.22490034212E+04  0.22575858568E+04  0.00000000000E+00 0.  1.
<scales pt_clust_3="91.73714" pt_clust_4="31.73605" pt_clust_5="14000.00000" pt_clust_6="159.62110"></scales>
<clustering>
<clus scale="   31.736">  1  4  2 -1</clus>
<clus scale="   91.737">  1  3  2 -1</clus>
<clus scale="  159.621">  2  6  1 -1</clus>
<clus scale="   31.736">  1  3  2 -1</clus>
</clustering>
</event>
<event>
 6    0  0.1849053E+002  0.1031874E+03  0.7546771E-02  0.1273733E+00
         -3   -1    0    0    0  501 -0.00000000000E+00  0.00000000000E+00  0.37232406321E+03  0.37232406321E+03  0.00000000000E+00 0.  1.
         21   -1    0    0  503  502  0.00000000000E+00 -0.00000000000E+00 -0.91975195532E+02  0.91975195532E+02  0.00000000000E+00 0.  1.
         21    1    1    2  503  501 -0.30304487148E+02  0.55793247086E+02  0.38663509530E+02  0.74337845886E+02  0.00000000000E+00 0.  1.
         21    1    1    2  504  505  0.74595647044E+02  0.30200031044E+02  0.83005230081E+02  0.11561323736E+03  0.00000000000E+00 0.  1.
         21    1    1    2  505  502 -0.11934210871E+03 -0.37143613094E+02  0.52815981091E+02  0.13568977399E+03  0.00000000000E+00 0.  1.
         -3    1    1    2    0  504  0.75050948820E+02 -0.48849665037E+02  0.10586414697E+03  0.13865840150E+03  0.00000000000E+00 0.  1.
<scales pt_clust_3="63.49211" pt_clust_4="103.18738" pt_clust_5="14000.00000" pt_clust_6="77.48862"></scales>
<clustering>
<clus scale="   63.492">  2  3  1 -1</clus>
<clus scale="   77.489">  1  6  2 -1</clus>
<clus scale="  103.187">  1  4  2 -1</clus>
<clus scale="   63.492">  2  3  1 -1</clus>
</clustering>
</event>
<event>
 6    0  0.1849053E+002  0.1259569E+03  0.7546771E-02  0.1233581E+00
         21   -1    0    0  503  502  0.00000000000E+00  0.00000000000E+00  0.88303188685E+03  0.88303188685E+03  0.00000000000E+00 0. -1.
         -3   -1    0    0    0  501 -0.00000000000E+00 -0.00000000000E+00 -0.15677288444E+03  0.15677288444E+03  0.00000000000E+00 0.  1.
         21    1    1    2  503  504 -0.71128104551E+02 -0.44733128130E+02  0.62953786756E+03  0.63512060799E+03  0.00000000000E+00 0. -1.
         21    1    1    2  504  501 -0.59036911420E+02  0.14979158785E+02  0.46057542436E+02  0.76361176806E+02  0.00000000000E+00 0.  1.
         21    1    1    2  505  502 -0.20623136451E+02 -0.48054717322E+02  0.13065648953E+03  0.14073268231E+03  0.00000000000E+00 0.  1.
         -3    1    1    2    0  505  0.15078815242E+03  0.77808686666E+02 -0.79992897123E+02  0.18759030418E+03  0.00000000000E+00 0.  1.
<scales pt_clust_3="14000.00000" pt_clust_4="61.72199" pt_clust_5="52.29311" pt_clust_6="125.95691"></scales>
<clustering>
<clus scale="   52.293">  1  5  2 -1</clus>
<clus scale="   61.722">  2  4  1 -1</clus>
<clus scale="  125.957">  2  6  1 -1</clus>
<clus scale="   52.293">  1  3  2 -1</clus>
</clustering>
</event>
<event>
 6    0  0.1849053E+002  0.7654571E+02  0.7546771E-02  0.1339150E+00
         21   -1    0    0  501  502  0.00000000000E+00  0.00000000000E+00  0.39549252477E+02  0.39549252477E+02  0.00000000000E+00 0. -1.
          2   -1    0    0  503    0 -0.00000000000E+00 -0.00000000000E+00 -0.13474467235E+04  0.13474467235E+04  0.00000000000E+00 0. -1.
         21    1    1    2  503  504 -0.28197997055E+02  0.13152425443E+02 -0.16258690816E+03  0.16553735542E+03  0.00000000000E+00 0.  1.
         21    1    1    2  504  505  0.20951422779E+02  0.35136511648E+02 -0.25548543729E+03  0.25873991813E+03  0.00000000000E+00 0.  1.
         21    1    1    2  505  502 -0.48327665903E+02  0.56849322286E+02 -0.10455313837E+02  0.75344026462E+02  0.00000000000E+00 0. -1.
          2    1    1    2  501    0  0.55574240179E+02 -0.10513825938E+03 -0.87936981177E+03  0.88737467600E+03  0.00000000000E+00 0. -1.
<scales pt_clust_3="31.11452" pt_clust_4="40.78395" pt_clust_5="76.54571" pt_clust_6="14000.00000"></scales>
<clustering>
<clus scale="   31.115">  2  3  1 -1</clus>
<clus scale="   40.784">  2  4  1 -1</clus>
<clus scale="   76.546">  1  5  2 -1</clus>
<clus scale="   76.546">  1  3  2 -1</clus>
</clustering>
</event>
<event>
 6    0  0.1849053E+002  0.7961410E+02  0.7546771E-02  0.1330150E+00
         -3   -1    0    0    0  501 -0.00000000000E+00  0.00000000000E+00  0.22654509720E+03  0.22654509720E+03  0.00000000000E+00 0. -1.
         21   -1    0    0  505  502  0.00000000000E+00 -0.00000000000E+00 -0.16862073265E+03  0.16862073265E+03  0.00000000000E+00 0. -1.
         21    1    1    2  503  501  0.32631847901E+02  0.45723042866E+02  0.57939051463E+02  0.80699243062E+02  0.00000000000E+00 0.  1.
         21    1    1    2  504  502  0.52014361330E+02  0.48298117923E+02 -0.13010973332E+02  0.72162922657E+02  0.00000000000E+00 0. -1.
         21    1    1    2  505  503 -0.60000613950E+02 -0.59241477480E+02 -0.94509295321E+02  0.12665556928E+03  0.00000000000E+00 0. -1.
         -3    1    1    2    0  504 -0.24645595280E+02 -0.34779683308E+02  0.10750558173E+03  0.11564809485E+03  0.00000000000E+00 0. -1.
<scales pt_clust_3="30.47213" pt_clust_4="79.61410" pt_clust_5="14000.00000" pt_clust_6="42.62666"></scales>
<clustering>
<clus scale="   42.627">  1  6  2 -1</clus>
<clus scale="   30.472">  1  3  2 -1</clus>
<clus scale="   79.614">  1  4  2 -1</clus>
<clus scale="   79.614">  2  3  1 -1</clus>
</clustering>
</event>
<event>
 6    0  0.1849053E+002  0.1170212E+03  0.7546771E-02  0.1248094E+00
         21   -1    0    0  505  502  0.00000000000E+00  0.00000000000E+00  0.36271034055E+03  0.36271034055E+03  0.00000000000E+00 0. -1.
          3   -1    0    0  503    0 -0.00000000000E+00 -0.00000000000E+00 -0.10001984465E+04  0.10001984465E+04  0.00000000000E+00 0.  1.
         21    1    1    2  503  502  0.36326290732E+02  0.41299144238E+01 -0.81674257798E+01  0.37461479354E+02  0.00000000000E+00 0. -1.
         21    1    1    2  504  501 -0.49574494053E+02 -0.83787364182E+02 -0.64343342713E+03  0.65075688856E+03  0.00000000000E+00 0.  1.
         21    1    1    2  505  504  0.45362889020E+02  0.81766282673E+02  0.33724051785E+03  0.34996383179E+03  0.00000000000E+00 0. -1.
          3    1    1    2  501    0 -0.32114685700E+02 -0.21088329147E+01 -0.32312777086E+03  0.32472658732E+03  0.00000000000E+00 0.  1.
<scales pt_clust_3="35.47583" pt_clust_4="117.02117" pt_clust_5="14000.00000" pt_clust_6="32.18385"></scales>
<clustering>
<clus scale="   32.184">  2  6  1 -1</clus>
<clus scale="   35.476">  1  3  2 -1</clus>
<clus scale="  117.021">  2  4  1 -1</clus>
<clus scale="   35.476">  1  3  2 -1</clus>
</clustering>
</event>
<event>
 6    0  0.1849053E+002  0.1080357E+03  0.7546771E-02  0.1264251E+00
          1   -1    0    0  505    0 -0.00000000000E+00  0.00000000000E+00  0.16962970439E+04  0.16962970439E+04  0.00000000000E+00 0. -1.
         21   -1    0    0  504  502  0.00000000000E+00 -0.00000000000E+00 -0.57387056307E+02  0.57387056307E+02  0.00000000000E+00 0.  1.
         21    1    1    2  503  501 -0.60130357491E+02  0.61357541136E+02  0.54849615176E+03  0.55518324565E+03  0.00000000000E+00 0. -1.
         21    1    1    2  504  503 -0.65506621320E+01 -0.55974593849E+02 -0.81535179643E+01  0.56943359456E+02  0.00000000000E+00 0.  1.
         21    1    1    2  505  502  0.10704792824E+03 -0.15513653219E+02  0.11787584074E+03  0.15998326852E+03  0.00000000000E+00 0.  1.
          1    1    1    2  501    0 -0.40366908617E+02  0.10130705933E+02  0.98069151308E+03  0.98157422660E+03  0.00000000000E+00 0. -1.
<scales pt_clust_3="108.03569" pt_clust_4="56.19106" pt_clust_5="14000.00000" pt_clust_6="41.61873"></scales>
<clustering>
<clus scale="   41.619">  1  6  2 -1</clus>
<clus scale="   56.191">  2  4  1 -1</clus>
<clus scale="  108.036">  1  3  2 -1</clus>
<clus scale="   56.191">  2  3  1 -1</clus>
</clustering>
</event>
<event>
 6    0  0.1849053E+002  0.1355780E+03  0.7546771E-02  0.1219406E+00
         -2   -1    0    0    0  501 -0.00000000000E+00  0.00000000000E+00  0.22046920777E+03  0.22046920777E+03  0.00000000000E+00 0. -1.
         21   -1    0    0  503  502  0.00000000000E+00 -0.00000000000E+00 -0.55545006478E+03  0.55545006478E+03  0.00000000000E+00 0. -1.
         21    1    1    2  503  501 -0.29195107577E+02  0.25622777014E+02 -0.30441116278E+02  0.49351216486E+02  0.00000000000E+00 0. -1.
         21    1    1    2  504  505 -0.30507050567E+01 -0.37942459206E+02  0.36557820909E+02  0.52776995761E+02  0.00000000000E+00 0. -1.
         21    1    1    2  505  502 -0.29405415919E+02  0.87611738928E+02 -0.48849941155E+03  0.49716412820E+03  0.00000000000E+00 0. -1.
         -2    1    1    2    0  504  0.61651228553E+02 -0.75292056736E+02  0.14740184991E+03  0.17662693211E+03  0.00000000000E+00 0. -1.
<scales pt_clust_3="38.84432" pt_clust_4="31.45180" pt_clust_5="125.90654" pt_clust_6="31.45180"></scales>
<clustering>
<clus scale="   31.452">  4  6 -1 -1</clus>
<clus scale="   38.844">  2  3  1 -1</clus>
<clus scale="  125.907">  2  5  1 -1</clus>
<clus scale="   38.844">  2  3  1 -1</clus>
</clustering>
</event>
<event>
 6    0  0.1849053E+002  0.1019781E+03  0.7546771E-02  0.1276190E+00
         21   -1    0    0  504  502  0.00000000000E+00  0.00000000000E+00  0.19785489057E+03  0.19785489057E+03  0.00000000000E+00 0. -1.
         -2   -1    0    0    0  501 -0.00000000000E+00 -0.00000000000E+00 -0.22378095700E+03  0.22378095700E+03  0.00000000000E+00 0.  1.
         21    1    1    2  503  501  0.64107047342E+02  0.14745315012E+02 -0.92892862391E+02  0.11382540014E+03  0.00000000000E+00 0. -1.
         21    1    1    2  504  503  0.75173616486E+02  0.29413549982E+02  0.11923033741E+03  0.14398646776E+03  0.00000000000E+00 0. -1.
         21    1    1    2  505  502 -0.34584880874E+02 -0.11652264477E+02  0.98806594768E+01  0.37808949790E+02  0.00000000000E+00 0. -1.
         -2    1    1    2    0  505 -0.10469578295E+03 -0.32506600517E+02 -0.62144200928E+02  0.12601502988E+03  0.00000000000E+00 0.  1.
<scales pt_clust_3="65.78098" pt_clust_4="87.41753" pt_clust_5="30.29942" pt_clust_6="30.29942"></scales>
<clustering>
<clus scale="   30.299">  5  6 -1 -1</clus>
<clus scale="   65.781">  2  3  1 -1</clus>
<clus scale="   87.418">  1  4  2 -1</clus>
<clus scale="   87.418">  1  3  2 -1</clus>
</clustering>
</event>
<event>
 6    0  0.1849053E+002  0.8421641E+02  0.7546771E-02  0.1317495E+00
          2   -1    0    0  503    0 -0.00000000000E+00  0.00000000000E+00  0.69550479944E+02  0.69550479944E+02  0.00000000000E+00 0.  1.
         21   -1    0    0  504  502  0.00000000000E+00 -0.00000000000E+00 -0.44225025074E+03  0.44225025074E+03  0.00000000000E+00 0.  1.
         21    1    1    2  503  505  0.26726562774E+02  0.13738265190E+02  0.72281840613E+01  0.30907858758E+02  0.00000000000E+00 0. -1.
         21    1    1    2  504  501 -0.82928417351E+02  0.76327967748E+02 -0.31189790647E+03  0.33163743022E+03  0.00000000000E+00 0.  1.
         21    1    1    2  505  502  0.70670464729E+01 -0.38454530506E+02 -0.67485254083E+02  0.77993291897E+02  0.00000000000E+00 0.  1.
          2    1    1    2  501    0  0.49134808104E+02 -0.51611702433E+02 -0.54479431300E+00  0.71262149815E+02  0.00000000000E+00 0.  1.
<scales pt_clust_3="30.05078" pt_clust_4="14000.00000" pt_clust_5="38.31220" pt_clust_6="84.21641"></scales>
<clustering>
<clus scale="   30.051">  1  3  2 -1</clus>
<clus scale="   38.312">  2  5  1 -1</clus>
<clus scale="   84.216">  1  6  2 -1</clus>
<clus scale="   38.312">  2  3  1 -1</clus>
</clustering>
</event>
<event>
 6    0  0.1849053E+002  0.2114858E+03  0.7546771E-02  0.1140395E+00
         21   -1    0    0  501  502  0.00000000000E+00  0.00000000000E+00  0.17250903300E+04  0.17250903300E+04  0.00000000000E+00 0.  1.
          3   -1    0    0  505    0 -0.00000000000E+00 -0.00000000000E+00 -0.90995271151E+02  0.90995271151E+02  0.00000000000E+00 0.  1.
         21    1    1    2  503  502 -0.18358758097E+02 -0.28373711924E+02  0.32785678657E+03  0.32959396843E+03  0.00000000000E+00 0.  1.
         21    1    1    2  504  503  0.48747743038E+02 -0.18759242339E+03  0.11471599865E+04  0.11634187958E+04  0.00000000000E+00 0.  1.
         21    1    1    2  505  504  0.11497688958E+02  0.79286446402E+02 -0.30423704797E+02  0.85697953581E+02  0.00000000000E+00 0.  1.
          3    1    1    2  501    0 -0.41886673899E+02  0.13667968891E+03  0.18950199056E+03  0.23737488333E+03  0.00000000000E+00 0.  1.
<scales pt_clust_3="31.93155" pt_clust_4="31.93155" pt_clust_5="80.11578" pt_clust_6="197.17620"></scales>
<clustering>
<clus scale="   31.932">  3  4 -1 -1</clus>
<clus scale="   80.116">  2  5  1 -1</clus>
<clus scale="  197.176">  2  6  1 -1</clus>
<clus scale="  211.486">  1  3  2 -1</clus>
</clustering>
</event>
<event>
 6    0  0.1849053E+002  0.1319724E+03  0.7546771E-02  0.1224558E+00
         21   -1    0    0  501  502  0.00000000000E+00  0.00000000000E+00  0.88245919663E+02  0.88245919663E+02  0.00000000000E+00 0. -1.
          1   -1    0    0  504    0 -0.00000000000E+00 -0.00000000000E+00 -0.13254182090E+04  0.13254182090E+04  0.00000000000E+00 0. -1.
         21    1    1    2  503  502  0.55077216247E+02 -0.24584458722E+02  0.40023470858E+02  0.72386280328E+02  0.00000000000E+00 0. -1.
         21    1    1    2  504  505 -0.43697558411E+02  0.67671884267E+02 -0.82970270150E+03  0.83360394277E+03  0.00000000000E+00 0. -1.
         21    1    1    2  505  503  0.65564409778E+02 -0.35517141887E+01 -0.15982748017E+02  0.67577768070E+02  0.00000000000E+00 0. -1.
          1    1    1    2  501    0 -0.76944067614E+02 -0.39535711356E+02 -0.43151031065E+03  0.44009613747E+03  0.00000000000E+00 0. -1.
<scales pt_clust_3="58.03000" pt_clust_4="80.55408" pt_clust_5="58.03000" pt_clust_6="117.26370"></scales>
<clustering>
<clus scale="   58.030">  3  5 -1 -1</clus>
<clus scale="   80.554">  2  4  1 -1</clus>
<clus scale="  117.264">  2  6  1 -1</clus>
<clus scale="  131.972">  1  3  2 -1</clus>
</clustering>
</event>
<event>
 6    0  0.1849053E+002  0.2072201E+03  0.7546771E-02  0.1143786E+00
         21   -1    0    0  505  502  0.00000000000E+00  0.00000000000E+00  0.36340731288E+02  0.36340731288E+02  0.00000000000E+00 0. -1.
          2   -1    0    0  504    0 -0.00000000000E+00 -0.00000000000E+00 -0.28943066128E+04  0.28943066128E+04  0.00000000000E+00 0. -1.
         21    1    1    2  503  502 -0.23499916810E+02  0.18111429309E+03 -0.98898686629E+03  0.10057085338E+04  0.00000000000E+00 0.  1.
         21    1    1    2  504  503  0.56439121644E+02  0.12165712385E+02 -0.29377860804E+03  0.29939814554E+03  0.00000000000E+00 0.  1.
         21    1    1    2  505  501  0.78569985720E+02 -0.20864270548E+03 -0.53963735092E+03  0.58387797673E+03  0.00000000000E+00 0. -1.
          2    1    1    2  501    0 -0.11150919055E+03  0.15362700006E+02 -0.10355630562E+04  0.10416626880E+04  0.00000000000E+00 0. -1.
<scales pt_clust_3="207.22014" pt_clust_4="57.73542" pt_clust_5="14000.00000" pt_clust_6="91.21475"></scales>
<clustering>
<clus scale="   57.735">  2  4  1 -1</clus>
<clus scale="   91.215">  2  6  1 -1</clus>
<clus scale="  207.220">  2  3  1 -1</clus>
<clus scale="  207.220">  1  3  2 -1</clus>
</clustering>
</event>
<event>
 6    0  0.1849053E+002  0.1427634E+03  0.7546771E-02  0.1209658E+00
         21   -1    0    0  505  502  0.00000000000E+00  0.00000000000E+00  0.15622895444E+03  0.15622895444E+03  0.00000000000E+00 0. -1.
          2   -1    0    0  502    0 -0.00000000000E+00 -0.00000000000E+00 -0.13738961232E+04  0.13738961232E+04  0.00000000000E+00 0.  1.
         21    1    1    2  503  504 -0.64121927429E+02 -0.34828020532E+01  0.38194895510E+02  0.74716808888E+02  0.00000000000E+00 0. -1.
         21    1    1    2  504  501  0.57263776372E+02  0.19021914868E+02 -0.36204416144E+03  0.36703807454E+03  0.00000000000E+00 0. -1.
         21    1    1    2  505  503 -0.64061759697E+02 -0.94779544912E+01  0.85060901310E+02  0.10690695772E+03  0.00000000000E+00 0. -1.
          2    1    1    2  501    0  0.70919910755E+02 -0.60611583237E+01 -0.97887880414E+03  0.98146323649E+03  0.00000000000E+00 0.  1.
<scales pt_clust_3="34.44037" pt_clust_4="56.62534" pt_clust_5="133.39865" pt_clust_6="56.62534"></scales>
<clustering>
<clus scale="   34.440">  3  5 -1 -1</clus>
<clus scale="   56.625">  4  6 -1 -1</clus>
<clus scale="  133.399">  1  3  2 -1</clus>
<clus scale="  133.399">  1  3  2 -1</clus>
</clustering>
</event>
<event>
 6    0  0.1849053E+002  0.1379229E+03  0.7546771E-02  0.1216152E+00
          1   -1    0    0  504    0 -0.00000000000E+00  0.00000000000E+00  0.49787643253E+03  0.49787643253E+03  0.00000000000E+00 0.  1.
         21   -1    0    0  501  502  0.00000000000E+00 -0.00000000000E+00 -0.17994961887E+04  0.17994961887E+04  0.00000000000E+00 0.  1.
         21    1    1    2  503  505  0.79858190952E+02 -0.21149992584E+01 -0.45770257302E+03  0.46462183465E+03  0.00000000000E+00 0.  1.
         21    1    1    2  504  503  0.54976599139E+02  0.48035844174E+02  0.48600580945E+02  0.87703393586E+02  0.00000000000E+00 0.  1.
         21    1    1    2  505  502  0.49133379408E+02 -0.57845467266E+02 -0.12976891140E+04  0.12999066212E+04  0.00000000000E+00 0.  1.
          1    1    1    2  501    0 -0.18396816950E+03  0.11924622351E+02  0.40517134990E+03  0.44514077187E+03  0.00000000000E+00 0.  1.
<scales pt_clust_3="14000.00000" pt_clust_4="73.00595" pt_clust_5="75.89350" pt_clust_6="137.92287"></scales>
<clustering>
<clus scale="   73.006">  1  4  2 -1</clus>
<clus scale="   75.893">  2  5  1 -1</clus>
<clus scale="  137.923">  1  6  2 -1</clus>
<clus scale="   75.893">  2  3  1 -1</clus>
</clustering>
</event>
<event>
 6    0  0.1849053E+002  0.1316631E+03  0.7546771E-02  0.1225009E+00
         21   -1    0    0  505  502  0.00000000000E+00  0.00000000000E+00  0.82966022461E+02  0.82966022461E+02  0.00000000000E+00 0.  1.
         -1   -1    0    0    0  501 -0.00000000000E+00 -0.00000000000E+00 -0.22493912059E+03  0.22493912059E+03  0.00000000000E+00 0.  1.
         21    1    1    2  503  502  0.59446527337E+02  0.20325128783E+02 -0.41825500510E+02  0.75474319907E+02  0.00000000000E+00 0. -1.
         21    1    1    2  504  501 -0.46173724594E+02 -0.22442191163E+02 -0.50052105186E+01  0.51582137600E+02  0.00000000000E+00 0.  1.
         21    1    1    2  505  504 -0.71937820681E+02  0.34296311233E+02 -0.24104727051E+02  0.83260584161E+02  0.00000000000E+00 0.  1.
         -1    1    1    2    0  503  0.58665017938E+02 -0.32179248854E+02 -0.71037660052E+02  0.97588101386E+02  0.00000000000E+00 0.  1.
<scales pt_clust_3="54.13898" pt_clust_4="45.71603" pt_clust_5="45.71603" pt_clust_6="131.19645"></scales>
<clustering>
<clus scale="   45.716">  4  5 -1 -1</clus>
<clus scale="   54.139">  3  6 -1 -1</clus>
<clus scale="  131.196">  2  3  1 -1</clus>
<clus scale="  131.663">  1  3  2 -1</clus>
</clustering>
</event>
<event>
 6    0  0.1849053E+002  0.2452480E+03  0.7546771E-02  0.1116345E+00
         21   -1    0    0  505  502  0.00000000000E+00  0.00000000000E+00  0.29820014971E+03  0.29820014971E+03  0.00000000000E+00 0. -1.
          1   -1    0    0  503    0 -0.00000000000E+00 -0.00000000000E+00 -0.10408127866E+04  0.10408127866E+04  0.00000000000E+00 0.  1.
         21    1    1    2  503  502  0.76763308964E+01 -0.37180596372E+02 -0.54125096026E+02  0.66112395376E+02  0.00000000000E+00 0. -1.
         21    1    1    2  504  501  0.72335935269E+02  0.71112004479E+02  0.88474928224E+02  0.13460021410E+03  0.00000000000E+00 0.  1.
         21    1    1    2  505  504  0.36739875496E+02  0.14057445792E+03  0.13750052389E+03  0.20004347213E+03  0.00000000000E+00 0. -1.
          1    1    1    2  501    0 -0.11675214166E+03 -0.17450586602E+03 -0.91446299303E+03  0.93825685475E+03  0.00000000000E+00 0.  1.
<scales pt_clust_3="37.96476" pt_clust_4="54.30616" pt_clust_5="54.30616" pt_clust_6="236.50321"></scales>
<clustering>
<clus scale="   37.965">  2  3  1 -1</clus>
<clus scale="   54.306">  4  5 -1 -1</clus>
<clus scale="  236.503">  2  6  1 -1</clus>
<clus scale="  245.248">  1  3  2 -1</clus>
</clustering>
</event>
<event>
 6    0  0.1849053E+002  0.7310345E+02  0.7546771E-02  0.1349847E+00
          2   -1    0    0  504    0 -0.00000000000E+00  0.00000000000E+00  0.58789040243E+03  0.58789040243E+03  0.00000000000E+00 0.  1.
         21   -1    0    0  505  502  0.00000000000E+00 -0.00000000000E+00 -0.34074138118E+03  0.34074138118E+03  0.00000000000E+00 0. -1.
         21    1    1    2  503  501  0.82928665708E+01 -0.59815705060E+02  0.73646973356E+02  0.95239523793E+02  0.00000000000E+00 0.  1.
         21    1    1    2  504  502 -0.95492168924E+02  0.33830367728E+02 -0.30098750651E+03  0.31757948168E+03  0.00000000000E+00 0. -1.
         21    1    1    2  505  503  0.37266921212E+02  0.22287469236E+02  0.50556698885E+01  0.43716295584E+02  0.00000000000E+00 0.  1.
          2    1    1    2  501    0  0.49932381142E+02  0.36978680959E+01  0.46943388451E+03  0.47209648256E+03  0.00000000000E+00 0.  1.
<scales pt_clust_3="14000.00000" pt_clust_4="73.10345" pt_clust_5="43.42297" pt_clust_6="50.22994"></scales>
<clustering>
<clus scale="   43.423">  2  5  1 -1</clus>
<clus scale="   50.230">  1  6  2 -1</clus>
<clus scale="   73.103">  2  4  1 -1</clus>
<clus scale="   43.423">  2  3  1 -1</clus>
</clustering>
</event>
<event>
 6    0  0.1849053E+002  0.1907984E+03  0.7546771E-02  0.1157743E+00
          1   -1    0    0  505    0 -0.00000000000E+00  0.00000000000E+00  0.16883806379E+04  0.16883806379E+04  0.00000000000E+00 0.  1.
         21   -1    0    0  503  502  0.00000000000E+00 -0.00000000000E+00 -0.33306497975E+02  0.33306497975E+02  0.00000000000E+00 0.  1.
         21    1    1    2  503  504 -0.82634425079E+00  0.45720719370E+02  0.13592544358E+03  0.14341127305E+03  0.00000000000E+00 0. -1.
         21    1    1    2  504  501  0.31345180349E+02  0.12972370088E+03  0.20258737268E+03  0.24259514107E+03  0.00000000000E+00 0.  1.
         21    1    1    2  505  502 -0.29925797098E+02  0.10366961121E+02  0.96840116235E+02  0.10188736589E+03  0.00000000000E+00 0. -1.
          1    1    1    2  501    0 -0.59303900006E+00 -0.18581138137E+03  0.12197212075E+04  0.12337933559E+04  0.00000000000E+00 0.  1.
<scales pt_clust_3="30.40414" pt_clust_4="30.40414" pt_clust_5="31.67060" pt_clust_6="183.59233"></scales>
<clustering>
<clus scale="   30.404">  3  4 -1 -1</clus>
<clus scale="   31.671">  2  5  1 -1</clus>
<clus scale="  183.592">  1  6  2 -1</clus>
<clus scale="   31.671">  2  3  1 -1</clus>
</clustering>
</event>
<event>
 6    0  0.1849053E+002  0.1239300E+03  0.7546771E-02  0.1236751E+00
          2   -1    0    0  503    0 -0.00000000000E+00  0.00000000000E+00  0.14853186009E+04  0.14853186009E+04  0.00000000000E+00 0. -1.
         21   -1    0    0  501  502  0.00000000000E+00 -0.00000000000E+00 -0.10510526206E+03  0.10510526206E+03  0.00000000000E+00 0.  1.
         21    1    1    2  503  504 -0.66864340145E+02  0.10222092560E+02  0.32810778694E+03  0.33500753873E+03  0.00000000000E+00 0. -1.
         21    1    1    2  504  505 -0.73308438823E+02 -0.59921866039E+02  0.23235445441E+02  0.97491759432E+02  0.00000000000E+00 0.  1.
         21    1    1    2  505  502  0.14743366051E+02 -0.55350354116E+02 -0.44264040873E+02  0.72390150281E+02  0.00000000000E+00 0.  1.
          2    1    1    2  501    0  0.12542941292E+03  0.10505012759E+03  0.10731341473E+04  0.10855344145E+04  0.00000000000E+00 0. -1.
<scales pt_clust_3="66.06297" pt_clust_4="123.93001" pt_clust_5="57.28026" pt_clust_6="14000.00000"></scales>
<clustering>
<clus scale="   57.280">  2  5  1 -1</clus>
<clus scale="   66.063">  1  3  2 -1</clus>
<clus scale="  123.930">  2  4  1 -1</clus>
<clus scale="   57.280">  2  3  1 -1</clus>
</clustering>
</event>
<event>
 6    0  0.1849053E+002  0.1464197E+03  0.7546771E-02  0.1204943E+00
          2   -1    0    0  503    0 -0.00000000000E+00  0.00000000000E+00  0.12063915976E+04  0.12063915976E+04  0.00000000000E+00 0. -1.
         21   -1    0    0  505  502  0.00000000000E+00 -0.00000000000E+00 -0.17668851521E+03  0.17668851521E+03  0.00000000000E+00 0. -1.
         21    1    1    2  503  504  0.43636067226E+02 -0.33079176568E+02  0.68982758900E+02  0.88073601668E+02  0.00000000000E+00 0. -1.
         21    1    1    2  504  502  0.36604688080E+02  0.29985958503E+02 -0.43673444411E+02  0.64392784094E+02  0.00000000000E+00 0. -1.
         21    1    1    2  505  501 -0.15746007715E+02 -0.13020595791E+03 -0.68213311394E+02  0.14783296008E+03  0.00000000000E+00 0. -1.
          2    1    1    2  501    0 -0.64494747590E+02  0.13329917597E+03  0.10726070793E+04  0.10827807670E+04  0.00000000000E+00 0. -1.
<scales pt_clust_3="55.73260" pt_clust_4="47.31872" pt_clust_5="14000.00000" pt_clust_6="146.41968"></scales>
<clustering>
<clus scale="   47.319">  2  4  1 -1</clus>
<clus scale="   55.733">  2  3  1 -1</clus>
<clus scale="  146.420">  1  6  2 -1</clus>
<clus scale="   47.319">  2  3  1 -1</clus>
</clustering>
</event>
<event>
 6    0  0.1849053E+002  0.4887257E+03  0.7546771E-02  0.1016764E+00
         21   -1    0    0  503  502  0.00000000000E+00  0.00000000000E+00  0.10873969927E+03  0.10873969927E+03  0.00000000000E+00 0. -1.
          2   -1    0    0  504    0 -0.00000000000E+00 -0.00000000000E+00 -0.25972731029E+04  0.25972731029E+04  0.00000000000E+00 0. -1.
         21    1    1    2  503  505  0.32024205867E+03 -0.35004206291E+03 -0.77666461598E+03  0.91010567940E+03  0.00000000000E+00 0. -1.
         21    1    1    2  504  502  0.33284486877E+02 -0.53954361332E+01 -0.16171006237E+03  0.16518811116E+03  0.00000000000E+00 0.  1.
         21    1    1    2  505  501 -0.36199952815E+02  0.72057341078E+02 -0.26096417989E+03  0.27313915899E+03  0.00000000000E+00 0.  1.
          2    1    1    2  501    0 -0.31732659273E+03  0.28338015797E+03 -0.12891945454E+04  0.13575798527E+04  0.00000000000E+00 0. -1.
<scales pt_clust_3="483.64987" pt_clust_4="33.71895" pt_clust_5="30.58601" pt_clust_6="30.58601"></scales>
<clustering>
<clus scale="   30.586">  5  6 -1 -1</clus>
<clus scale="   33.719">  2  4  1 -1</clus>
<clus scale="  483.650">  1  3  2 -1</clus>
<clus scale="  483.650">  1  3  2 -1</clus>
</clustering>
</event>
<event>
 6    0  0.1849053E+002  0.9392007E+02  0.7546771E-02  0.1293627E+00
          2   -1    0    0  504    0 -0.00000000000E+00  0.00000000000E+00  0.45328421108E+04  0.45328421108E+04  0.00000000000E+00 0.  1.
         21   -1    0    0  503  502  0.00000000000E+00 -0.00000000000E+00 -0.57519798980E+03  0.57519798980E+03  0.00000000000E+00 0. -1.
         21    1    1    2  503  501 -0.43572698307E+02 -0.86418689753E+01 -0.60335211266E+02  0.74923959156E+02  0.00000000000E+00 0. -1.
         21    1    1    2  504  505 -0.28571176225E+02 -0.45921944920E+02  0.64522879236E+03  0.64749156877E+03  0.00000000000E+00 0.  1.
         21    1    1    2  505  502  0.50694175678E+02  0.10315699795E+03 -0.49973086269E+03  0.51277890050E+03  0.00000000000E+00 0. -1.
          2    1    1    2  501    0  0.21449698854E+02 -0.48593184051E+02  0.38724814025E+04  0.38728456721E+04  0.00000000000E+00 0.  1.
<scales pt_clust_3="44.42141" pt_clust_4="14000.00000" pt_clust_5="93.92007" pt_clust_6="53.11326"></scales>
<clustering>
<clus scale="   44.421">  2  3  1 -1</clus>
<clus scale="   53.113">  1  6  2 -1</clus>
<clus scale="   93.920">  2  5  1 -1</clus>
<clus scale="   44.421">  2  3  1 -1</clus>
</clustering>
</event>
<event>
 6    0  0.1849053E+002  0.2257132E+03  0.7546771E-02  0.1129694E+00
          1   -1    0    0  503    0 -0.00000000000E+00  0.00000000000E+00  0.11834888518E+03  0.11834888518E+03  0.00000000000E+00 0. -1.
         21   -1    0    0  505  502  0.00000000000E+00 -0.00000000000E+00 -0.40407235307E+04  0.40407235307E+04  0.00000000000E+00 0. -1.
         21    1    1    2  503  504 -0.23889124656E+03 -0.20074275077E+02 -0.18272998912E+03  0.30143366289E+03  0.00000000000E+00 0. -1.
         21    1    1    2  504  502  0.34718044014E+02  0.54530466438E+01 -0.26015842384E+04  0.26018215980E+04  0.00000000000E+00 0. -1.
         21    1    1    2  505  501 -0.43693370649E+01 -0.40765135736E+02 -0.99740781270E+03  0.99825008502E+03  0.00000000000E+00 0. -1.
          1    1    1    2  501    0  0.20854253961E+03  0.55386364169E+02 -0.14065260529E+03  0.25756706998E+03  0.00000000000E+00 0. -1.
<scales pt_clust_3="225.71318" pt_clust_4="35.14368" pt_clust_5="41.90558" pt_clust_6="14000.00000"></scales>
<clustering>
<clus scale="   35.144">  2  4  1 -1</clus>
<clus scale="   41.906">  2  5  1 -1</clus>
<clus scale="  225.713">  2  3  1 -1</clus>
<clus scale="   35.144">  2  3  1 -1</clus>
</clustering>
</event>
<event>
 6    0  0.1849053E+002  0.9313641E+02  0.7546771E-02  0.1295429E+00
          2   -1    0    0  505    0 -0.00000000000E+00  0.00000000000E+00  0.31882685084E+04  0.31882685084E+04  0.00000000000E+00 0.  1.
         21   -1    0    0  504  502  0.00000000000E+00 -0.00000000000E+00 -0.12021643262E+03  0.12021643262E+03  0.00000000000E+00 0.  1.
         21    1    1    2  503  502  0.49425819429E+02  0.14465953030E+02 -0.22945855486E+02  0.56379851962E+02  0.00000000000E+00 0. -1.
         21    1    1    2  504  501 -0.60729779823E+01 -0.96821074121E+02 -0.45630790367E+02  0.10720713822E+03  0.00000000000E+00 0.  1.
         21    1    1    2  505  503  0.51593448947E+02 -0.88988054378E+01  0.25799863889E+03  0.26325723235E+03  0.00000000000E+00 0. -1.
          2    1    1    2  501    0 -0.94946290393E+02  0.91253926529E+02  0.28786300828E+04  0.28816407185E+04  0.00000000000E+00 0.  1.
<scales pt_clust_3="51.49928" pt_clust_4="93.13641" pt_clust_5="53.86988" pt_clust_6="14000.00000"></scales>
<clustering>
<clus scale="   51.499">  2  3  1 -1</clus>
<clus scale="   53.870">  1  5  2 -1</clus>
<clus scale="   93.136">  2  4  1 -1</clus>
<clus scale="   51.499">  2  3  1 -1</clus>
</clustering>
</event>
<event>
 6    0  0.1849053E+002  0.1099446E+03  0.7546771E-02  0.1260673E+00
         21   -1    0    0  501  502  0.00000000000E+00  0.00000000000E+00  0.52478804779E+02  0.52478804779E+02  0.00000000000E+00 0. -1.
          2   -1    0    0  505    0 -0.00000000000E+00 -0.00000000000E+00 -0.59597128719E+03  0.59597128719E+03  0.00000000000E+00 0.  1.
         21    1    1    2  503  504 -0.21687263736E+02  0.32729036274E+02 -0.55898690524E+02  0.68309522221E+02  0.00000000000E+00 0.  1.
         21    1    1    2  504  502 -0.16974067310E+02  0.48849482913E+02  0.91117460713E+01  0.52511092717E+02  0.00000000000E+00 0. -1.
         21    1    1    2  505  503 -0.31438149987E+02  0.30386418960E+02 -0.16207214599E+03  0.16786623316E+03  0.00000000000E+00 0.  1.
          2    1    1    2  501    0  0.70099481033E+02 -0.11196493815E+03 -0.33463339197E+03  0.35976324386E+03  0.00000000000E+00 0.  1.
<scales pt_clust_3="36.23114" pt_clust_4="51.71451" pt_clust_5="36.23114" pt_clust_6="103.08237"></scales>
<clustering>
<clus scale="   36.231">  3  5 -1 -1</clus>
<clus scale="   51.715">  1  4  2 -1</clus>
<clus scale="  103.082">  1  6  2 -1</clus>
<clus scale="   51.715">  1  3  2 -1</clus>
</clustering>
</event>
<event>
 6    0  0.1849053E+002  0.1404409E+03  0.7546771E-02  0.1212737E+00
         21   -1    0    0  501  502  0.00000000000E+00  0.00000000000E+00  0.12604415922E+03  0.12604415922E+03  0.00000000000E+00 0. -1.
          2   -1    0    0  504    0 -0.00000000000E+00 -0.00000000000E+00 -0.18686090426E+04  0.18686090426E+04  0.00000000000E+00 0. -1.
         21    1    1    2  503  505  0.28710814034E+02 -0.33855764005E+02 -0.30067265802E+02  0.53614961266E+02  0.00000000000E+00 0. -1.
         21    1    1    2  504  503 -0.93502605612E+02  0.70637670350E+02 -0.16245029923E+04  0.16287241601E+04  0.00000000000E+00 0. -1.
         21    1    1    2  505  502  0.75435133825E+02 -0.13099851036E+03  0.36805097411E+02  0.15558176091E+03  0.00000000000E+00 0. -1.
          2    1    1    2  501    0 -0.10643342247E+02  0.94216604018E+02 -0.12479972271E+03  0.15673231956E+03  0.00000000000E+00 0. -1.
<scales pt_clust_3="40.89299" pt_clust_4="118.44448" pt_clust_5="40.89299" pt_clust_6="94.81587"></scales>
<clustering>
<clus scale="   40.893">  3  5 -1 -1</clus>
<clus scale="   94.816">  1  6  2 -1</clus>
<clus scale="  118.444">  2  4  1 -1</clus>
<clus scale="   94.816">  1  3  2 -1</clus>
</clustering>
</event>
<event>
 6    0  0.1849053E+002  0.1013060E+03  0.7546771E-02  0.1277573E+00
          1   -1    0    0  504    0 -0.00000000000E+00  0.00000000000E+00  0.18292608794E+04  0.18292608794E+04  0.00000000000E+00 0. -1.
         21   -1    0    0  503  502  0.00000000000E+00 -0.00000000000E+00 -0.28468305597E+03  0.28468305597E+03  0.00000000000E+00 0. -1.
         21    1    1    2  503  501 -0.84879925140E+02 -0.17344373142E+02 -0.16964554904E+03  0.19048632833E+03  0.00000000000E+00 0. -1.
         21    1    1    2  504  505 -0.16800640149E+02 -0.50622391309E+02  0.56556285395E+03  0.56807238076E+03  0.00000000000E+00 0. -1.
         21    1    1    2  505  502 -0.16305494717E+02  0.26082453239E+02 -0.97866443698E+02  0.10258656992E+03  0.00000000000E+00 0. -1.
          1    1    1    2  501    0  0.11798606001E+03  0.41884311212E+02  0.12465269622E+04  0.12527986564E+04  0.00000000000E+00 0. -1.
<scales pt_clust_3="14000.00000" pt_clust_4="53.20428" pt_clust_5="30.75977" pt_clust_6="101.30603"></scales>
<clustering>
<clus scale="   30.760">  2  5  1 -1</clus>
<clus scale="   53.204">  1  4  2 -1</clus>
<clus scale="  101.306">  1  6  2 -1</clus>
<clus scale="   30.760">  2  3  1 -1</clus>
</clustering>
</event>
<event>
 6    0  0.1849053E+002  0.8449291E+02  0.7546771E-02  0.1316764E+00
         -3   -1    0    0    0  501 -0.00000000000E+00  0.00000000000E+00  0.17707698060E+03  0.17707698060E+03  0.00000000000E+00 0.  1.
         21   -1    0    0  505  502  0.00000000000E+00 -0.00000000000E+00 -0.17190035030E+03  0.17190035030E+03  0.00000000000E+00 0.  1.
         21    1    1    2  503  502 -0.63544342933E+02 -0.21739957630E+02 -0.74024906791E+02  0.99950968490E+02  0.00000000000E+00 0.  1.
         21    1    1    2  504  503  0.97101217567E+02 -0.49923265568E+02  0.63839211434E+02  0.12647696950E+03  0.00000000000E+00 0. -1.
         21    1    1    2  505  501 -0.26879675963E+02  0.26803012230E+02 -0.37183527662E+02  0.53136928533E+02  0.00000000000E+00 0.  1.
         -3    1    1    2    0  504 -0.66771986703E+01  0.44860210968E+02  0.52545853321E+02  0.69412464381E+02  0.00000000000E+00 0.  1.
<scales pt_clust_3="84.49291" pt_clust_4="14000.00000" pt_clust_5="37.95943" pt_clust_6="47.40573"></scales>
<clustering>
<clus scale="   37.959">  2  5  1 -1</clus>
<clus scale="   47.406">  1  6  2 -1</clus>
<clus scale="   84.493">  2  3  1 -1</clus>
<clus scale="   37.959">  2  3  1 -1</clus>
</clustering>
</event>
<event>
 6    0  0.1849053E+002  0.1337688E+03  0.7546771E-02  0.1221968E+00
         21   -1    0    0  503  502  0.00000000000E+00  0.00000000000E+00  0.31229834280E+03  0.31229834280E+03  0.00000000000E+00 0. -1.
          2   -1    0    0  504    0 -0.00000000000E+00 -0.00000000000E+00 -0.29000280876E+03  0.29000280876E+03  0.00000000000E+00 0.  1.
         21    1    1    2  503  501  0.83720272021E+02 -0.26448933758E+02  0.59570664106E+02  0.10610039616E+03  0.00000000000E+00 0.  1.
         21    1    1    2  504  505 -0.15585943808E+02 -0.40656026750E+02  0.49026411746E+02  0.65569987069E+02  0.00000000000E+00 0.  1.
         21    1    1    2  505  502 -0.17708288513E+02 -0.56010599187E+02  0.14908879359E+03  0.16024431060E+03  0.00000000000E+00 0. -1.
          2    1    1    2  501    0 -0.50426039700E+02  0.12311555969E+03 -0.23539033541E+03  0.27038645773E+03  0.00000000000E+00 0.  1.
<scales pt_clust_3="87.79880" pt_clust_4="30.91613" pt_clust_5="30.91613" pt_clust_6="128.85870"></scales>
<clustering>
<clus scale="   30.916">  4  5 -1 -1</clus>
<clus scale="   87.799">  1  3  2 -1</clus>
<clus scale="  128.859">  2  6  1 -1</clus>
<clus scale="   87.799">  1  3  2 -1</clus>
</clustering>
</event>
<event>
 6    0  0.2387140E+002  0.7755707E+02  0.7546771E-02  0.1336131E+00
          2   -1    0    0  503    0 -0.00000000000E+00  0.00000000000E+00  0.56275100386E+03  0.56275100386E+03  0.00000000000E+00 0. -1.
         21   -1    0    0  505  502  0.00000000000E+00 -0.00000000000E+00 -0.27493868201E+04  0.27493868201E+04  0.00000000000E+00 0. -1.
         21    1    1    2  503  504  0.93266839767E+01  0.30686896248E+02  0.60707802790E+02  0.68659376307E+02  0.00000000000E+00 0. -1.
         21    1    1    2  504  502  0.93732048140E+02 -0.90113714960E+02 -0.26651878675E+04  0.26683576499E+04  0.00000000000E+00 0. -1.
         21    1    1    2  505  501 -0.37488452581E+02  0.36484626552E+02 -0.67181143196E+02  0.85145863391E+02  0.00000000000E+00 0. -1.
          2    1    1    2  501    0 -0.65570279536E+02  0.22942192160E+02  0.48502539169E+03  0.48997493439E+03  0.00000000000E+00 0. -1.
<scales pt_clust_3="32.07293" pt_clust_4="77.55707" pt_clust_5="52.57964" pt_clust_6="14000.00000"></scales>
<clustering>
<clus scale="   32.073">  1  3  2 -1</clus>
<clus scale="   52.580">  2  5  1 -1</clus>
<clus scale="   77.557">  2  4  1 -1</clus>
<clus scale="   52.580">  2  3  1 -1</clus>
</clustering>
</event>
<event>
 6    0  0.1849053E+002  0.8385325E+02  0.7546771E-02  0.1318459E+00
          2   -1    0    0  505    0 -0.00000000000E+00  0.00000000000E+00  0.45105429498E+03  0.45105429498E+03  0.00000000000E+00 0. -1.
         21   -1    0    0  503  502  0.00000000000E+00 -0.00000000000E+00 -0.84989077309E+02  0.84989077309E+02  0.00000000000E+00 0. -1.
         21    1    1    2  503  504  0.39510152462E+02  0.10998018776E+02 -0.72995420598E+01  0.41656834719E+02  0.00000000000E+00 0. -1.
         21    1    1    2  504  501  0.20174805701E+02 -0.70464827390E+02  0.24643972670E+03  0.25710864159E+03  0.00000000000E+00 0.  1.
         21    1    1    2  505  502 -0.48251767406E+00  0.74871594507E+02 -0.20530166637E+02  0.77636822639E+02  0.00000000000E+00 0. -1.
          2    1    1    2  501    0 -0.59202440488E+02 -0.15404785892E+02  0.14745519967E+03  0.15964107334E+03  0.00000000000E+00 0. -1.
<scales pt_clust_3="41.01230" pt_clust_4="83.85325" pt_clust_5="14000.00000" pt_clust_6="57.04486"></scales>
<clustering>
<clus scale="   41.012">  2  3  1 -1</clus>
<clus scale="   57.045">  1  6  2 -1</clus>
<clus scale="   83.853">  1  4  2 -1</clus>
<clus scale="   41.012">  2  3  1 -1</clus>
</clustering>
</event>
<event>
 6    0  0.1849053E+002  0.1179296E+03  0.7546771E-02  0.1246552E+00
          2   -1    0    0  503    0 -0.00000000000E+00  0.00000000000E+00  0.17695533590E+04  0.17695533590E+04  0.00000000000E+00 0. -1.
         21   -1    0    0  505  502  0.00000000000E+00 -0.00000000000E+00 -0.33218092283E+02  0.33218092283E+02  0.00000000000E+00 0. -1.
         21    1    1    2  503  504 -0.61941792225E+02 -0.22443404910E+02  0.31146406018E+03  0.31835570174E+03  0.00000000000E+00 0. -1.
         21    1    1    2  504  502  0.36576752111E+02  0.79228753314E+02  0.56308850093E+02  0.10385442092E+03  0.00000000000E+00 0. -1.
         21    1    1    2  505  501  0.41474699955E+02  0.32870446432E+02  0.15903968856E+03  0.16761336320E+03  0.00000000000E+00 0.  1.
          2    1    1    2  501    0 -0.16109659841E+02 -0.89655794836E+02  0.12095226678E+04  0.12129479654E+04  0.00000000000E+00 0. -1.
<scales pt_clust_3="59.93772" pt_clust_4="14000.00000" pt_clust_5="52.92086" pt_clust_6="117.92956"></scales>
<clustering>
<clus scale="   52.921">  2  5  1 -1</clus>
<clus scale="   59.938">  1  3  2 -1</clus>
<clus scale="  117.930">  1  6  2 -1</clus>
<clus scale="   52.921">  2  3  1 -1</clus>
</clustering>
</event>
<event>
 6    0  0.1849053E+002  0.1711796E+03  0.7546771E-02  0.1176623E+00
          1   -1    0    0  504    0 -0.00000000000E+00  0.00000000000E+00  0.18516612834E+03  0.18516612834E+03  0.00000000000E+00 0.  1.
         21   -1    0    0  503  502  0.00000000000E+00 -0.00000000000E+00 -0.34035507112E+03  0.34035507112E+03  0.00000000000E+00 0.  1.
         21    1    1    2  503  505 -0.16726848495E+03 -0.12927574154E+03 -0.87515543856E+02  0.22880107916E+03  0.00000000000E+00 0.  1.
         21    1    1    2  504  502  0.51733241328E+02  0.40591946229E+02 -0.11704603205E+03  0.13425277642E+03  0.00000000000E+00 0.  1.
         21    1    1    2  505  501  0.50122896192E+02  0.26533048500E+02 -0.53100317160E+01  0.56960546190E+02  0.00000000000E+00 0.  1.
          1    1    1    2  501    0  0.65412347427E+02  0.62150746809E+02  0.54682664846E+02  0.10550679769E+03  0.00000000000E+00 0.  1.
<scales pt_clust_3="162.96529" pt_clust_4="65.75739" pt_clust_5="41.53523" pt_clust_6="41.53523"></scales>
<clustering>
<clus scale="   41.535">  5  6 -1 -1</clus>
<clus scale="   65.757">  2  4  1 -1</clus>
<clus scale="  162.965">  2  3  1 -1</clus>
<clus scale="   65.757">  2  3  1 -1</clus>
</clustering>
</event>
<event>
 6    0  0.1849053E+002  0.1465509E+03  0.7546771E-02  0.1204776E+00
          2   -1    0    0  504    0 -0.00000000000E+00  0.00000000000E+00  0.10282172167E+04  0.10282172167E+04  0.00000000000E+00 0. -1.
         21   -1    0    0  503  502  0.00000000000E+00 -0.00000000000E+00 -0.15905550057E+03  0.15905550057E+03  0.00000000000E+00 0. -1.
         21    1    1    2  503  505  0.33023987289E+02 -0.17573154884E+02  0.27447778831E+02  0.46398061078E+02  0.00000000000E+00 0.  1.
         21    1    1    2  504  502 -0.44228211336E+02  0.13880927304E+03 -0.78900257996E+02  0.16567860354E+03  0.00000000000E+00 0. -1.
         21    1    1    2  505  501 -0.40777315516E+02  0.15840344569E+02  0.78033060466E+00  0.43752884392E+02  0.00000000000E+00 0.  1.
          2    1    1    2  501    0  0.51981539564E+02 -0.13707646272E+03  0.91983386469E+03  0.93144316827E+03  0.00000000000E+00 0. -1.
<scales pt_clust_3="37.40855" pt_clust_4="14000.00000" pt_clust_5="38.41536" pt_clust_6="146.55090"></scales>
<clustering>
<clus scale="   37.409">  2  3  1 -1</clus>
<clus scale="   38.415">  2  5  1 -1</clus>
<clus scale="  146.551">  1  6  2 -1</clus>
<clus scale="   37.409">  2  3  1 -1</clus>
</clustering>
</event>
<event>
 6    0  0.1849053E+002  0.1420887E+03  0.7546771E-02  0.1210546E+00
         21   -1    0    0  504  502  0.00000000000E+00  0.00000000000E+00  0.96179719615E+03  0.96179719615E+03  0.00000000000E+00 0.  1.
          2   -1    0    0  503    0 -0.00000000000E+00 -0.00000000000E+00 -0.71174805546E+02  0.71174805546E+02  0.00000000000E+00 0.  1.
         21    1    1    2  503  502 -0.30034255521E+02 -0.10328990557E+02  0.14326519737E+02  0.34842412637E+02  0.00000000000E+00 0. -1.
         21    1    1    2  504  505 -0.13365837187E+02  0.29921796425E+02  0.28394353764E+03  0.28582843118E+03  0.00000000000E+00 0.  1.
         21    1    1    2  505  501  0.53381073974E+02  0.11365178593E+03  0.56123260636E+03  0.57510721257E+03  0.00000000000E+00 0.  1.
          2    1    1    2  501    0 -0.99809812660E+01 -0.13324459180E+03  0.31119726869E+02  0.13719394531E+03  0.00000000000E+00 0.  1.
<scales pt_clust_3="31.76074" pt_clust_4="32.81858" pt_clust_5="142.08875" pt_clust_6="14000.00000"></scales>
<clustering>
<clus scale="   31.761">  2  3  1 -1</clus>
<clus scale="   32.819">  1  4  2 -1</clus>
<clus scale="  142.089">  1  5  2 -1</clus>
<clus scale="   32.819">  1  3  2 -1</clus>
</clustering>
</event>
<event>
 6    0  0.1849053E+002  0.2164547E+03  0.7546771E-02  0.1136554E+00
          2   -1    0    0  505    0 -0.00000000000E+00  0.00000000000E+00  0.16634109127E+04  0.16634109127E+04  0.00000000000E+00 0. -1.
         21   -1    0    0  504  502  0.00000000000E+00 -0.00000000000E+00 -0.23960903086E+03  0.23960903086E+03  0.00000000000E+00 0.  1.
         21    1    1    2  503  501 -0.37278588870E+02  0.17301820999E+02 -0.73836386482E+01  0.41756009361E+02  0.00000000000E+00 0.  1.
         21    1    1    2  504  503 -0.15874249529E+03  0.51905475260E+02 -0.16932838127E+03  0.23783494040E+03  0.00000000000E+00 0.  1.
         21    1    1    2  505  502 -0.13206431640E+02 -0.56467929474E+02  0.24280878233E+03  0.24963802128E+03  0.00000000000E+00 0.  1.
          2    1    1    2  501    0  0.20922751580E+03 -0.12739366785E+02  0.13577051194E+04  0.13737909725E+04  0.00000000000E+00 0. -1.
<scales pt_clust_3="30.29649" pt_clust_4="30.29649" pt_clust_5="57.99170" pt_clust_6="207.65976"></scales>
<clustering>
<clus scale="   30.296">  3  4 -1 -1</clus>
<clus scale="   57.992">  1  5  2 -1</clus>
<clus scale="  207.660">  1  6  2 -1</clus>
<clus scale="  216.455">  2  3  1 -1</clus>
</clustering>
</event>
<event>
 6    0  0.1849053E+002  0.2433333E+03  0.7546771E-02  0.1117592E+00
          2   -1    0    0  503    0 -0.00000000000E+00  0.00000000000E+00  0.14102760360E+04  0.14102760360E+04  0.00000000000E+00 0.  1.
         21   -1    0    0  505  502  0.00000000000E+00 -0.00000000000E+00 -0.89584651540E+03  0.89584651540E+03  0.00000000000E+00 0.  1.
         21    1    1    2  503  502  0.11167316699E+03 -0.41823013609E+02  0.34071494279E+03  0.36098023898E+03  0.00000000000E+00 0. -1.
         21    1    1    2  504  501 -0.10470315241E+03  0.36447111109E+02 -0.32639930293E+03  0.34471386248E+03  0.00000000000E+00 0. -1.
         21    1    1    2  505  504 -0.87991168482E+02  0.97275306495E+02 -0.53868776027E+03  0.55442712240E+03  0.00000000000E+00 0.  1.
          2    1    1    2  501    0  0.81021153900E+02 -0.91899403995E+02  0.10388016410E+04  0.10460013275E+04  0.00000000000E+00 0.  1.
<scales pt_clust_3="119.24790" pt_clust_4="65.43673" pt_clust_5="65.43673" pt_clust_6="232.69078"></scales>
<clustering>
<clus scale="   65.437">  4  5 -1 -1</clus>
<clus scale="  119.248">  1  3  2 -1</clus>
<clus scale="  232.691">  1  6  2 -1</clus>
<clus scale="  243.333">  2  3  1 -1</clus>
</clustering>
</event>
<event>
 6    0  0.1849053E+002  0.9344371E+02  0.7546771E-02  0.1294720E+00
          2   -1    0    0  503    0 -0.00000000000E+00  0.00000000000E+00  0.11336147278E+04  0.11336147278E+04  0.00000000000E+00 0.  1.
         21   -1    0    0  505  502  0.00000000000E+00 -0.00000000000E+00 -0.16558476197E+03  0.16558476197E+03  0.00000000000E+00 0.  1.
         21    1    1    2  503  504  0.14583877630E+02  0.34120874173E+02  0.68339085991E+02  0.77763450381E+02  0.00000000000E+00 0.  1.
         21    1    1    2  504  502 -0.10702989215E+03  0.68407993085E+01 -0.10879997947E+03  0.15277313207E+03  0.00000000000E+00 0.  1.
         21    1    1    2  505  501  0.66170903480E+02  0.25634821957E+02  0.14917900726E+02  0.72513973317E+02  0.00000000000E+00 0.  1.
          2    1    1    2  501    0  0.26275111043E+02 -0.66596495439E+02  0.99357295855E+03  0.99614893396E+03  0.00000000000E+00 0.  1.
<scales pt_clust_3="37.10692" pt_clust_4="93.44371" pt_clust_5="14000.00000" pt_clust_6="52.84762"></scales>
<clustering>
<clus scale="   37.107">  1  3  2 -1</clus>
<clus scale="   52.848">  1  6  2 -1</clus>
<clus scale="   93.444">  2  4  1 -1</clus>
<clus scale="   93.444">  2  3  1 -1</clus>
</clustering>
</event>
<event>
 6    0  0.1849053E+002  0.3740056E+03  0.7546771E-02  0.1053172E+00
         21   -1    0    0  501  502  0.00000000000E+00  0.00000000000E+00  0.15114049285E+03  0.15114049285E+03  0.00000000000E+00 0. -1.
          2   -1    0    0  503    0 -0.00000000000E+00 -0.00000000000E+00 -0.23477219077E+04  0.23477219077E+04  0.00000000000E+00 0.  1.
         21    1    1    2  503  504  0.21888609801E+02 -0.44503103404E+02 -0.22046033869E+03  0.22596990594E+03  0.00000000000E+00 0.  1.
         21    1    1    2  504  505 -0.23831761487E+03 -0.22506071220E+03 -0.12596616101E+03  0.35116247444E+03  0.00000000000E+00 0. -1.
         21    1    1    2  505  502  0.53180237522E-02 -0.43759054923E+02 -0.13180698224E+02  0.45701047271E+02  0.00000000000E+00 0.  1.
          2    1    1    2  501    0  0.21642368705E+03  0.31332287053E+03 -0.18369742170E+04  0.18760289729E+04  0.00000000000E+00 0.  1.
<scales pt_clust_3="49.59473" pt_clust_4="34.81972" pt_clust_5="34.81972" pt_clust_6="361.66036"></scales>
<clustering>
<clus scale="   34.820">  4  5 -1 -1</clus>
<clus scale="   49.595">  2  3  1 -1</clus>
<clus scale="  361.660">  2  6  1 -1</clus>
<clus scale="  374.006">  1  3  2 -1</clus>
</clustering>
</event>
<event>
 6    0  0.1849053E+002  0.1732325E+03  0.7546771E-02  0.1174518E+00
         21   -1    0    0  505  502  0.00000000000E+00  0.00000000000E+00  0.98954002188E+03  0.98954002188E+03  0.00000000000E+00 0. -1.
          1   -1    0    0  503    0 -0.00000000000E+00 -0.00000000000E+00 -0.29257691830E+03  0.29257691830E+03  0.00000000000E+00 0.  1.
         21    1    1    2  503  504 -0.63463337439E+02 -0.42780598807E+01  0.26922662565E+03  0.27663852399E+03  0.00000000000E+00 0. -1.
         21    1    1    2  504  502 -0.47914949329E+02  0.10526650547E+01  0.58747222868E+03  0.58942393059E+03  0.00000000000E+00 0. -1.
         21    1    1    2  505  501 -0.93149121543E+02 -0.42152440562E+02  0.54961112921E+02  0.11607889999E+03  0.00000000000E+00 0. -1.
          1    1    1    2  501    0  0.20452740831E+03  0.45377835388E+02 -0.21469686367E+03  0.29997558562E+03  0.00000000000E+00 0.  1.
<scales pt_clust_3="96.13421" pt_clust_4="47.92651" pt_clust_5="14000.00000" pt_clust_6="173.23255"></scales>
<clustering>
<clus scale="   47.927">  1  4  2 -1</clus>
<clus scale="   96.134">  1  3  2 -1</clus>
<clus scale="  173.233">  2  6  1 -1</clus>
<clus scale="   47.927">  1  3  2 -1</clus>
</clustering>
</event>
<event>
 6    0  0.1849053E+002  0.8292267E+02  0.7546771E-02  0.1320956E+00
         -1   -1    0    0    0  501 -0.00000000000E+00  0.00000000000E+00  0.29278720616E+02  0.29278720616E+02  0.00000000000E+00 0.  1.
         21   -1    0    0  503  502  0.00000000000E+00 -0.00000000000E+00 -0.66474349159E+03  0.66474349159E+03  0.00000000000E+00 0. -1.
         21    1    1    2  503  504 -0.46128941562E+02  0.65997137664E+01 -0.94110573277E+02  0.10501540589E+03  0.00000000000E+00 0. -1.
         21    1    1    2  504  501  0.45744609307E+02  0.71997903584E+01 -0.94220161912E+02  0.10498497594E+03  0.00000000000E+00 0.  1.
         21    1    1    2  505  502  0.24313513854E+02  0.75456307693E+02 -0.29981661552E+03  0.31012062858E+03  0.00000000000E+00 0. -1.
         -1    1    1    2    0  505 -0.23929181599E+02 -0.89255811818E+02 -0.14731742026E+03  0.17390120180E+03  0.00000000000E+00 0.  1.
<scales pt_clust_3="36.63079" pt_clust_4="46.30773" pt_clust_5="14000.00000" pt_clust_6="82.92267"></scales>
<clustering>
<clus scale="   46.308">  1  4  2 -1</clus>
<clus scale="   36.631">  1  3  2 -1</clus>
<clus scale="   82.923">  1  6  2 -1</clus>
<clus scale="   82.923">  2  3  1 -1</clus>
</clustering>
</event>
<event>
 6    0  0.1849053E+002  0.4380224E+03  0.7546771E-02  0.1031355E+00
          2   -1    0    0  504    0 -0.00000000000E+00  0.00000000000E+00  0.52488560251E+03  0.52488560251E+03  0.00000000000E+00 0. -1.
         21   -1    0    0  505  502  0.00000000000E+00 -0.00000000000E+00 -0.38026098333E+03  0.38026098333E+03  0.00000000000E+00 0.  1.
         21    1    1    2  503  502  0.25001018572E+02 -0.26851831321E+02 -0.35492262022E+02  0.51046767168E+02  0.00000000000E+00 0.  1.
         21    1    1    2  504  503  0.35321066888E+03 -0.13166287059E+03 -0.88468902602E+01  0.37705590509E+03  0.00000000000E+00 0.  1.
         21    1    1    2  505  501 -0.12405054977E+03  0.74687512913E+02 -0.75814290911E+01  0.14499738463E+03  0.00000000000E+00 0.  1.
          2    1    1    2  501    0 -0.25416113768E+03  0.83827188998E+02  0.19654520056E+03  0.33204652894E+03  0.00000000000E+00 0. -1.
<scales pt_clust_3="35.75511" pt_clust_4="425.80035" pt_clust_5="113.22001" pt_clust_6="113.22001"></scales>
<clustering>
<clus scale="   35.755">  3  4 -1 -1</clus>
<clus scale="  113.220">  5  6 -1 -1</clus>
<clus scale="  425.800">  2  3  1 -1</clus>
<clus scale="  425.800">  2  3  1 -1</clus>
</clustering>
</event>
<event>
 6    0  0.1849053E+002  0.7469196E+02  0.7546771E-02  0.1344828E+00
         21   -1    0    0  503  502  0.00000000000E+00  0.00000000000E+00  0.13334611470E+03  0.13334611470E+03  0.00000000000E+00 0.  1.
          2   -1    0    0  504    0 -0.00000000000E+00 -0.00000000000E+00 -0.79727463637E+03  0.79727463637E+03  0.00000000000E+00 0.  1.
         21    1    1    2  503  501  0.41388587975E+02 -0.17976793001E+02 -0.14441324348E+03  0.15129892661E+03  0.00000000000E+00 0.  1.
         21    1    1    2  504  505 -0.11984231527E+03  0.71173896307E+02 -0.26019523408E+03  0.29517700433E+03  0.00000000000E+00 0.  1.
         21    1    1    2  505  502  0.44895149519E+02 -0.56700274814E+02  0.99907068391E+02  0.12333660417E+03  0.00000000000E+00 0.  1.
          2    1    1    2  501    0  0.33558577778E+02  0.35031715091E+01 -0.35922711249E+03  0.36080821596E+03  0.00000000000E+00 0.  1.
<scales pt_clust_3="55.34518" pt_clust_4="74.69196" pt_clust_5="14000.00000" pt_clust_6="33.74093"></scales>
<clustering>
<clus scale="   33.741">  2  6  1 -1</clus>
<clus scale="   55.345">  2  3  1 -1</clus>
<clus scale="   74.692">  2  4  1 -1</clus>
<clus scale="   74.692">  1  3  2 -1</clus>
</clustering>
</event>
<event>
 6    0  0.1849053E+002  0.1702425E+03  0.7546771E-02  0.1177595E+00
          1   -1    0    0  503    0 -0.00000000000E+00  0.00000000000E+00  0.45094026887E+04  0.45094026887E+04  0.00000000000E+00 0. -1.
         21   -1    0    0  505  502  0.00000000000E+00 -0.00000000000E+00 -0.86366643303E+02  0.86366643303E+02  0.00000000000E+00 0.  1.
         21    1    1    2  503  504 -0.44784586699E+02  0.13092613064E+02  0.22375931534E+03  0.22857232318E+03  0.00000000000E+00 0.  1.
         21    1    1    2  504  502  0.72858097378E+02  0.25634352385E+02  0.16240520262E+03  0.17983568115E+03  0.00000000000E+00 0.  1.
         21    1    1    2  505  501  0.23142980714E+02 -0.16996449805E+03  0.25384053671E+02  0.17340091791E+03  0.00000000000E+00 0.  1.
          1    1    1    2  501    0 -0.51216491393E+02  0.13123753260E+03  0.40114874738E+04  0.40139604098E+04  0.00000000000E+00 0. -1.
<scales pt_clust_3="46.65914" pt_clust_4="75.72978" pt_clust_5="14000.00000" pt_clust_6="170.24249"></scales>
<clustering>
<clus scale="   46.659">  1  3  2 -1</clus>
<clus scale="   75.730">  2  4  1 -1</clus>
<clus scale="  170.242">  1  6  2 -1</clus>
<clus scale="   75.730">  2  3  1 -1</clus>
</clustering>
</event>
<event>
 6    0  0.1849053E+002  0.1325624E+03  0.7546771E-02  0.1223702E+00
          2   -1    0    0  504    0 -0.00000000000E+00  0.00000000000E+00  0.52989037000E+03  0.52989037000E+03  0.00000000000E+00 0. -1.
         21   -1    0    0  501  502  0.00000000000E+00 -0.00000000000E+00 -0.80859250293E+02  0.80859250293E+02  0.00000000000E+00 0. -1.
         21    1    1    2  503  505  0.19251897672E+02 -0.45283895992E+02  0.50314324579E+02  0.70376118520E+02  0.00000000000E+00 0.  1.
         21    1    1    2  504  503  0.10300527088E+03  0.65434932740E+02  0.15588735388E+03  0.19797142054E+03  0.00000000000E+00 0.  1.
         21    1    1    2  505  502 -0.12247239581E+02 -0.96466380516E+02  0.54937118761E+02  0.11168636651E+03  0.00000000000E+00 0. -1.
          2    1    1    2  501    0 -0.11000992897E+03  0.76315343768E+02  0.18789232249E+03  0.23071571471E+03  0.00000000000E+00 0. -1.
<scales pt_clust_3="31.22417" pt_clust_4="122.03203" pt_clust_5="31.22417" pt_clust_6="125.08444"></scales>
<clustering>
<clus scale="   31.224">  3  5 -1 -1</clus>
<clus scale="  122.032">  1  4  2 -1</clus>
<clus scale="  125.084">  1  6  2 -1</clus>
<clus scale="  132.562">  2  3  1 -1</clus>
</clustering>
</event>
<event>
 6    0  0.1849053E+002  0.1761698E+03  0.7546771E-02  0.1171562E+00
         21   -1    0    0  504  502  0.00000000000E+00  0.00000000000E+00  0.28084406021E+03  0.28084406021E+03  0.00000000000E+00 0.  1.
         -1   -1    0    0    0  501 -0.00000000000E+00 -0.00000000000E+00 -0.70894451487E+03  0.70894451487E+03  0.00000000000E+00 0.  1.
         21    1    1    2  503  505  0.17868777229E+03 -0.13082868699E+03  0.88592893604E+02  0.23852498003E+03  0.00000000000E+00 0.  1.
         21    1    1    2  504  503 -0.13707670028E+03 -0.48614045106E+02  0.46307258873E+02  0.15263587181E+03  0.00000000000E+00 0. -1.
         21    1    1    2  505  501  0.10025564153E+02  0.33227732786E+02 -0.21308007188E+03  0.21588819142E+03  0.00000000000E+00 0.  1.
         -1    1    1    2    0  502 -0.51636636163E+02  0.14621499931E+03 -0.34992053526E+03  0.38273953181E+03  0.00000000000E+00 0.  1.
<scales pt_clust_3="176.16982" pt_clust_4="143.26336" pt_clust_5="34.70726" pt_clust_6="14000.00000"></scales>
<clustering>
<clus scale="   34.707">  2  5  1 -1</clus>
<clus scale="  143.263">  1  4  2 -1</clus>
<clus scale="  176.170">  1  3  2 -1</clus>
<clus scale="  143.263">  1  3  2 -1</clus>
</clustering>
</event>
<event>
 6    0  0.1849053E+002  0.9663922E+02  0.7546771E-02  0.1287526E+00
         21   -1    0    0  504  502  0.00000000000E+00  0.00000000000E+00  0.29282614417E+03  0.29282614417E+03  0.00000000000E+00 0. -1.
         -2   -1    0    0    0  501 -0.00000000000E+00 -0.00000000000E+00 -0.63895589050E+03  0.63895589050E+03  0.00000000000E+00 0.  1.
         21    1    1    2  503  502  0.11406879075E+03 -0.16424396135E+02  0.20934395651E+03  0.23896933263E+03  0.00000000000E+00 0. -1.
         21    1    1    2  504  505 -0.61802912448E+02 -0.57960795793E+02  0.34261900485E+02  0.91394374339E+02  0.00000000000E+00 0. -1.
         21    1    1    2  505  501 -0.26219540041E+02  0.23383985288E+02 -0.43515383405E+03  0.43656973594E+03  0.00000000000E+00 0.  1.
         -2    1    1    2    0  503 -0.26046338257E+02  0.51001206640E+02 -0.15458176927E+03  0.16484859176E+03  0.00000000000E+00 0.  1.
<scales pt_clust_3="96.63922" pt_clust_4="14000.00000" pt_clust_5="35.13225" pt_clust_6="83.62259"></scales>
<clustering>
<clus scale="   35.132">  2  5  1 -1</clus>
<clus scale="   83.623">  2  6  1 -1</clus>
<clus scale="   96.639">  1  3  2 -1</clus>
<clus scale="   96.639">  1  3  2 -1</clus>
</clustering>
</event>
<event>
 6    0  0.1849053E+002  0.2580658E+03  0.7546771E-02  0.1108311E+00
         21   -1    0    0  505  502  0.00000000000E+00  0.00000000000E+00  0.54221310090E+03  0.54221310090E+03  0.00000000000E+00 0. -1.
          2   -1    0    0  503    0 -0.00000000000E+00 -0.00000000000E+00 -0.27259080496E+04  0.27259080496E+04  0.00000000000E+00 0.  1.
         21    1    1    2  503  504  0.77326127339E+02  0.63505016572E+02 -0.54828634762E+03  0.55734202792E+03  0.00000000000E+00 0.  1.
         21    1    1    2  504  502 -0.23024717216E+02 -0.20711019230E+02  0.18554031864E+02  0.36101745371E+02  0.00000000000E+00 0. -1.
         21    1    1    2  505  501 -0.10387169351E+03 -0.20658887032E+03  0.48056430770E+03  0.53330136311E+03  0.00000000000E+00 0. -1.
          2    1    1    2  501    0  0.49570283389E+02  0.16379487298E+03 -0.21345269406E+04  0.21413760141E+04  0.00000000000E+00 0.  1.
<scales pt_clust_3="99.78900" pt_clust_4="30.96908" pt_clust_5="258.06584" pt_clust_6="14000.00000"></scales>
<clustering>
<clus scale="   30.969">  1  4  2 -1</clus>
<clus scale="   99.789">  2  3  1 -1</clus>
<clus scale="  258.066">  1  5  2 -1</clus>
<clus scale="   30.969">  1  3  2 -1</clus>
</clustering>
</event>
<event>
 6    0  0.1849053E+002  0.2026980E+03  0.7546771E-02  0.1147483E+00
          4   -1    0    0  505    0 -0.00000000000E+00  0.00000000000E+00  0.44721659187E+03  0.44721659187E+03  0.00000000000E+00 0.  1.
         21   -1    0    0  503  502  0.00000000000E+00 -0.00000000000E+00 -0.63417789405E+03  0.63417789405E+03  0.00000000000E+00 0.  1.
         21    1    1    2  503  501 -0.18965376178E+02  0.11192797377E+03 -0.50281807476E+03  0.51547412458E+03  0.00000000000E+00 0.  1.
         21    1    1    2  504  502 -0.43994546189E+02  0.91814323568E+02 -0.62068946392E+02  0.11923902135E+03  0.00000000000E+00 0. -1.
         21    1    1    2  505  504  0.36698161683E+02 -0.26195461507E+02  0.27085428986E+02  0.52598267441E+02  0.00000000000E+00 0.  1.
          4    1    1    2  501    0  0.26261760685E+02 -0.17754683584E+03  0.35084028999E+03  0.39408307255E+03  0.00000000000E+00 0.  1.
<scales pt_clust_3="202.69796" pt_clust_4="99.05197" pt_clust_5="45.08833" pt_clust_6="14000.00000"></scales>
<clustering>
<clus scale="   45.088">  1  5  2 -1</clus>
<clus scale="   99.052">  2  4  1 -1</clus>
<clus scale="  202.698">  2  3  1 -1</clus>
<clus scale="   99.052">  2  3  1 -1</clus>
</clustering>
</event>
<event>
 6    0  0.1849053E+002  0.1422970E+03  0.7546771E-02  0.1210271E+00
          2   -1    0    0  502    0 -0.00000000000E+00  0.00000000000E+00  0.15707955944E+04  0.15707955944E+04  0.00000000000E+00 0.  1.
         21   -1    0    0  505  502  0.00000000000E+00 -0.00000000000E+00 -0.33682847743E+02  0.33682847743E+02  0.00000000000E+00 0.  1.
         21    1    1    2  503  504  0.17345693164E+02 -0.38873761456E+02  0.78275018409E+02  0.89101183539E+02  0.00000000000E+00 0.  1.
         21    1    1    2  504  501  0.30475615714E+01  0.56279565994E+02  0.42872868494E+03  0.43241757882E+03  0.00000000000E+00 0.  1.
         21    1    1    2  505  503 -0.41750571954E+01 -0.90910183160E+02  0.57948479613E+02  0.10788938221E+03  0.00000000000E+00 0.  1.
          2    1    1    2  501    0 -0.16218197540E+02  0.73504378621E+02  0.97216056370E+03  0.97507029758E+03  0.00000000000E+00 0.  1.
<scales pt_clust_3="38.87608" pt_clust_4="33.67073" pt_clust_5="38.87608" pt_clust_6="136.13021"></scales>
<clustering>
<clus scale="   33.671">  4  6 -1 -1</clus>
<clus scale="   38.876">  3  5 -1 -1</clus>
<clus scale="  136.130">  1  4  2 -1</clus>
<clus scale="  142.297">  2  3  1 -1</clus>
</clustering>
</event>
<event>
 6    0  0.1849053E+002  0.1196869E+03  0.7546771E-02  0.1243615E+00
         21   -1    0    0  505  502  0.00000000000E+00  0.00000000000E+00  0.42633809311E+03  0.42633809311E+03  0.00000000000E+00 0. -1.
          2   -1    0    0  504    0 -0.00000000000E+00 -0.00000000000E+00 -0.29004045180E+04  0.29004045180E+04  0.00000000000E+00 0. -1.
         21    1    1    2  503  501  0.63327932297E+02  0.53022770028E+02  0.11993806733E+03  0.14562616916E+03  0.00000000000E+00 0. -1.
         21    1    1    2  504  502  0.12885465485E+02 -0.36028776976E+02 -0.22866130221E+03  0.23184067615E+03  0.00000000000E+00 0. -1.
         21    1    1    2  505  503  0.34514950990E+02  0.17499426060E+02  0.28941239496E+03  0.29198809241E+03  0.00000000000E+00 0. -1.
          2    1    1    2  501    0 -0.11072834877E+03 -0.34493419112E+02 -0.26547555850E+04  0.26572876734E+04  0.00000000000E+00 0. -1.
<scales pt_clust_3="14000.00000" pt_clust_4="38.26366" pt_clust_5="38.69539" pt_clust_6="119.68685"></scales>
<clustering>
<clus scale="   38.264">  2  4  1 -1</clus>
<clus scale="   38.695">  1  5  2 -1</clus>
<clus scale="  119.687">  2  6  1 -1</clus>
<clus scale="   38.695">  1  3  2 -1</clus>
</clustering>
</event>
<event>
 6    0  0.1849053E+002  0.1512327E+03  0.7546771E-02  0.1198966E+00
          2   -1    0    0  502    0 -0.00000000000E+00  0.00000000000E+00  0.10709183982E+04  0.10709183982E+04  0.00000000000E+00 0. -1.
         21   -1    0    0  504  502  0.00000000000E+00 -0.00000000000E+00 -0.87632502463E+02  0.87632502463E+02  0.00000000000E+00 0. -1.
         21    1    1    2  503  501 -0.45771326056E+01 -0.82460387339E+02  0.45376888895E+03  0.46122323251E+03  0.00000000000E+00 0. -1.
         21    1    1    2  504  505 -0.14831481662E+02  0.85479527660E+02 -0.34204888758E+02  0.93256082440E+02  0.00000000000E+00 0. -1.
         21    1    1    2  505  503 -0.17102939330E+02  0.51369252729E+02  0.22060549074E+02  0.58463479926E+02  0.00000000000E+00 0.  1.
          2    1    1    2  501    0  0.36511553598E+02 -0.54388393049E+02  0.54166134648E+03  0.54560810580E+03  0.00000000000E+00 0. -1.
<scales pt_clust_3="49.43164" pt_clust_4="44.15355" pt_clust_5="44.15355" pt_clust_6="151.08935"></scales>
<clustering>
<clus scale="   44.154">  4  5 -1 -1</clus>
<clus scale="   49.432">  3  6 -1 -1</clus>
<clus scale="  151.089">  1  3  2 -1</clus>
<clus scale="  151.233">  2  3  1 -1</clus>
</clustering>
</event>
<event>
 6    0  0.1849053E+002  0.1169258E+03  0.7546771E-02  0.1248256E+00
         21   -1    0    0  503  502  0.00000000000E+00  0.00000000000E+00  0.33374943102E+02  0.33374943102E+02  0.00000000000E+00 0. -1.
          2   -1    0    0  505    0 -0.00000000000E+00 -0.00000000000E+00 -0.24488892148E+04  0.24488892148E+04  0.00000000000E+00 0. -1.
         21    1    1    2  503  504 -0.35401662893E+02 -0.43119625429E+02 -0.15014061070E+03  0.16017110480E+03  0.00000000000E+00 0.  1.
         21    1    1    2  504  501  0.13218142230E+03 -0.43383484189E+00 -0.11887614302E+04  0.11960877286E+04  0.00000000000E+00 0.  1.
         21    1    1    2  505  502 -0.66677656436E+02 -0.39310383473E+02 -0.42814263691E+02  0.88454944983E+02  0.00000000000E+00 0. -1.
          2    1    1    2  501    0 -0.30102102969E+02  0.82863843744E+02 -0.10337979671E+04  0.10375503795E+04  0.00000000000E+00 0. -1.
<scales pt_clust_3="55.79050" pt_clust_4="14000.00000" pt_clust_5="116.92576" pt_clust_6="86.33893"></scales>
<clustering>
<clus scale="   55.790">  1  3  2 -1</clus>
<clus scale="   86.339">  2  6  1 -1</clus>
<clus scale="  116.926">  1  5  2 -1</clus>
<clus scale="   55.790">  1  3  2 -1</clus>
</clustering>
</event>
<event>
 6    0  0.1849053E+002  0.1697129E+03  0.7546771E-02  0.1178148E+00
         21   -1    0    0  505  502  0.00000000000E+00  0.00000000000E+00  0.15692565144E+04  0.15692565144E+04  0.00000000000E+00 0. -1.
          2   -1    0    0  503    0 -0.00000000000E+00 -0.00000000000E+00 -0.11467167481E+04  0.11467167481E+04  0.00000000000E+00 0. -1.
         21    1    1    2  503  504  0.82296033744E+02 -0.79860639009E+02 -0.58899330087E+03  0.60005288709E+03  0.00000000000E+00 0. -1.
         21    1    1    2  504  502  0.72467876135E+01  0.35924468254E+02  0.40758333605E+03  0.40922763735E+03  0.00000000000E+00 0.  1.
         21    1    1    2  505  501  0.13969272270E+03  0.49367320156E+02  0.11264187823E+04  0.11361207956E+04  0.00000000000E+00 0. -1.
          2    1    1    2  501    0 -0.22923554406E+03 -0.54311494009E+01 -0.52246905120E+03  0.57057194245E+03  0.00000000000E+00 0. -1.
<scales pt_clust_3="114.58071" pt_clust_4="36.64810" pt_clust_5="169.71294" pt_clust_6="14000.00000"></scales>
<clustering>
<clus scale="   36.648">  1  4  2 -1</clus>
<clus scale="  114.581">  2  3  1 -1</clus>
<clus scale="  169.713">  1  5  2 -1</clus>
<clus scale="   36.648">  1  3  2 -1</clus>
</clustering>
</event>
<event>
 6    0  0.1849053E+002  0.1183317E+03  0.7546771E-02  0.1245875E+00
          1   -1    0    0  505    0 -0.00000000000E+00  0.00000000000E+00  0.10447360625E+04  0.10447360625E+04  0.00000000000E+00 0.  1.
         21   -1    0    0  504  502  0.00000000000E+00 -0.00000000000E+00 -0.14142719755E+03  0.14142719755E+03  0.00000000000E+00 0.  1.
         21    1    1    2  503  502 -0.10278883562E+03  0.48303205029E+02 -0.50590359545E+02  0.12433072357E+03  0.00000000000E+00 0.  1.
         21    1    1    2  504  501  0.10841872277E+03 -0.74362815635E+02  0.46024146939E+02  0.13929346682E+03  0.00000000000E+00 0.  1.
         21    1    1    2  505  503 -0.19863077655E+02  0.91446113595E+02  0.61768716722E+03  0.62473544008E+03  0.00000000000E+00 0.  1.
          1    1    1    2  501    0  0.14233190502E+02 -0.65386502989E+02  0.29018791030E+03  0.29780362955E+03  0.00000000000E+00 0.  1.
<scales pt_clust_3="14000.00000" pt_clust_4="118.33170" pt_clust_5="38.20645" pt_clust_6="66.91770"></scales>
<clustering>
<clus scale="   66.918">  1  6  2 -1</clus>
<clus scale="   38.206">  1  5  2 -1</clus>
<clus scale="  118.332">  1  4  2 -1</clus>
<clus scale="  118.332">  2  3  1 -1</clus>
</clustering>
</event>
<event>
 6    0  0.1849053E+002  0.2969948E+03  0.7546771E-02  0.1086753E+00
         21   -1    0    0  504  502  0.00000000000E+00  0.00000000000E+00  0.11643003130E+03  0.11643003130E+03  0.00000000000E+00 0. -1.
         -1   -1    0    0    0  501 -0.00000000000E+00 -0.00000000000E+00 -0.10612872888E+04  0.10612872888E+04  0.00000000000E+00 0. -1.
         21    1    1    2  503  501  0.36096368996E+02  0.78188689261E+01 -0.21035220979E+03  0.21356997619E+03  0.00000000000E+00 0. -1.
         21    1    1    2  504  505  0.20457354320E+03 -0.40390712893E+02 -0.16515239510E+03  0.26600198848E+03  0.00000000000E+00 0. -1.
         21    1    1    2  505  503  0.34932957188E+02 -0.66299851325E+02 -0.23188307288E+02  0.78445391060E+02  0.00000000000E+00 0. -1.
         -1    1    1    2    0  502 -0.27560286938E+03  0.98871695292E+02 -0.54616434533E+03  0.61969996438E+03  0.00000000000E+00 0. -1.
<scales pt_clust_3="36.93349" pt_clust_4="70.84857" pt_clust_5="70.84857" pt_clust_6="271.62548"></scales>
<clustering>
<clus scale="   36.933">  2  3  1 -1</clus>
<clus scale="   70.849">  4  5 -1 -1</clus>
<clus scale="  271.625">  2  6  1 -1</clus>
<clus scale="  296.995">  1  3  2 -1</clus>
</clustering>
</event>
<event>
 6    0  0.1849053E+002  0.1528787E+03  0.7546771E-02  0.1196980E+00
          1   -1    0    0  504    0 -0.00000000000E+00  0.00000000000E+00  0.22304585289E+04  0.22304585289E+04  0.00000000000E+00 0. -1.
         21   -1    0    0  505  502  0.00000000000E+00 -0.00000000000E+00 -0.43357205662E+02  0.43357205662E+02  0.00000000000E+00 0.  1.
         21    1    1    2  503  501  0.11177082514E+01  0.65407894891E+02  0.73073805689E+03  0.73366037768E+03  0.00000000000E+00 0. -1.
         21    1    1    2  504  502  0.70728312915E+02 -0.13743341379E+03  0.17339429132E+03  0.23228434673E+03  0.00000000000E+00 0.  1.
         21    1    1    2  505  503 -0.39500293305E+02 -0.76707274890E+01  0.25878375505E+02  0.47841441765E+02  0.00000000000E+00 0.  1.
          1    1    1    2  501    0 -0.32345727862E+02  0.79696246390E+02  0.12570905995E+04  0.12600295684E+04  0.00000000000E+00 0. -1.
<scales pt_clust_3="31.52213" pt_clust_4="148.54453" pt_clust_5="40.23821" pt_clust_6="31.52213"></scales>
<clustering>
<clus scale="   31.522">  3  6 -1 -1</clus>
<clus scale="   40.238">  2  5  1 -1</clus>
<clus scale="  148.545">  2  4  1 -1</clus>
<clus scale="   40.238">  2  3  1 -1</clus>
</clustering>
</event>
<event>
 6    0  0.1849053E+002  0.1551735E+03  0.7546771E-02  0.1194256E+00
         21   -1    0    0  503  502  0.00000000000E+00  0.00000000000E+00  0.62832683288E+02  0.62832683288E+02  0.00000000000E+00 0. -1.
         -2   -1    0    0    0  501 -0.00000000000E+00 -0.00000000000E+00 -0.16915544536E+04  0.16915544536E+04  0.00000000000E+00 0. -1.
         21    1    1    2  503  505  0.15984722092E+03  0.63385031769E+02 -0.70060376992E+03  0.72139755940E+03  0.00000000000E+00 0. -1.
         21    1    1    2  504  502 -0.11620827106E+03 -0.63211510511E+02 -0.43078827514E+02  0.13912527701E+03  0.00000000000E+00 0. -1.
         21    1    1    2  505  501  0.12468031480E+02  0.33561489190E+02 -0.10214944166E+03  0.10824201494E+03  0.00000000000E+00 0.  1.
         -2    1    1    2    0  504 -0.56106981344E+02 -0.33735010449E+02 -0.78288973125E+03  0.78562228557E+03  0.00000000000E+00 0. -1.
<scales pt_clust_3="31.60645" pt_clust_4="138.85560" pt_clust_5="31.60645" pt_clust_6="65.46789"></scales>
<clustering>
<clus scale="   31.606">  3  5 -1 -1</clus>
<clus scale="   65.468">  2  6  1 -1</clus>
<clus scale="  138.856">  1  4  2 -1</clus>
<clus scale="  138.856">  1  3  2 -1</clus>
</clustering>
</event>
<event>
 6    0  0.1849053E+002  0.1901332E+03  0.7546771E-02  0.1158341E+00
         21   -1    0    0  501  502  0.00000000000E+00  0.00000000000E+00  0.11542089972E+04  0.11542089972E+04  0.00000000000E+00 0.  1.
         -2   -1    0    0    0  501 -0.00000000000E+00 -0.00000000000E+00 -0.62366276178E+02  0.62366276178E+02  0.00000000000E+00 0.  1.
         21    1    1    2  503  502 -0.86104294621E+02  0.10708590640E+02  0.61177493986E+03  0.61789740290E+03  0.00000000000E+00 0.  1.
         21    1    1    2  504  505  0.67833245434E+02  0.26354180833E+02  0.56291194581E+02  0.92003209840E+02  0.00000000000E+00 0.  1.
         21    1    1    2  505  503 -0.92738919894E+02 -0.25586508607E+01  0.36462412144E+03  0.37624168282E+03  0.00000000000E+00 0.  1.
         -2    1    1    2    0  504  0.11100996908E+03 -0.34504120613E+02  0.59152465170E+02  0.13043297785E+03  0.00000000000E+00 0.  1.
<scales pt_clust_3="52.13374" pt_clust_4="50.65774" pt_clust_5="186.96897" pt_clust_6="50.65774"></scales>
<clustering>
<clus scale="   50.658">  4  6 -1 -1</clus>
<clus scale="   52.134">  3  5 -1 -1</clus>
<clus scale="  186.969">  1  3  2 -1</clus>
<clus scale="  186.969">  1  3  2 -1</clus>
</clustering>
</event>
<event>
 6    0  0.1849053E+002  0.1336432E+03  0.7546771E-02  0.1222148E+00
         21   -1    0    0  505  502  0.00000000000E+00  0.00000000000E+00  0.58423734223E+03  0.58423734223E+03  0.00000000000E+00 0. -1.
          2   -1    0    0  503    0 -0.00000000000E+00 -0.00000000000E+00 -0.19235983625E+04  0.19235983625E+04  0.00000000000E+00 0. -1.
         21    1    1    2  503  504 -0.35474029484E+02 -0.11238417581E+02 -0.85254789314E+02  0.93021975352E+02  0.00000000000E+00 0.  1.
         21    1    1    2  504  502  0.35898590867E+02  0.87397750019E+01  0.43473031516E+03  0.43629753542E+03  0.00000000000E+00 0. -1.
         21    1    1    2  505  501  0.98684311285E+02 -0.24489057796E+02  0.12536187683E+03  0.16141222818E+03  0.00000000000E+00 0. -1.
          2    1    1    2  501    0 -0.99108872669E+02  0.26987700375E+02 -0.18141984230E+04  0.18171039658E+04  0.00000000000E+00 0. -1.
<scales pt_clust_3="36.24917" pt_clust_4="36.94716" pt_clust_5="133.64321" pt_clust_6="14000.00000"></scales>
<clustering>
<clus scale="   36.947">  1  4  2 -1</clus>
<clus scale="   36.249">  2  3  1 -1</clus>
<clus scale="  133.643">  1  5  2 -1</clus>
<clus scale="   36.947">  1  3  2 -1</clus>
</clustering>
</event>
<event>
 6    0  0.1849053E+002  0.9219822E+02  0.7546771E-02  0.1297614E+00
          2   -1    0    0  503    0 -0.00000000000E+00  0.00000000000E+00  0.29716214574E+03  0.29716214574E+03  0.00000000000E+00 0.  1.
         21   -1    0    0  504  502  0.00000000000E+00 -0.00000000000E+00 -0.74035579937E+03  0.74035579937E+03  0.00000000000E+00 0. -1.
         21    1    1    2  503  505 -0.67881601430E+02  0.62253621766E+02  0.26406828442E+03  0.27967031318E+03  0.00000000000E+00 0.  1.
         21    1    1    2  504  501 -0.32563177839E+02  0.18103188729E+02 -0.42193006185E+02  0.56287971753E+02  0.00000000000E+00 0. -1.
         21    1    1    2  505  502  0.10466493848E+03 -0.33369978941E+02 -0.63754728864E+03  0.64694269460E+03  0.00000000000E+00 0. -1.
          2    1    1    2  501    0 -0.42201592088E+01 -0.46986831555E+02 -0.27521643233E+02  0.54616965583E+02  0.00000000000E+00 0.  1.
<scales pt_clust_3="92.19822" pt_clust_4="37.25703" pt_clust_5="14000.00000" pt_clust_6="46.32183"></scales>
<clustering>
<clus scale="   37.257">  2  4  1 -1</clus>
<clus scale="   46.322">  2  6  1 -1</clus>
<clus scale="   92.198">  1  3  2 -1</clus>
<clus scale="   37.257">  2  3  1 -1</clus>
</clustering>
</event>
<event>
 6    0  0.1849053E+002  0.1191836E+03  0.7546771E-02  0.1244450E+00
          2   -1    0    0  505    0 -0.00000000000E+00  0.00000000000E+00  0.12999953253E+04  0.12999953253E+04  0.00000000000E+00 0.  1.
         21   -1    0    0  503  502  0.00000000000E+00 -0.00000000000E+00 -0.26508843758E+03  0.26508843758E+03  0.00000000000E+00 0. -1.
         21    1    1    2  503  501  0.24019441964E+02  0.38902338661E+02 -0.71418963931E+01  0.46274531112E+02  0.00000000000E+00 0.  1.
         21    1    1    2  504  502 -0.18702476648E+02  0.82862683641E+02 -0.22232110102E+03  0.23799722463E+03  0.00000000000E+00 0. -1.
         21    1    1    2  505  504  0.51514970394E+02 -0.43606831803E+02  0.18157231436E+03  0.19371074646E+03  0.00000000000E+00 0.  1.
          2    1    1    2  501    0 -0.56831935710E+02 -0.78158190499E+02  0.10827975708E+04  0.10871012607E+04  0.00000000000E+00 0.  1.
<scales pt_clust_3="45.72008" pt_clust_4="119.18362" pt_clust_5="67.32999" pt_clust_6="14000.00000"></scales>
<clustering>
<clus scale="   45.720">  2  3  1 -1</clus>
<clus scale="   67.330">  1  5  2 -1</clus>
<clus scale="  119.184">  2  4  1 -1</clus>
<clus scale="   45.720">  2  3  1 -1</clus>
</clustering>
</event>
<event>
 6    0  0.1849053E+002  0.1634324E+03  0.7546771E-02  0.1184875E+00
         21   -1    0    0  504  502  0.00000000000E+00  0.00000000000E+00  0.99800616376E+03  0.99800616376E+03  0.00000000000E+00 0. -1.
         -4   -1    0    0    0  501 -0.00000000000E+00 -0.00000000000E+00 -0.67186842801E+02  0.67186842801E+02  0.00000000000E+00 0. -1.
         21    1    1    2  503  502  0.81577539224E+02  0.36650456956E+02  0.62930531547E+03  0.63562829624E+03  0.00000000000E+00 0. -1.
         21    1    1    2  504  501 -0.35159828267E+02 -0.20174278961E+02  0.52325726387E+02  0.66190608830E+02  0.00000000000E+00 0. -1.
         21    1    1    2  505  503  0.68059311063E+02  0.11458648616E+02  0.23471583838E+03  0.24465260113E+03  0.00000000000E+00 0. -1.
         -4    1    1    2    0  505 -0.11447702202E+03 -0.27934826611E+02  0.14472440717E+02  0.11872150036E+03  0.00000000000E+00 0. -1.
<scales pt_clust_3="52.52752" pt_clust_4="40.53659" pt_clust_5="52.52752" pt_clust_6="151.83522"></scales>
<clustering>
<clus scale="   40.537">  2  4  1 -1</clus>
<clus scale="   52.528">  3  5 -1 -1</clus>
<clus scale="  151.835">  2  6  1 -1</clus>
<clus scale="  163.432">  1  3  2 -1</clus>
</clustering>
</event>
<event>
 6    0  0.1849053E+002  0.1332519E+03  0.7546771E-02  0.1222709E+00
         -2   -1    0    0    0  501 -0.00000000000E+00  0.00000000000E+00  0.24052557447E+03  0.24052557447E+03  0.00000000000E+00 0.  1.
         21   -1    0    0  505  502  0.00000000000E+00 -0.00000000000E+00 -0.70026934253E+03  0.70026934253E+03  0.00000000000E+00 0.  1.
         21    1    1    2  503  504 -0.42335073941E+02 -0.69667333351E+02  0.17737936166E+02  0.83429192740E+02  0.00000000000E+00 0.  1.
         21    1    1    2  504  501  0.94325083887E+01 -0.31302086045E+02  0.49642275475E+02  0.59440292055E+02  0.00000000000E+00 0.  1.
         21    1    1    2  505  503  0.51867099848E+02  0.13125113026E+03 -0.65248446920E+03  0.66757249628E+03  0.00000000000E+00 0.  1.
         -2    1    1    2    0  502 -0.18964534296E+02 -0.30281710861E+02  0.12536048950E+03  0.13035293592E+03  0.00000000000E+00 0.  1.
<scales pt_clust_3="133.25190" pt_clust_4="32.69240" pt_clust_5="14000.00000" pt_clust_6="53.28281"></scales>
<clustering>
<clus scale="   32.692">  1  4  2 -1</clus>
<clus scale="   53.283">  1  6  2 -1</clus>
<clus scale="  133.252">  1  3  2 -1</clus>
<clus scale="  133.252">  2  3  1 -1</clus>
</clustering>
</event>
<event>
 6    0  0.1849053E+002  0.1662321E+03  0.7546771E-02  0.1181835E+00
         21   -1    0    0  501  502  0.00000000000E+00  0.00000000000E+00  0.67871800288E+03  0.67871800288E+03  0.00000000000E+00 0. -1.
          4   -1    0    0  504    0 -0.00000000000E+00 -0.00000000000E+00 -0.13764815638E+03  0.13764815638E+03  0.00000000000E+00 0.  1.
         21    1    1    2  503  505  0.50649895203E+02  0.46330020550E+02  0.17033689684E+03  0.18364787261E+03  0.00000000000E+00 0. -1.
         21    1    1    2  504  503  0.97467010965E+01  0.28911103432E+02  0.70897571091E+01  0.31322751153E+02  0.00000000000E+00 0. -1.
         21    1    1    2  505  502  0.56637081047E+02  0.68188178452E+02  0.40258271823E+03  0.41222594733E+03  0.00000000000E+00 0. -1.
          4    1    1    2  501    0 -0.11703367735E+03 -0.14342930243E+03 -0.38939525685E+02  0.18916958818E+03  0.00000000000E+00 0.  1.
<scales pt_clust_3="41.48094" pt_clust_4="30.50984" pt_clust_5="41.48094" pt_clust_6="159.46571"></scales>
<clustering>
<clus scale="   30.510">  2  4  1 -1</clus>
<clus scale="   41.481">  3  5 -1 -1</clus>
<clus scale="  159.466">  2  6  1 -1</clus>
<clus scale="  166.232">  1  3  2 -1</clus>
</clustering>
</event>
<event>
 6    0  0.1849053E+002  0.8409901E+02  0.7546771E-02  0.1317806E+00
         21   -1    0    0  505  502  0.00000000000E+00  0.00000000000E+00  0.74998948092E+03  0.74998948092E+03  0.00000000000E+00 0. -1.
          1   -1    0    0  504    0 -0.00000000000E+00 -0.00000000000E+00 -0.11604202593E+04  0.11604202593E+04  0.00000000000E+00 0.  1.
         21    1    1    2  503  501  0.34992302769E+02  0.12381724669E+03 -0.22572593872E+03  0.25982180671E+03  0.00000000000E+00 0.  1.
         21    1    1    2  504  502 -0.10807684506E+02  0.38605497302E+02 -0.15236651579E+02  0.42887597480E+02  0.00000000000E+00 0.  1.
         21    1    1    2  505  503 -0.27343908532E+02 -0.79058101196E+02  0.71471314820E+03  0.71959207674E+03  0.00000000000E+00 0. -1.
          1    1    1    2  501    0  0.31592902687E+01 -0.83364642798E+02 -0.88418133633E+03  0.88810825933E+03  0.00000000000E+00 0.  1.
<scales pt_clust_3="14000.00000" pt_clust_4="40.08978" pt_clust_5="84.09901" pt_clust_6="53.39090"></scales>
<clustering>
<clus scale="   40.090">  2  4  1 -1</clus>
<clus scale="   53.391">  2  6  1 -1</clus>
<clus scale="   84.099">  1  5  2 -1</clus>
<clus scale="   84.099">  1  3  2 -1</clus>
</clustering>
</event>
<event>
 6    0  0.1849053E+002  0.1474662E+03  0.7546771E-02  0.1203622E+00
         21   -1    0    0  504  502  0.00000000000E+00  0.00000000000E+00  0.36739927176E+03  0.36739927176E+03  0.00000000000E+00 0.  1.
          2   -1    0    0  503    0 -0.00000000000E+00 -0.00000000000E+00 -0.24950713163E+03  0.24950713163E+03  0.00000000000E+00 0.  1.
         21    1    1    2  503  502  0.54842052029E+02  0.95649493080E+01 -0.31288329669E+01  0.55757766470E+02  0.00000000000E+00 0.  1.
         21    1    1    2  504  505 -0.49743794069E+02  0.44377858764E+02  0.11807513726E+03  0.13559342697E+03  0.00000000000E+00 0.  1.
         21    1    1    2  505  501 -0.82756678739E+02 -0.82091346578E+01  0.19577401529E+03  0.21270524872E+03  0.00000000000E+00 0.  1.
          2    1    1    2  501    0  0.77658420779E+02 -0.45733673414E+02 -0.19282817946E+03  0.21284996123E+03  0.00000000000E+00 0.  1.
<scales pt_clust_3="55.66991" pt_clust_4="56.39740" pt_clust_5="56.39740" pt_clust_6="133.41723"></scales>
<clustering>
<clus scale="   55.670">  2  3  1 -1</clus>
<clus scale="   56.397">  4  5 -1 -1</clus>
<clus scale="  133.417">  2  6  1 -1</clus>
<clus scale="  147.466">  1  3  2 -1</clus>
</clustering>
</event>
<event>
 6    0  0.1849053E+002  0.2449880E+03  0.7546771E-02  0.1116514E+00
          2   -1    0    0  504    0 -0.00000000000E+00  0.00000000000E+00  0.22268526599E+04  0.22268526599E+04  0.00000000000E+00 0. -1.
         21   -1    0    0  505  502  0.00000000000E+00 -0.00000000000E+00 -0.39691878530E+02  0.39691878530E+02  0.00000000000E+00 0. -1.
         21    1    1    2  503  502  0.53347972296E+02 -0.17663630176E+03  0.38873417831E+03  0.43030297540E+03  0.00000000000E+00 0. -1.
         21    1    1    2  504  503 -0.13142930605E+02 -0.50577910449E+02  0.50708688096E+02  0.72816431516E+02  0.00000000000E+00 0. -1.
         21    1    1    2  505  501 -0.41758498573E+01  0.93861769055E+02  0.57919677568E+03  0.58676773460E+03  0.00000000000E+00 0.  1.
          2    1    1    2  501    0 -0.36029191834E+02  0.13335244316E+03  0.11685211393E+04  0.11766573969E+04  0.00000000000E+00 0. -1.
<scales pt_clust_3="43.80820" pt_clust_4="43.80820" pt_clust_5="36.02017" pt_clust_6="234.84098"></scales>
<clustering>
<clus scale="   36.020">  5  6 -1 -1</clus>
<clus scale="   43.808">  3  4 -1 -1</clus>
<clus scale="  234.841">  1  5  2 -1</clus>
<clus scale="  244.988">  2  3  1 -1</clus>
</clustering>
</event>
<event>
 6    0  0.1849053E+002  0.2621767E+03  0.7546771E-02  0.1105842E+00
         21   -1    0    0  505  502  0.00000000000E+00  0.00000000000E+00  0.43648883052E+03  0.43648883052E+03  0.00000000000E+00 0. -1.
          2   -1    0    0  504    0 -0.00000000000E+00 -0.00000000000E+00 -0.44157849556E+03  0.44157849556E+03  0.00000000000E+00 0.  1.
         21    1    1    2  503  501 -0.11046736304E+03 -0.46034311691E+02 -0.88274413184E+02  0.14870967747E+03  0.00000000000E+00 0.  1.
         21    1    1    2  504  502  0.22125631777E+03  0.93176497132E+02  0.26989980184E+03  0.36122309007E+03  0.00000000000E+00 0. -1.
         21    1    1    2  505  503  0.11844529293E+02 -0.39370827062E+02  0.71327331312E+02  0.82328264222E+02  0.00000000000E+00 0.  1.
          2    1    1    2  501    0 -0.12263348402E+03 -0.77713583786E+01 -0.25804238501E+03  0.28580629432E+03  0.00000000000E+00 0.  1.
<scales pt_clust_3="106.79411" pt_clust_4="238.95373" pt_clust_5="41.11393" pt_clust_6="106.79411"></scales>
<clustering>
<clus scale="   41.114">  1  5  2 -1</clus>
<clus scale="  106.794">  3  6 -1 -1</clus>
<clus scale="  238.954">  1  4  2 -1</clus>
<clus scale="   41.114">  1  3  2 -1</clus>
</clustering>
</event>
<event>
 6    0  0.1849053E+002  0.1204175E+03  0.7546771E-02  0.1242410E+00
         21   -1    0    0  504  502  0.00000000000E+00  0.00000000000E+00  0.73866217366E+03  0.73866217366E+03  0.00000000000E+00 0. -1.
          2   -1    0    0  505    0 -0.00000000000E+00 -0.00000000000E+00 -0.34066524204E+03  0.34066524204E+03  0.00000000000E+00 0.  1.
         21    1    1    2  503  501  0.17889854003E+01  0.81528920875E+02  0.61689616900E+03  0.62226284537E+03  0.00000000000E+00 0. -1.
         21    1    1    2  504  503 -0.15246452338E+02  0.42044333872E+02  0.85267923012E+02  0.96284988520E+02  0.00000000000E+00 0.  1.
         21    1    1    2  505  502 -0.28823200791E+02 -0.10612981625E+03 -0.90944984428E+02  0.14270706007E+03  0.00000000000E+00 0.  1.
          2    1    1    2  501    0  0.42280667728E+02 -0.17443438494E+02 -0.21322217597E+03  0.21807252173E+03  0.00000000000E+00 0.  1.
<scales pt_clust_3="14000.00000" pt_clust_4="44.72338" pt_clust_5="120.41753" pt_clust_6="45.62499"></scales>
<clustering>
<clus scale="   44.723">  1  4  2 -1</clus>
<clus scale="   45.625">  2  6  1 -1</clus>
<clus scale="  120.418">  2  5  1 -1</clus>
<clus scale="   44.723">  1  3  2 -1</clus>
</clustering>
</event>
<event>
 6    0  0.1849053E+002  0.1081714E+03  0.7546771E-02  0.1263994E+00
         21   -1    0    0  505  502  0.00000000000E+00  0.00000000000E+00  0.45248745817E+02  0.45248745817E+02  0.00000000000E+00 0.  1.
          2   -1    0    0  504    0 -0.00000000000E+00 -0.00000000000E+00 -0.15637704358E+04  0.15637704358E+04  0.00000000000E+00 0.  1.
         21    1    1    2  503  502 -0.30336563138E+02  0.65096658686E+02 -0.26958048204E+02  0.76711266435E+02  0.00000000000E+00 0.  1.
         21    1    1    2  504  503  0.18923758462E+02 -0.46540195962E+02 -0.30285317562E+03  0.30699209185E+03  0.00000000000E+00 0.  1.
         21    1    1    2  505  501  0.54298505759E+02  0.58760627226E+02 -0.80195257293E+02  0.11328026453E+03  0.00000000000E+00 0.  1.
          2    1    1    2  501    0 -0.42885701082E+02 -0.77317089950E+02 -0.11085152088E+04  0.11120355588E+04  0.00000000000E+00 0.  1.
<scales pt_clust_3="69.75234" pt_clust_4="50.24041" pt_clust_5="108.17138" pt_clust_6="14000.00000"></scales>
<clustering>
<clus scale="   50.240">  2  4  1 -1</clus>
<clus scale="   69.752">  1  3  2 -1</clus>
<clus scale="  108.171">  1  5  2 -1</clus>
<clus scale="   69.752">  1  3  2 -1</clus>
</clustering>
</event>
<event>
 6    0  0.1849053E+002  0.1247845E+03  0.7546771E-02  0.1235406E+00
         21   -1    0    0  501  502  0.00000000000E+00  0.00000000000E+00  0.16544603998E+03  0.16544603998E+03  0.00000000000E+00 0. -1.
          2   -1    0    0  503    0 -0.00000000000E+00 -0.00000000000E+00 -0.53091251199E+03  0.53091251199E+03  0.00000000000E+00 0. -1.
         21    1    1    2  503  504  0.33408425678E+02  0.21619168793E+02 -0.36081721020E+02  0.53715937648E+02  0.00000000000E+00 0. -1.
         21    1    1    2  504  505  0.52671834999E+02 -0.67384362118E+01  0.69854641289E+02  0.87746222906E+02  0.00000000000E+00 0. -1.
         21    1    1    2  505  502  0.60832425605E+02  0.28346663503E+02  0.47773151329E+02  0.82379556473E+02  0.00000000000E+00 0. -1.
          2    1    1    2  501    0 -0.14691268628E+03 -0.43227396085E+02 -0.44701254361E+03  0.47251683494E+03  0.00000000000E+00 0. -1.
<scales pt_clust_3="39.79336" pt_clust_4="37.27821" pt_clust_5="37.27821" pt_clust_6="117.53644"></scales>
<clustering>
<clus scale="   37.278">  4  5 -1 -1</clus>
<clus scale="   39.793">  2  3  1 -1</clus>
<clus scale="  117.536">  2  6  1 -1</clus>
<clus scale="  124.784">  1  3  2 -1</clus>
</clustering>
</event>
<event>
 6    0  0.1849053E+002  0.2354355E+03  0.7546771E-02  0.1122871E+00
         -1   -1    0    0    0  501 -0.00000000000E+00  0.00000000000E+00  0.13283941641E+04  0.13283941641E+04  0.00000000000E+00 0. -1.
         21   -1    0    0  504  502  0.00000000000E+00 -0.00000000000E+00 -0.16631253398E+04  0.16631253398E+04  0.00000000000E+00 0. -1.
         21    1    1    2  503  501  0.34751528250E+02 -0.68033037592E+02  0.96461014194E+01  0.77001364873E+02  0.00000000000E+00 0. -1.
         21    1    1    2  504  505 -0.89223928601E+02  0.15997152150E+02 -0.51319368549E+03  0.52113777174E+03  0.00000000000E+00 0. -1.
         21    1    1    2  505  503 -0.14243789081E+03 -0.25504606417E+00 -0.10995590415E+04  0.11087464559E+04  0.00000000000E+00 0. -1.
         -1    1    1    2    0  502  0.19691029117E+03  0.52290931506E+02  0.12683754499E+04  0.12846339113E+04  0.00000000000E+00 0. -1.
<scales pt_clust_3="76.39478" pt_clust_4="32.26891" pt_clust_5="32.26891" pt_clust_6="231.93463"></scales>
<clustering>
<clus scale="   32.269">  4  5 -1 -1</clus>
<clus scale="   76.395">  1  3  2 -1</clus>
<clus scale="  231.935">  1  6  2 -1</clus>
<clus scale="  235.436">  2  3  1 -1</clus>
</clustering>
</event>
<event>
 6    0  0.1849053E+002  0.1368748E+03  0.7546771E-02  0.1217597E+00
          2   -1    0    0  504    0 -0.00000000000E+00  0.00000000000E+00  0.24534844554E+04  0.24534844554E+04  0.00000000000E+00 0. -1.
         21   -1    0    0  503  502  0.00000000000E+00 -0.00000000000E+00 -0.45017444587E+02  0.45017444587E+02  0.00000000000E+00 0.  1.
         21    1    1    2  503  501 -0.21439363030E+02 -0.25320828242E+02  0.15658801585E+02  0.36687718614E+02  0.00000000000E+00 0.  1.
         21    1    1    2  504  505  0.26646995317E+02  0.23695161558E+02  0.16047097786E+03  0.16438508989E+03  0.00000000000E+00 0.  1.
         21    1    1    2  505  502  0.12328954250E+03  0.10481895812E+03  0.19484357170E+03  0.25328115347E+03  0.00000000000E+00 0.  1.
          2    1    1    2  501    0 -0.12849717479E+03 -0.10319329143E+03  0.20374936596E+04  0.20441479380E+04  0.00000000000E+00 0. -1.
<scales pt_clust_3="33.17816" pt_clust_4="33.79633" pt_clust_5="136.87484" pt_clust_6="14000.00000"></scales>
<clustering>
<clus scale="   33.178">  2  3  1 -1</clus>
<clus scale="   33.796">  1  4  2 -1</clus>
<clus scale="  136.875">  2  5  1 -1</clus>
<clus scale="   33.178">  2  3  1 -1</clus>
</clustering>
</event>
<event>
 6    0  0.1849053E+002  0.1161337E+03  0.7546771E-02  0.1249615E+00
         21   -1    0    0  505  502  0.00000000000E+00  0.00000000000E+00  0.22135765968E+03  0.22135765968E+03  0.00000000000E+00 0.  1.
          1   -1    0    0  504    0 -0.00000000000E+00 -0.00000000000E+00 -0.69556518083E+03  0.69556518083E+03  0.00000000000E+00 0. -1.
         21    1    1    2  503  502  0.25510163198E+01 -0.34180868877E+02 -0.12706420342E+01  0.34299475399E+02  0.00000000000E+00 0. -1.
         21    1    1    2  504  503  0.12266188775E+02 -0.12730964148E+03 -0.19014917807E+03  0.22916132772E+03  0.00000000000E+00 0. -1.
         21    1    1    2  505  501  0.50453393286E+02  0.65648734020E+02  0.16837773373E+03  0.18763358545E+03  0.00000000000E+00 0.  1.
          1    1    1    2  501    0 -0.65270598381E+02  0.95841776337E+02 -0.45116543477E+03  0.46582845194E+03  0.00000000000E+00 0. -1.
<scales pt_clust_3="34.27593" pt_clust_4="14000.00000" pt_clust_5="63.76731" pt_clust_6="116.13373"></scales>
<clustering>
<clus scale="   34.276">  1  3  2 -1</clus>
<clus scale="   63.767">  1  5  2 -1</clus>
<clus scale="  116.134">  2  6  1 -1</clus>
<clus scale="   34.276">  1  3  2 -1</clus>
</clustering>
</event>
<event>
 6    0  0.1849053E+002  0.9960707E+02  0.7546771E-02  0.1281124E+00
          2   -1    0    0  504    0 -0.00000000000E+00  0.00000000000E+00  0.18531477645E+04  0.18531477645E+04  0.00000000000E+00 0.  1.
         21   -1    0    0  505  502  0.00000000000E+00 -0.00000000000E+00 -0.51522051040E+02  0.51522051040E+02  0.00000000000E+00 0. -1.
         21    1    1    2  503  501 -0.48357677259E+02 -0.77667858170E+02  0.43342826594E+03  0.44297948356E+03  0.00000000000E+00 0. -1.
         21    1    1    2  504  502  0.38923769935E+02  0.25269372816E+01  0.37751310806E+01  0.39187968724E+02  0.00000000000E+00 0. -1.
         21    1    1    2  505  503 -0.16912627642E+02 -0.25658120732E+02 -0.18362070958E+02  0.35798628229E+02  0.00000000000E+00 0. -1.
          2    1    1    2  501    0  0.26346534966E+02  0.10079904162E+03  0.13827843874E+04  0.13867037350E+04  0.00000000000E+00 0.  1.
<scales pt_clust_3="14000.00000" pt_clust_4="31.13397" pt_clust_5="30.73070" pt_clust_6="99.60707"></scales>
<clustering>
<clus scale="   30.731">  2  5  1 -1</clus>
<clus scale="   31.134">  2  4  1 -1</clus>
<clus scale="   99.607">  1  6  2 -1</clus>
<clus scale="   30.731">  2  3  1 -1</clus>
</clustering>
</event>
<event>
 6    0  0.1849053E+002  0.2915442E+03  0.7546771E-02  0.1089546E+00
         21   -1    0    0  505  502  0.00000000000E+00  0.00000000000E+00  0.52769008481E+03  0.52769008481E+03  0.00000000000E+00 0. -1.
          2   -1    0    0  504    0 -0.00000000000E+00 -0.00000000000E+00 -0.55287754483E+03  0.55287754483E+03  0.00000000000E+00 0.  1.
         21    1    1    2  503  502 -0.47623709422E+02 -0.76671563316E+02  0.26406231489E+03  0.27906173594E+03  0.00000000000E+00 0. -1.
         21    1    1    2  504  503 -0.54675838093E+02 -0.16843982329E+03  0.18294843640E+03  0.25462040712E+03  0.00000000000E+00 0. -1.
         21    1    1    2  505  501  0.24870929526E+02  0.12390205887E+03 -0.16636804869E+03  0.20892249987E+03  0.00000000000E+00 0.  1.
          2    1    1    2  501    0  0.77428617989E+02  0.12120932774E+03 -0.30583016262E+03  0.33796298670E+03  0.00000000000E+00 0.  1.
<scales pt_clust_3="85.82758" pt_clust_4="85.82758" pt_clust_5="69.94328" pt_clust_6="275.88509"></scales>
<clustering>
<clus scale="   69.943">  5  6 -1 -1</clus>
<clus scale="   85.828">  3  4 -1 -1</clus>
<clus scale="  275.885">  2  5  1 -1</clus>
<clus scale="  291.544">  1  3  2 -1</clus>
</clustering>
</event>
<event>
 6    0  0.1849053E+002  0.9540469E+02  0.7546771E-02  0.1290267E+00
          2   -1    0    0  504    0 -0.00000000000E+00  0.00000000000E+00  0.53259884333E+02  0.53259884333E+02  0.00000000000E+00 0.  1.
         21   -1    0    0  505  502  0.00000000000E+00 -0.00000000000E+00 -0.14129684857E+04  0.14129684857E+04  0.00000000000E+00 0.  1.
         21    1    1    2  503  502  0.46832731385E+02  0.38866827191E+02 -0.23281179788E+03  0.24063513504E+03  0.00000000000E+00 0.  1.
         21    1    1    2  504  503  0.69807959733E+02 -0.37993804955E+02 -0.54070220504E+03  0.54651217277E+03  0.00000000000E+00 0.  1.
         21    1    1    2  505  501 -0.41214610410E+02  0.69112993829E+02 -0.56911937793E+03  0.57478005912E+03  0.00000000000E+00 0.  1.
          2    1    1    2  501    0 -0.75426080708E+02 -0.69986016064E+02 -0.17075220544E+02  0.10430100312E+03  0.00000000000E+00 0.  1.
<scales pt_clust_3="60.85996" pt_clust_4="95.40469" pt_clust_5="89.92345" pt_clust_6="14000.00000"></scales>
<clustering>
<clus scale="   60.860">  2  3  1 -1</clus>
<clus scale="   89.923">  2  5  1 -1</clus>
<clus scale="   95.405">  2  4  1 -1</clus>
<clus scale="   60.860">  2  3  1 -1</clus>
</clustering>
</event>
<event>
 6    0  0.1849053E+002  0.1096673E+03  0.7546771E-02  0.1261187E+00
         -1   -1    0    0    0  501 -0.00000000000E+00  0.00000000000E+00  0.37976072496E+03  0.37976072496E+03  0.00000000000E+00 0. -1.
         21   -1    0    0  503  502  0.00000000000E+00 -0.00000000000E+00 -0.31819471213E+03  0.31819471213E+03  0.00000000000E+00 0. -1.
         21    1    1    2  503  504 -0.36940145884E+02 -0.81769721168E+01 -0.67827450836E+02  0.77665953530E+02  0.00000000000E+00 0. -1.
         21    1    1    2  504  501 -0.10234543449E+03  0.95149711250E+02  0.24066861587E+03  0.27829739161E+03  0.00000000000E+00 0. -1.
         21    1    1    2  505  502  0.64109092161E+02 -0.96745120936E+02 -0.19632274423E+03  0.22806186447E+03  0.00000000000E+00 0. -1.
         -1    1    1    2    0  505  0.75176488215E+02  0.97723818027E+01  0.85047592027E+02  0.11393022749E+03  0.00000000000E+00 0. -1.
<scales pt_clust_3="37.83434" pt_clust_4="14000.00000" pt_clust_5="109.66732" pt_clust_6="73.59194"></scales>
<clustering>
<clus scale="   37.834">  2  3  1 -1</clus>
<clus scale="   73.592">  1  6  2 -1</clus>
<clus scale="  109.667">  2  5  1 -1</clus>
<clus scale="   37.834">  2  3  1 -1</clus>
</clustering>
</event>
<event>
 6    0  0.1849053E+002  0.1201844E+03  0.7546771E-02  0.1242793E+00
         -2   -1    0    0    0  501 -0.00000000000E+00  0.00000000000E+00  0.20190370300E+03  0.20190370300E+03  0.00000000000E+00 0. -1.
         21   -1    0    0  505  502  0.00000000000E+00 -0.00000000000E+00 -0.21280578036E+03  0.21280578036E+03  0.00000000000E+00 0. -1.
         21    1    1    2  503  504  0.39361122988E+02  0.34347976055E+02 -0.44445457695E+02  0.68589213231E+02  0.00000000000E+00 0. -1.
         21    1    1    2  504  502  0.29951516888E+02  0.61808203195E+02 -0.12062027694E+03  0.13880417341E+03  0.00000000000E+00 0. -1.
         21    1    1    2  505  501  0.19719338837E+01 -0.51909227398E+02  0.39618207690E+02  0.65330381852E+02  0.00000000000E+00 0. -1.
         -2    1    1    2    0  503 -0.71284573760E+02 -0.44246951852E+02  0.11454544959E+03  0.14198571487E+03  0.00000000000E+00 0. -1.
<scales pt_clust_3="36.11771" pt_clust_4="36.11771" pt_clust_5="51.94667" pt_clust_6="112.82388"></scales>
<clustering>
<clus scale="   36.118">  3  4 -1 -1</clus>
<clus scale="   51.947">  1  5  2 -1</clus>
<clus scale="  112.824">  1  6  2 -1</clus>
<clus scale="  120.184">  2  3  1 -1</clus>
</clustering>
</event>
<event>
 6    0  0.1849053E+002  0.1204442E+03  0.7546771E-02  0.1242366E+00
         21   -1    0    0  503  502  0.00000000000E+00  0.00000000000E+00  0.14407649948E+03  0.14407649948E+03  0.00000000000E+00 0. -1.
          3   -1    0    0  502    0 -0.00000000000E+00 -0.00000000000E+00 -0.18626887878E+03  0.18626887878E+03  0.00000000000E+00 0.  1.
         21    1    1    2  503  505  0.43917731112E+02 -0.56487117411E+01  0.49193166429E+02  0.66186423636E+02  0.00000000000E+00 0. -1.
         21    1    1    2  504  501 -0.48536480423E+02 -0.39352678992E+02 -0.66483175860E+02  0.91238346917E+02  0.00000000000E+00 0.  1.
         21    1    1    2  505  504  0.70948001347E+02  0.61384875114E+02  0.13120138599E+02  0.94730458801E+02  0.00000000000E+00 0. -1.
          3    1    1    2  501    0 -0.66329252036E+02 -0.16383484381E+02 -0.38022508473E+02  0.78190148911E+02  0.00000000000E+00 0.  1.
<scales pt_clust_3="44.27951" pt_clust_4="36.83937" pt_clust_5="114.11785" pt_clust_6="36.83937"></scales>
<clustering>
<clus scale="   36.839">  4  6 -1 -1</clus>
<clus scale="   44.280">  1  3  2 -1</clus>
<clus scale="  114.118">  1  5  2 -1</clus>
<clus scale="   44.280">  1  3  2 -1</clus>
</clustering>
</event>
<event>
 6    0  0.1849053E+002  0.1144889E+03  0.7546771E-02  0.1252476E+00
         21   -1    0    0  503  502  0.00000000000E+00  0.00000000000E+00  0.51976061310E+03  0.51976061310E+03  0.00000000000E+00 0. -1.
         -4   -1    0    0    0  501 -0.00000000000E+00 -0.00000000000E+00 -0.55084957774E+03  0.55084957774E+03  0.00000000000E+00 0.  1.
         21    1    1    2  503  501  0.12941754050E+02 -0.74025165943E+02  0.38482872442E+02  0.84428346319E+02  0.00000000000E+00 0. -1.
         21    1    1    2  504  502  0.11624023906E+03  0.24881995981E+02  0.42000124887E+03  0.43649966318E+03  0.00000000000E+00 0. -1.
         21    1    1    2  505  504 -0.75667009573E+02  0.74340880619E+02 -0.72615494656E+02  0.12854988500E+03  0.00000000000E+00 0.  1.
         -4    1    1    2    0  505 -0.53514983542E+02 -0.25197710657E+02 -0.41695759129E+03  0.42113229634E+03  0.00000000000E+00 0.  1.
<scales pt_clust_3="78.50023" pt_clust_4="14000.00000" pt_clust_5="114.48886" pt_clust_6="59.15047"></scales>
<clustering>
<clus scale="   59.150">  2  6  1 -1</clus>
<clus scale="   78.500">  2  3  1 -1</clus>
<clus scale="  114.489">  2  5  1 -1</clus>
<clus scale="  114.489">  1  3  2 -1</clus>
</clustering>
</event>
<event>
 6    0  0.1849053E+002  0.6383475E+02  0.7546771E-02  0.1382409E+00
         21   -1    0    0  505  502  0.00000000000E+00  0.00000000000E+00  0.23041922050E+03  0.23041922050E+03  0.00000000000E+00 0. -1.
          1   -1    0    0  504    0 -0.00000000000E+00 -0.00000000000E+00 -0.16008556830E+04  0.16008556830E+04  0.00000000000E+00 0.  1.
         21    1    1    2  503  502  0.60575356254E+02  0.97117593162E+02  0.10966391638E+03  0.15851616713E+03  0.00000000000E+00 0. -1.
         21    1    1    2  504  503  0.41898602512E+02 -0.52442609372E+01 -0.68690284747E+02  0.80630951773E+02  0.00000000000E+00 0.  1.
         21    1    1    2  505  501 -0.20065598654E+02 -0.51746718316E+02  0.80294847525E+02  0.97609495670E+02  0.00000000000E+00 0. -1.
          1    1    1    2  501    0 -0.82408360113E+02 -0.40126613909E+02 -0.14917049417E+04  0.14945182889E+04  0.00000000000E+00 0.  1.
<scales pt_clust_3="63.83475" pt_clust_4="42.22553" pt_clust_5="55.44321" pt_clust_6="14000.00000"></scales>
<clustering>
<clus scale="   42.226">  2  4  1 -1</clus>
<clus scale="   55.443">  1  5  2 -1</clus>
<clus scale="   63.835">  1  3  2 -1</clus>
<clus scale="   55.443">  1  3  2 -1</clus>
</clustering>
</event>
<event>
 6    0  0.1849053E+002  0.2049235E+03  0.7546771E-02  0.1145650E+00
         21   -1    0    0  505  502  0.00000000000E+00  0.00000000000E+00  0.14053485088E+03  0.14053485088E+03  0.00000000000E+00 0. -1.
         -1   -1    0    0    0  501 -0.00000000000E+00 -0.00000000000E+00 -0.94529509137E+03  0.94529509137E+03  0.00000000000E+00 0. -1.
         21    1    1    2  503  504 -0.12429507747E+03  0.15356510326E+03 -0.12009353446E+03  0.23120113374E+03  0.00000000000E+00 0. -1.
         21    1    1    2  504  502  0.64769841014E+02 -0.20919220854E+03 -0.90474409360E+02  0.23694330792E+03  0.00000000000E+00 0. -1.
         21    1    1    2  505  501 -0.46175224927E+02  0.40983130619E+02 -0.20079525029E+03  0.21007260871E+03  0.00000000000E+00 0. -1.
         -1    1    1    2    0  503  0.10570046138E+03  0.14643974667E+02 -0.39339704638E+03  0.40761289188E+03  0.00000000000E+00 0. -1.
<scales pt_clust_3="204.92351" pt_clust_4="14000.00000" pt_clust_5="61.73952" pt_clust_6="88.71094"></scales>
<clustering>
<clus scale="   61.740">  2  5  1 -1</clus>
<clus scale="   88.711">  2  6  1 -1</clus>
<clus scale="  204.924">  2  3  1 -1</clus>
<clus scale="  204.924">  1  3  2 -1</clus>
</clustering>
</event>
<event>
 6    0  0.1849053E+002  0.9804016E+02  0.7546771E-02  0.1284472E+00
         -1   -1    0    0    0  501 -0.00000000000E+00  0.00000000000E+00  0.56412352430E+02  0.56412352430E+02  0.00000000000E+00 0.  1.
         21   -1    0    0  503  502  0.00000000000E+00 -0.00000000000E+00 -0.14210357032E+04  0.14210357032E+04  0.00000000000E+00 0.  1.
         21    1    1    2  503  505 -0.25782568375E+02 -0.57270741136E+02 -0.10471760978E+04  0.10490578909E+04  0.00000000000E+00 0.  1.
         21    1    1    2  504  502 -0.26488772899E+01 -0.36509150601E+02 -0.17874799305E+03  0.18245761055E+03  0.00000000000E+00 0.  1.
         21    1    1    2  505  501  0.76311756321E+02  0.64761183306E+02 -0.41204105846E+01  0.10017221571E+03  0.00000000000E+00 0.  1.
         -1    1    1    2    0  504 -0.47880310656E+02  0.29018708431E+02 -0.13457884932E+03  0.14576033847E+03  0.00000000000E+00 0.  1.
<scales pt_clust_3="14000.00000" pt_clust_4="36.60512" pt_clust_5="98.04016" pt_clust_6="54.23049"></scales>
<clustering>
<clus scale="   36.605">  2  4  1 -1</clus>
<clus scale="   54.230">  2  6  1 -1</clus>
<clus scale="   98.040">  1  5  2 -1</clus>
<clus scale="   36.605">  2  3  1 -1</clus>
</clustering>
</event>
<event>
 6    0  0.1849053E+002  0.2533898E+03  0.7546771E-02  0.1111181E+00
         21   -1    0    0  505  502  0.00000000000E+00  0.00000000000E+00  0.90042923453E+03  0.90042923453E+03  0.00000000000E+00 0.  1.
          1   -1    0    0  503    0 -0.00000000000E+00 -0.00000000000E+00 -0.17797730580E+03  0.17797730580E+03  0.00000000000E+00 0. -1.
         21    1    1    2  503  502 -0.99838567271E+02  0.18731627012E+02  0.15325747141E+03  0.18386534722E+03  0.00000000000E+00 0.  1.
         21    1    1    2  504  501  0.42350952062E+02  0.50467897636E+01  0.11951759601E+02  0.44293541121E+02  0.00000000000E+00 0. -1.
         21    1    1    2  505  504 -0.83326682614E+02 -0.18747544973E+03  0.59648549674E+03  0.63078152169E+03  0.00000000000E+00 0.  1.
          1    1    1    2  501    0  0.14081429782E+03  0.16369703296E+03 -0.39242799023E+02  0.21946613029E+03  0.00000000000E+00 0. -1.
<scales pt_clust_3="101.58058" pt_clust_4="36.64995" pt_clust_5="239.59549" pt_clust_6="36.64995"></scales>
<clustering>
<clus scale="   36.650">  4  6 -1 -1</clus>
<clus scale="  101.581">  1  3  2 -1</clus>
<clus scale="  239.595">  1  5  2 -1</clus>
<clus scale="  101.581">  1  3  2 -1</clus>
</clustering>
</event>
<event>
 6    0  0.1849053E+002  0.1579370E+03  0.7546771E-02  0.1191046E+00
          2   -1    0    0  505    0 -0.00000000000E+00  0.00000000000E+00  0.65017496024E+03  0.65017496024E+03  0.00000000000E+00 0.  1.
         21   -1    0    0  504  502  0.00000000000E+00 -0.00000000000E+00 -0.13624079254E+03  0.13624079254E+03  0.00000000000E+00 0. -1.
         21    1    1    2  503  501 -0.35434452146E+02 -0.11775413383E+03  0.31423661502E+03  0.33744078985E+03  0.00000000000E+00 0.  1.
         21    1    1    2  504  503 -0.52962813245E+02  0.14412927023E+03 -0.22088505418E+01  0.15356817751E+03  0.00000000000E+00 0. -1.
         21    1    1    2  505  502  0.11545643929E+03 -0.59181333230E+01  0.28980369521E+02  0.11918504727E+03  0.00000000000E+00 0. -1.
          2    1    1    2  501    0 -0.27059173894E+02 -0.20457003079E+02  0.17292603370E+03  0.17622173815E+03  0.00000000000E+00 0.  1.
<scales pt_clust_3="31.13429" pt_clust_4="146.39036" pt_clust_5="115.60802" pt_clust_6="31.13429"></scales>
<clustering>
<clus scale="   31.134">  3  6 -1 -1</clus>
<clus scale="  115.608">  2  5  1 -1</clus>
<clus scale="  146.390">  2  4  1 -1</clus>
<clus scale="  115.608">  2  3  1 -1</clus>
</clustering>
</event>
<event>
 6    0  0.1849053E+002  0.1735301E+03  0.7546771E-02  0.1174216E+00
         21   -1    0    0  504  502  0.00000000000E+00  0.00000000000E+00  0.57228573134E+02  0.57228573134E+02  0.00000000000E+00 0. -1.
          2   -1    0    0  502    0 -0.00000000000E+00 -0.00000000000E+00 -0.11723182328E+04  0.11723182328E+04  0.00000000000E+00 0. -1.
         21    1    1    2  503  501  0.47119438612E+01  0.49936990875E+02 -0.23171430955E+03  0.23708105518E+03  0.00000000000E+00 0. -1.
         21    1    1    2  504  505  0.38322918988E+02 -0.11780315395E+03 -0.86791533733E+02  0.15125805608E+03  0.00000000000E+00 0. -1.
         21    1    1    2  505  503  0.43261697468E+02 -0.17597408800E+02 -0.13295815663E+02  0.48559468474E+02  0.00000000000E+00 0. -1.
          2    1    1    2  501    0 -0.86296560318E+02  0.85463571875E+02 -0.78328800070E+03  0.79264822618E+03  0.00000000000E+00 0. -1.
<scales pt_clust_3="45.99853" pt_clust_4="172.94382" pt_clust_5="43.06923" pt_clust_6="45.99853"></scales>
<clustering>
<clus scale="   43.069">  4  5 -1 -1</clus>
<clus scale="   45.999">  3  6 -1 -1</clus>
<clus scale="  172.944">  1  4  2 -1</clus>
<clus scale="  172.944">  1  3  2 -1</clus>
</clustering>
</event>
<event>
 6    0  0.1849053E+002  0.9687709E+02  0.7546771E-02  0.1287004E+00
         21   -1    0    0  504  502  0.00000000000E+00  0.00000000000E+00  0.19280433201E+04  0.19280433201E+04  0.00000000000E+00 0. -1.
          3   -1    0    0  505    0 -0.00000000000E+00 -0.00000000000E+00 -0.53026181343E+02  0.53026181343E+02  0.00000000000E+00 0.  1.
         21    1    1    2  503  502  0.18090721105E+02 -0.42891373778E+02  0.11454862486E+04  0.11464317206E+04  0.00000000000E+00 0. -1.
         21    1    1    2  504  501  0.38734705557E+02 -0.30562434209E+02  0.44991025600E+03  0.45260764272E+03  0.00000000000E+00 0. -1.
         21    1    1    2  505  503 -0.47589924622E+02 -0.30852266563E+02  0.27110091340E+03  0.27696997766E+03  0.00000000000E+00 0.  1.
          3    1    1    2  501    0 -0.92355020403E+01  0.10430607455E+03  0.85197207568E+01  0.10506016052E+03  0.00000000000E+00 0.  1.
<scales pt_clust_3="46.55045" pt_clust_4="14000.00000" pt_clust_5="61.69863" pt_clust_6="96.87709"></scales>
<clustering>
<clus scale="   46.550">  1  3  2 -1</clus>
<clus scale="   61.699">  1  5  2 -1</clus>
<clus scale="   96.877">  2  6  1 -1</clus>
<clus scale="   46.550">  1  3  2 -1</clus>
</clustering>
</event>
<event>
 6    0  0.1849053E+002  0.1387063E+03  0.7546771E-02  0.1215080E+00
         21   -1    0    0  504  502  0.00000000000E+00  0.00000000000E+00  0.20622973067E+03  0.20622973067E+03  0.00000000000E+00 0. -1.
          1   -1    0    0  503    0 -0.00000000000E+00 -0.00000000000E+00 -0.52989780128E+03  0.52989780128E+03  0.00000000000E+00 0.  1.
         21    1    1    2  503  502  0.40414151216E+02  0.41111642434E+02 -0.24003433544E+03  0.24686018908E+03  0.00000000000E+00 0.  1.
         21    1    1    2  504  505  0.29940902491E+02 -0.68806806410E+02  0.11951465232E+03  0.14111905035E+03  0.00000000000E+00 0. -1.
         21    1    1    2  505  501 -0.12349551876E+02 -0.60229896296E+02  0.46565898876E+02  0.77126744891E+02  0.00000000000E+00 0. -1.
          1    1    1    2  501    0 -0.58005501831E+02  0.87925060271E+02 -0.24971428637E+03  0.27102154764E+03  0.00000000000E+00 0.  1.
<scales pt_clust_3="57.64955" pt_clust_4="50.30504" pt_clust_5="50.30504" pt_clust_6="127.08610"></scales>
<clustering>
<clus scale="   50.305">  4  5 -1 -1</clus>
<clus scale="   57.650">  2  3  1 -1</clus>
<clus scale="  127.086">  2  6  1 -1</clus>
<clus scale="  138.706">  1  3  2 -1</clus>
</clustering>
</event>
<event>
 6    0  0.1849053E+002  0.1619032E+03  0.7546771E-02  0.1186565E+00
          2   -1    0    0  503    0 -0.00000000000E+00  0.00000000000E+00  0.35178994498E+03  0.35178994498E+03  0.00000000000E+00 0.  1.
         21   -1    0    0  505  502  0.00000000000E+00 -0.00000000000E+00 -0.17000878771E+03  0.17000878771E+03  0.00000000000E+00 0. -1.
         21    1    1    2  503  504 -0.10222242475E+03  0.17766154135E+02 -0.86706809230E+02  0.13521512904E+03  0.00000000000E+00 0. -1.
         21    1    1    2  504  502 -0.51521805254E+02 -0.18662937447E+02 -0.18359780259E+02  0.57791722434E+02  0.00000000000E+00 0. -1.
         21    1    1    2  505  501  0.93527250204E+02  0.22236711976E+01  0.12523810146E+03  0.15632297752E+03  0.00000000000E+00 0.  1.
          2    1    1    2  501    0  0.60216979803E+02 -0.13268878855E+01  0.16160964530E+03  0.17246890369E+03  0.00000000000E+00 0.  1.
<scales pt_clust_3="36.87478" pt_clust_4="36.87478" pt_clust_5="37.50125" pt_clust_6="160.69372"></scales>
<clustering>
<clus scale="   36.875">  3  4 -1 -1</clus>
<clus scale="   37.501">  5  6 -1 -1</clus>
<clus scale="  160.694">  1  5  2 -1</clus>
<clus scale="  161.903">  2  3  1 -1</clus>
</clustering>
</event>
<event>
 6    0  0.1849053E+002  0.1586406E+03  0.7546771E-02  0.1190240E+00
         21   -1    0    0  504  502  0.00000000000E+00  0.00000000000E+00  0.50386830743E+02  0.50386830743E+02  0.00000000000E+00 0. -1.
          2   -1    0    0  503    0 -0.00000000000E+00 -0.00000000000E+00 -0.21880787122E+04  0.21880787122E+04  0.00000000000E+00 0. -1.
         21    1    1    2  503  505 -0.48819322436E+02  0.83152358357E+00 -0.39033778671E+03  0.39337972166E+03  0.00000000000E+00 0. -1.
         21    1    1    2  504  501 -0.15676764633E+03  0.45575630831E+02 -0.13265887854E+03  0.21036066913E+03  0.00000000000E+00 0. -1.
         21    1    1    2  505  502  0.94750661023E+02  0.50030051203E+02 -0.75529915867E+03  0.76286139821E+03  0.00000000000E+00 0. -1.
          2    1    1    2  501    0  0.11083630774E+03 -0.96437205617E+02 -0.85939605752E+03  0.87186375394E+03  0.00000000000E+00 0. -1.
<scales pt_clust_3="48.82640" pt_clust_4="14000.00000" pt_clust_5="89.62152" pt_clust_6="158.64063"></scales>
<clustering>
<clus scale="   48.826">  2  3  1 -1</clus>
<clus scale="   89.622">  2  5  1 -1</clus>
<clus scale="  158.641">  2  6  1 -1</clus>
<clus scale="  158.641">  1  3  2 -1</clus>
</clustering>
</event>
<event>
 6    0  0.1849053E+002  0.1637321E+03  0.7546771E-02  0.1184547E+00
          1   -1    0    0  504    0 -0.00000000000E+00  0.00000000000E+00  0.15497399430E+04  0.15497399430E+04  0.00000000000E+00 0.  1.
         21   -1    0    0  505  502  0.00000000000E+00 -0.00000000000E+00 -0.63728253060E+02  0.63728253060E+02  0.00000000000E+00 0. -1.
         21    1    1    2  503  502  0.19801767820E+02  0.74193428785E+02 -0.61917128243E+01  0.77039679331E+02  0.00000000000E+00 0. -1.
         21    1    1    2  504  503  0.69631220436E+01  0.53684355952E+02  0.44599864422E+02  0.70140167159E+02  0.00000000000E+00 0. -1.
         21    1    1    2  505  501  0.38080693040E+02  0.14072172086E+02  0.79048866693E+02  0.88864439092E+02  0.00000000000E+00 0.  1.
          1    1    1    2  501    0 -0.64845582904E+02 -0.14194995682E+03  0.13685546716E+04  0.13774239105E+04  0.00000000000E+00 0.  1.
<scales pt_clust_3="43.61990" pt_clust_4="43.61990" pt_clust_5="40.59760" pt_clust_6="153.91740"></scales>
<clustering>
<clus scale="   40.598">  2  5  1 -1</clus>
<clus scale="   43.620">  3  4 -1 -1</clus>
<clus scale="  153.917">  1  6  2 -1</clus>
<clus scale="   40.598">  2  3  1 -1</clus>
</clustering>
</event>
<event>
 6    0  0.1849053E+002  0.5144164E+02  0.7546771E-02  0.1437717E+00
         21   -1    0    0  504  502  0.00000000000E+00  0.00000000000E+00  0.41252441754E+03  0.41252441754E+03  0.00000000000E+00 0. -1.
         -3   -1    0    0    0  501 -0.00000000000E+00 -0.00000000000E+00 -0.30716875305E+03  0.30716875305E+03  0.00000000000E+00 0. -1.
         21    1    1    2  503  505 -0.82197943548E+02 -0.35585425647E+02 -0.19028267122E+03  0.21031005542E+03  0.00000000000E+00 0. -1.
         21    1    1    2  504  501  0.58215867065E+02 -0.18789902868E+02  0.44085505639E+02  0.75403444453E+02  0.00000000000E+00 0. -1.
         21    1    1    2  505  502 -0.25935043803E+02  0.45055869005E+02  0.33352562595E+03  0.33755296028E+03  0.00000000000E+00 0. -1.
         -3    1    1    2    0  503  0.49917120285E+02  0.93194595100E+01 -0.81972795876E+02  0.96426710442E+02  0.00000000000E+00 0. -1.
<scales pt_clust_3="45.27573" pt_clust_4="51.44164" pt_clust_5="14000.00000" pt_clust_6="50.77963"></scales>
<clustering>
<clus scale="   50.780">  2  6  1 -1</clus>
<clus scale="   45.276">  2  3  1 -1</clus>
<clus scale="   51.442">  2  4  1 -1</clus>
<clus scale="   51.442">  1  3  2 -1</clus>
</clustering>
</event>
<event>
 6    0  0.1849053E+002  0.7766220E+02  0.7546771E-02  0.1335820E+00
         21   -1    0    0  505  502  0.00000000000E+00  0.00000000000E+00  0.14358892515E+03  0.14358892515E+03  0.00000000000E+00 0.  1.
          1   -1    0    0  504    0 -0.00000000000E+00 -0.00000000000E+00 -0.16770086108E+04  0.16770086108E+04  0.00000000000E+00 0. -1.
         21    1    1    2  503  502 -0.50432226940E+02 -0.36912806003E+02  0.66033755458E+02  0.90919863732E+02  0.00000000000E+00 0.  1.
         21    1    1    2  504  503  0.12129657925E+02 -0.69721861340E+02 -0.14132515621E+03  0.15805399814E+03  0.00000000000E+00 0.  1.
         21    1    1    2  505  501  0.10674608719E+03  0.62493903870E+02 -0.13193720386E+02  0.12439569691E+03  0.00000000000E+00 0.  1.
          1    1    1    2  501    0 -0.68443518178E+02  0.44140763474E+02 -0.14449345645E+04  0.14472279772E+04  0.00000000000E+00 0. -1.
<scales pt_clust_3="62.49772" pt_clust_4="77.66220" pt_clust_5="70.81353" pt_clust_6="14000.00000"></scales>
<clustering>
<clus scale="   62.498">  1  3  2 -1</clus>
<clus scale="   70.814">  1  5  2 -1</clus>
<clus scale="   77.662">  1  4  2 -1</clus>
<clus scale="   62.498">  1  3  2 -1</clus>
</clustering>
</event>
<event>
 6    0  0.1849053E+002  0.1300852E+03  0.7546771E-02  0.1227329E+00
         21   -1    0    0  504  502  0.00000000000E+00  0.00000000000E+00  0.14048426093E+04  0.14048426093E+04  0.00000000000E+00 0. -1.
          1   -1    0    0  503    0 -0.00000000000E+00 -0.00000000000E+00 -0.24955722960E+04  0.24955722960E+04  0.00000000000E+00 0. -1.
         21    1    1    2  503  505  0.42698960474E+02  0.98452585740E+00 -0.26761715647E+03  0.27100389841E+03  0.00000000000E+00 0. -1.
         21    1    1    2  504  501  0.52727005795E+02 -0.83731359208E+02  0.18818263452E+03  0.21261180962E+03  0.00000000000E+00 0. -1.
         21    1    1    2  505  502 -0.27122734969E+02  0.14018910315E+03  0.11976098362E+04  0.12060920143E+04  0.00000000000E+00 0. -1.
          1    1    1    2  501    0 -0.68303231300E+02 -0.57442269801E+02 -0.22089050009E+04  0.22107071829E+04  0.00000000000E+00 0. -1.
<scales pt_clust_3="42.71031" pt_clust_4="130.08516" pt_clust_5="14000.00000" pt_clust_6="62.13002"></scales>
<clustering>
<clus scale="   42.710">  2  3  1 -1</clus>
<clus scale="   62.130">  2  6  1 -1</clus>
<clus scale="  130.085">  2  4  1 -1</clus>
<clus scale="  130.085">  1  3  2 -1</clus>
</clustering>
</event>
<event>
 6    0  0.1849053E+002  0.8879415E+02  0.7546771E-02  0.1305798E+00
         21   -1    0    0  504  502  0.00000000000E+00  0.00000000000E+00  0.25778653264E+03  0.25778653264E+03  0.00000000000E+00 0. -1.
          2   -1    0    0  503    0 -0.00000000000E+00 -0.00000000000E+00 -0.12306971619E+03  0.12306971619E+03  0.00000000000E+00 0. -1.
         21    1    1    2  503  505  0.30687453912E+02 -0.24210811890E+02 -0.32461729441E+02  0.50809911614E+02  0.00000000000E+00 0. -1.
         21    1    1    2  504  501 -0.46675163612E+02 -0.81343643439E+02  0.12097421122E+03  0.15306900080E+03  0.00000000000E+00 0. -1.
         21    1    1    2  505  502 -0.21105447586E+02  0.23210249056E+02  0.75721618549E+02  0.81962912922E+02  0.00000000000E+00 0. -1.
          2    1    1    2  501    0  0.37093157286E+02  0.82344206273E+02 -0.29517283875E+02  0.95014423492E+02  0.00000000000E+00 0. -1.
<scales pt_clust_3="37.50255" pt_clust_4="88.79415" pt_clust_5="31.37125" pt_clust_6="14000.00000"></scales>
<clustering>
<clus scale="   31.371">  1  5  2 -1</clus>
<clus scale="   37.503">  2  3  1 -1</clus>
<clus scale="   88.794">  1  4  2 -1</clus>
<clus scale="   31.371">  1  3  2 -1</clus>
</clustering>
</event>
<event>
 6    0  0.1849053E+002  0.8684726E+02  0.7546771E-02  0.1310671E+00
          2   -1    0    0  505    0 -0.00000000000E+00  0.00000000000E+00  0.98283357669E+03  0.98283357669E+03  0.00000000000E+00 0. -1.
         21   -1    0    0  503  502  0.00000000000E+00 -0.00000000000E+00 -0.19184365087E+03  0.19184365087E+03  0.00000000000E+00 0.  1.
         21    1    1    2  503  501  0.86121118328E+02 -0.57614285402E+02 -0.13988586271E+03  0.17408132436E+03  0.00000000000E+00 0.  1.
         21    1    1    2  504  502 -0.28672338645E+02  0.55535030852E+02 -0.80789484400E+00  0.62505162580E+02  0.00000000000E+00 0. -1.
         21    1    1    2  505  504  0.23683269883E+01  0.31330760693E+02  0.13407159194E+03  0.13770409327E+03  0.00000000000E+00 0.  1.
          2    1    1    2  501    0 -0.59817106670E+02 -0.29251506143E+02  0.79761209143E+03  0.80038664735E+03  0.00000000000E+00 0. -1.
<scales pt_clust_3="86.84726" pt_clust_4="14000.00000" pt_clust_5="31.42015" pt_clust_6="57.58366"></scales>
<clustering>
<clus scale="   31.420">  1  5  2 -1</clus>
<clus scale="   57.584">  1  6  2 -1</clus>
<clus scale="   86.847">  2  3  1 -1</clus>
<clus scale="   86.847">  2  3  1 -1</clus>
</clustering>
</event>
<event>
 6    0  0.1849053E+002  0.2281773E+03  0.7546771E-02  0.1127929E+00
          2   -1    0    0  504    0 -0.00000000000E+00  0.00000000000E+00  0.17975183589E+04  0.17975183589E+04  0.00000000000E+00 0. -1.
         21   -1    0    0  501  502  0.00000000000E+00 -0.00000000000E+00 -0.78415796190E+03  0.78415796190E+03  0.00000000000E+00 0. -1.
         21    1    1    2  503  502 -0.56454850003E+02 -0.76111011357E+02 -0.25365289223E+03  0.27077633921E+03  0.00000000000E+00 0. -1.
         21    1    1    2  504  505  0.60954477168E+02  0.29587305705E+02  0.88948296863E+02  0.11181527830E+03  0.00000000000E+00 0. -1.
         21    1    1    2  505  503  0.11319529991E+03 -0.14741257584E+03 -0.48563698737E+03  0.51998742960E+03  0.00000000000E+00 0. -1.
          2    1    1    2  501    0 -0.11769492707E+03  0.19393628149E+03  0.16637019797E+04  0.16790972737E+04  0.00000000000E+00 0. -1.
<scales pt_clust_3="94.46011" pt_clust_4="67.75586" pt_clust_5="14000.00000" pt_clust_6="228.17727"></scales>
<clustering>
<clus scale="   67.756">  1  4  2 -1</clus>
<clus scale="   94.460">  2  3  1 -1</clus>
<clus scale="  228.177">  1  6  2 -1</clus>
<clus scale="   94.460">  2  3  1 -1</clus>
</clustering>
</event>
<event>
 6    0  0.1849053E+002  0.1769827E+03  0.7546771E-02  0.1170756E+00
         -3   -1    0    0    0  501 -0.00000000000E+00  0.00000000000E+00  0.67558738364E+03  0.67558738364E+03  0.00000000000E+00 0.  1.
         21   -1    0    0  505  502  0.00000000000E+00 -0.00000000000E+00 -0.26462787378E+03  0.26462787378E+03  0.00000000000E+00 0.  1.
         21    1    1    2  503  504 -0.70756952528E+02  0.19097224116E+02 -0.53501577722E+02  0.90739567547E+02  0.00000000000E+00 0.  1.
         21    1    1    2  504  502 -0.98174241996E+02 -0.15312602480E+02 -0.16394792781E+03  0.19170701766E+03  0.00000000000E+00 0.  1.
         21    1    1    2  505  501  0.57309853760E+02  0.36162571785E+02  0.14529435591E+03  0.16032030687E+03  0.00000000000E+00 0.  1.
         -3    1    1    2    0  503  0.11162134076E+03 -0.39947193421E+02  0.48311465948E+03  0.49744836534E+03  0.00000000000E+00 0.  1.
<scales pt_clust_3="53.90669" pt_clust_4="53.90669" pt_clust_5="67.76541" pt_clust_6="165.47854"></scales>
<clustering>
<clus scale="   53.907">  3  4 -1 -1</clus>
<clus scale="   67.765">  1  5  2 -1</clus>
<clus scale="  165.479">  1  6  2 -1</clus>
<clus scale="  176.983">  2  3  1 -1</clus>
</clustering>
</event>
<event>
 6    0  0.1849053E+002  0.2081734E+03  0.7546771E-02  0.1143021E+00
         21   -1    0    0  501  502  0.00000000000E+00  0.00000000000E+00  0.42939731820E+02  0.42939731820E+02  0.00000000000E+00 0.  1.
          1   -1    0    0  503    0 -0.00000000000E+00 -0.00000000000E+00 -0.25052622982E+04  0.25052622982E+04  0.00000000000E+00 0.  1.
         21    1    1    2  503  504  0.39123731785E+02 -0.82917805068E+01 -0.15444800387E+03  0.15954186257E+03  0.00000000000E+00 0. -1.
         21    1    1    2  504  505 -0.44626078900E+02 -0.10244597174E+03 -0.13938825321E+03  0.17864979478E+03  0.00000000000E+00 0.  1.
         21    1    1    2  505  502 -0.98359796301E+02 -0.12752986541E+02 -0.12226103278E+03  0.15743267873E+03  0.00000000000E+00 0.  1.
          1    1    1    2  501    0  0.10386214342E+03  0.12349073879E+03 -0.20462252765E+04  0.20525776939E+04  0.00000000000E+00 0.  1.
<scales pt_clust_3="39.99275" pt_clust_4="96.90579" pt_clust_5="96.90579" pt_clust_6="180.44629"></scales>
<clustering>
<clus scale="   39.993">  2  3  1 -1</clus>
<clus scale="   96.906">  4  5 -1 -1</clus>
<clus scale="  180.446">  2  6  1 -1</clus>
<clus scale="  208.173">  1  3  2 -1</clus>
</clustering>
</event>
<event>
 6    0  0.1849053E+002  0.9389938E+02  0.7546771E-02  0.1293674E+00
         21   -1    0    0  503  502  0.00000000000E+00  0.00000000000E+00  0.37035942238E+02  0.37035942238E+02  0.00000000000E+00 0. -1.
          1   -1    0    0  505    0 -0.00000000000E+00 -0.00000000000E+00 -0.10041917534E+04  0.10041917534E+04  0.00000000000E+00 0. -1.
         21    1    1    2  503  504 -0.18029654225E+02 -0.26353360656E+02  0.42440812194E+01  0.32211492898E+02  0.00000000000E+00 0. -1.
         21    1    1    2  504  501  0.19095499228E+02 -0.27745549231E+02 -0.23465461613E+02  0.41049743990E+02  0.00000000000E+00 0.  1.
         21    1    1    2  505  502 -0.26501311905E+02 -0.65120975224E+02 -0.26122083502E+03  0.27051688597E+03  0.00000000000E+00 0. -1.
          1    1    1    2  501    0  0.25435466902E+02  0.11921988511E+03 -0.68671359572E+03  0.69744957275E+03  0.00000000000E+00 0. -1.
<scales pt_clust_3="31.93068" pt_clust_4="41.46058" pt_clust_5="93.89938" pt_clust_6="14000.00000"></scales>
<clustering>
<clus scale="   31.931">  1  3  2 -1</clus>
<clus scale="   41.461">  1  4  2 -1</clus>
<clus scale="   93.899">  2  5  1 -1</clus>
<clus scale="   31.931">  1  3  2 -1</clus>
</clustering>
</event>
<event>
 6    0  0.1849053E+002  0.9989955E+02  0.7546771E-02  0.1280507E+00
          2   -1    0    0  502    0 -0.00000000000E+00  0.00000000000E+00  0.24904086556E+04  0.24904086556E+04  0.00000000000E+00 0.  1.
         21   -1    0    0  504  502  0.00000000000E+00 -0.00000000000E+00 -0.36564685220E+02  0.36564685220E+02  0.00000000000E+00 0.  1.
         21    1    1    2  503  505 -0.89529564309E+02 -0.38675339859E+02  0.48264336173E+03  0.49239815132E+03  0.00000000000E+00 0.  1.
         21    1    1    2  504  503  0.83618369408E+02  0.55830077742E+02  0.53895409147E+02  0.11407779981E+03  0.00000000000E+00 0.  1.
         21    1    1    2  505  501  0.39538518493E+02 -0.40407744974E+02  0.62669248870E+03  0.62923728091E+03  0.00000000000E+00 0.  1.
          2    1    1    2  501    0 -0.33627323591E+02  0.23253007091E+02  0.12906127108E+04  0.12912601088E+04  0.00000000000E+00 0.  1.
<scales pt_clust_3="99.89955" pt_clust_4="14000.00000" pt_clust_5="35.75242" pt_clust_6="40.88397"></scales>
<clustering>
<clus scale="   40.884">  1  6  2 -1</clus>
<clus scale="   35.752">  1  5  2 -1</clus>
<clus scale="   99.900">  1  3  2 -1</clus>
<clus scale="   99.900">  2  3  1 -1</clus>
</clustering>
</event>
<event>
 6    0  0.1849053E+002  0.2824439E+03  0.7546771E-02  0.1094362E+00
          2   -1    0    0  504    0 -0.00000000000E+00  0.00000000000E+00  0.28236371731E+04  0.28236371731E+04  0.00000000000E+00 0. -1.
         21   -1    0    0  505  502  0.00000000000E+00 -0.00000000000E+00 -0.30575592473E+03  0.30575592473E+03  0.00000000000E+00 0.  1.
         21    1    1    2  503  501  0.82887035766E+02  0.54367356225E+02  0.74319227035E+03  0.74977384646E+03  0.00000000000E+00 0. -1.
         21    1    1    2  504  502 -0.14009977069E+02 -0.26744165673E+02  0.36066242947E+01  0.30406209791E+02  0.00000000000E+00 0.  1.
         21    1    1    2  505  503 -0.16124104796E+03 -0.18085174603E+03 -0.23359952094E+03  0.33656316758E+03  0.00000000000E+00 0.  1.
          2    1    1    2  501    0  0.92363989263E+02  0.15322855548E+03  0.20046818747E+04  0.20126498740E+04  0.00000000000E+00 0. -1.
<scales pt_clust_3="59.35665" pt_clust_4="30.19155" pt_clust_5="270.94475" pt_clust_6="59.35665"></scales>
<clustering>
<clus scale="   30.192">  2  4  1 -1</clus>
<clus scale="   59.357">  3  6 -1 -1</clus>
<clus scale="  270.945">  2  5  1 -1</clus>
<clus scale="   30.192">  2  3  1 -1</clus>
</clustering>
</event>
<event>
 6    0  0.1849053E+002  0.1147449E+03  0.7546771E-02  0.1252027E+00
         21   -1    0    0  503  502  0.00000000000E+00  0.00000000000E+00  0.35351056781E+03  0.35351056781E+03  0.00000000000E+00 0.  1.
          2   -1    0    0  505    0 -0.00000000000E+00 -0.00000000000E+00 -0.64181769400E+03  0.64181769400E+03  0.00000000000E+00 0.  1.
         21    1    1    2  503  504 -0.10950122040E+03 -0.42279906370E+02  0.30966077115E+03  0.33116144241E+03  0.00000000000E+00 0.  1.
         21    1    1    2  504  501  0.17735962657E+02  0.35853305423E+02  0.98920951872E+01  0.41205308254E+02  0.00000000000E+00 0.  1.
         21    1    1    2  505  502  0.66178372978E+02  0.25050970707E+02 -0.17245326999E+03  0.18640616544E+03  0.00000000000E+00 0.  1.
          2    1    1    2  501    0  0.25586884765E+02 -0.18624369760E+02 -0.43540672255E+03  0.43655534570E+03  0.00000000000E+00 0.  1.
<scales pt_clust_3="14000.00000" pt_clust_4="39.66451" pt_clust_5="114.74485" pt_clust_6="31.64737"></scales>
<clustering>
<clus scale="   31.647">  2  6  1 -1</clus>
<clus scale="   39.665">  2  4  1 -1</clus>
<clus scale="  114.745">  2  5  1 -1</clus>
<clus scale="  114.745">  1  3  2 -1</clus>
</clustering>
</event>
<event>
 6    0  0.1849053E+002  0.1539262E+03  0.7546771E-02  0.1195730E+00
          2   -1    0    0  505    0 -0.00000000000E+00  0.00000000000E+00  0.62215046264E+03  0.62215046264E+03  0.00000000000E+00 0. -1.
         21   -1    0    0  504  502  0.00000000000E+00 -0.00000000000E+00 -0.61921397558E+03  0.61921397558E+03  0.00000000000E+00 0. -1.
         21    1    1    2  503  502  0.23102402269E+02  0.11656609301E+03 -0.55015396488E+03  0.56284168299E+03  0.00000000000E+00 0. -1.
         21    1    1    2  504  501 -0.31383593010E+01  0.36053873119E+02 -0.29629202655E+02  0.46772007825E+02  0.00000000000E+00 0.  1.
         21    1    1    2  505  503  0.22006315992E+02  0.39014534031E+02  0.73807125328E+02  0.86335992253E+02  0.00000000000E+00 0.  1.
          2    1    1    2  501    0 -0.41970358960E+02 -0.19163450016E+03  0.50891252927E+03  0.54541475515E+03  0.00000000000E+00 0. -1.
<scales pt_clust_3="14000.00000" pt_clust_4="36.19021" pt_clust_5="45.11549" pt_clust_6="153.92623"></scales>
<clustering>
<clus scale="   36.190">  2  4  1 -1</clus>
<clus scale="   45.115">  1  5  2 -1</clus>
<clus scale="  153.926">  1  6  2 -1</clus>
<clus scale="   36.190">  2  3  1 -1</clus>
</clustering>
</event>
<event>
 6    0  0.1849053E+002  0.1548280E+03  0.7546771E-02  0.1194663E+00
          2   -1    0    0  504    0 -0.00000000000E+00  0.00000000000E+00  0.33753213919E+04  0.33753213919E+04  0.00000000000E+00 0.  1.
         21   -1    0    0  505  502  0.00000000000E+00 -0.00000000000E+00 -0.94169035539E+03  0.94169035539E+03  0.00000000000E+00 0.  1.
         21    1    1    2  503  501  0.80962297181E+02 -0.65386012872E+02 -0.60255058140E+03  0.61147152623E+03  0.00000000000E+00 0.  1.
         21    1    1    2  504  502 -0.16071662600E+02  0.44480055636E+02  0.83717689900E+03  0.83851173749E+03  0.00000000000E+00 0.  1.
         21    1    1    2  505  503  0.48231808550E+02  0.15243531168E+02 -0.33082236846E+03  0.33466716611E+03  0.00000000000E+00 0.  1.
          2    1    1    2  501    0 -0.11312244313E+03  0.56624260678E+01  0.25298270874E+04  0.25323613175E+04  0.00000000000E+00 0.  1.
<scales pt_clust_3="48.25724" pt_clust_4="47.29454" pt_clust_5="48.25724" pt_clust_6="138.50535"></scales>
<clustering>
<clus scale="   47.295">  1  4  2 -1</clus>
<clus scale="   48.257">  3  5 -1 -1</clus>
<clus scale="  138.505">  1  6  2 -1</clus>
<clus scale="  154.828">  2  3  1 -1</clus>
</clustering>
</event>
<event>
 6    0  0.1849053E+002  0.1326499E+03  0.7546771E-02  0.1223576E+00
          2   -1    0    0  503    0 -0.00000000000E+00  0.00000000000E+00  0.15631420529E+04  0.15631420529E+04  0.00000000000E+00 0.  1.
         21   -1    0    0  505  502  0.00000000000E+00 -0.00000000000E+00 -0.19889073045E+02  0.19889073045E+02  0.00000000000E+00 0.  1.
         21    1    1    2  503  502  0.37641650697E+02 -0.56125437533E+01  0.16624984408E+03  0.17055030100E+03  0.00000000000E+00 0.  1.
         21    1    1    2  504  501  0.13463817599E+02  0.80626255242E+02  0.19684176621E+03  0.21313973900E+03  0.00000000000E+00 0.  1.
         21    1    1    2  505  504  0.29268309871E+02  0.25038680195E+02  0.56532362390E+02  0.68406706294E+02  0.00000000000E+00 0.  1.
          2    1    1    2  501    0 -0.80373778167E+02 -0.10005239168E+03  0.11236290072E+04  0.11309343796E+04  0.00000000000E+00 0.  1.
<scales pt_clust_3="38.05778" pt_clust_4="31.29773" pt_clust_5="31.29773" pt_clust_6="124.56786"></scales>
<clustering>
<clus scale="   31.298">  4  5 -1 -1</clus>
<clus scale="   38.058">  2  3  1 -1</clus>
<clus scale="  124.568">  1  6  2 -1</clus>
<clus scale="   38.058">  2  3  1 -1</clus>
</clustering>
</event>
<event>
 6    0  0.1849053E+002  0.1604536E+03  0.7546771E-02  0.1188186E+00
         21   -1    0    0  504  502  0.00000000000E+00  0.00000000000E+00  0.89385056914E+02  0.89385056914E+02  0.00000000000E+00 0. -1.
         -4   -1    0    0    0  501 -0.00000000000E+00 -0.00000000000E+00 -0.38514792442E+03  0.38514792442E+03  0.00000000000E+00 0.  1.
         21    1    1    2  503  501 -0.47976153188E+02  0.58667801053E+02 -0.47098325070E+02  0.89229335868E+02  0.00000000000E+00 0. -1.
         21    1    1    2  504  503 -0.34895379231E+02  0.77709852953E+02 -0.69610507326E+01  0.85469087775E+02  0.00000000000E+00 0. -1.
         21    1    1    2  505  502  0.51612264715E+02 -0.13501468075E+03 -0.18186505845E+03  0.23230946897E+03  0.00000000000E+00 0.  1.
         -4    1    1    2    0  505  0.31259267703E+02 -0.13629732605E+01 -0.59838433252E+02  0.67525088726E+02  0.00000000000E+00 0.  1.
<scales pt_clust_3="42.78507" pt_clust_4="42.78507" pt_clust_5="153.67107" pt_clust_6="31.28897"></scales>
<clustering>
<clus scale="   31.289">  2  6  1 -1</clus>
<clus scale="   42.785">  3  4 -1 -1</clus>
<clus scale="  153.671">  2  5  1 -1</clus>
<clus scale="  160.454">  1  3  2 -1</clus>
</clustering>
</event>
<event>
 6    0  0.1849053E+002  0.8126310E+02  0.7546771E-02  0.1325505E+00
          2   -1    0    0  503    0 -0.00000000000E+00  0.00000000000E+00  0.18744481543E+03  0.18744481543E+03  0.00000000000E+00 0.  1.
         21   -1    0    0  505  502  0.00000000000E+00 -0.00000000000E+00 -0.12762812728E+04  0.12762812728E+04  0.00000000000E+00 0.  1.
         21    1    1    2  503  502  0.13626790438E+02 -0.12369664339E+03 -0.11699849911E+04  0.11765846456E+04  0.00000000000E+00 0.  1.
         21    1    1    2  504  501 -0.25519455390E+02  0.40444450639E+02  0.46414780861E+02  0.66643289784E+02  0.00000000000E+00 0. -1.
         21    1    1    2  505  504  0.84120299108E+01  0.41604877327E+02 -0.84276893219E+02  0.94362719309E+02  0.00000000000E+00 0. -1.
          2    1    1    2  501    0  0.34806350408E+01  0.41647315426E+02  0.11901064608E+03  0.12613543349E+03  0.00000000000E+00 0.  1.
<scales pt_clust_3="81.26310" pt_clust_4="14000.00000" pt_clust_5="45.67525" pt_clust_6="41.79251"></scales>
<clustering>
<clus scale="   41.793">  1  6  2 -1</clus>
<clus scale="   45.675">  2  5  1 -1</clus>
<clus scale="   81.263">  2  3  1 -1</clus>
<clus scale="   45.675">  2  3  1 -1</clus>
</clustering>
</event>
<event>
 6    0  0.1849053E+002  0.1628190E+03  0.7546771E-02  0.1185550E+00
         21   -1    0    0  505  502  0.00000000000E+00  0.00000000000E+00  0.95492714806E+02  0.95492714806E+02  0.00000000000E+00 0. -1.
          2   -1    0    0  503    0 -0.00000000000E+00 -0.00000000000E+00 -0.70617266443E+03  0.70617266443E+03  0.00000000000E+00 0.  1.
         21    1    1    2  503  504  0.23147871695E+02 -0.29147079277E+02 -0.46067088551E+02  0.59224596596E+02  0.00000000000E+00 0.  1.
         21    1    1    2  504  502 -0.13615830811E+03  0.20755812824E+02 -0.60131395129E+01  0.13786241866E+03  0.00000000000E+00 0. -1.
         21    1    1    2  505  501 -0.39893657000E+02 -0.35147310508E+02 -0.55074090321E+02  0.76550589348E+02  0.00000000000E+00 0.  1.
          2    1    1    2  501    0  0.15290409341E+03  0.43538576961E+02 -0.50352563124E+03  0.52802777463E+03  0.00000000000E+00 0.  1.
<scales pt_clust_3="37.22064" pt_clust_4="14000.00000" pt_clust_5="53.49043" pt_clust_6="162.81902"></scales>
<clustering>
<clus scale="   37.221">  2  3  1 -1</clus>
<clus scale="   53.490">  1  5  2 -1</clus>
<clus scale="  162.819">  2  6  1 -1</clus>
<clus scale="   53.490">  1  3  2 -1</clus>
</clustering>
</event>
<event>
 6    0  0.1849053E+002  0.1172566E+03  0.7546771E-02  0.1247693E+00
          4   -1    0    0  504    0 -0.00000000000E+00  0.00000000000E+00  0.19899257294E+03  0.19899257294E+03  0.00000000000E+00 0. -1.
         21   -1    0    0  505  502  0.00000000000E+00 -0.00000000000E+00 -0.50765190851E+03  0.50765190851E+03  0.00000000000E+00 0. -1.
         21    1    1    2  503  502  0.42856813775E+02  0.89782147035E+02 -0.40498586662E+03  0.41702648906E+03  0.00000000000E+00 0. -1.
         21    1    1    2  504  503 -0.22356218524E+02 -0.25345071942E+02 -0.89334455366E+01  0.34956825193E+02  0.00000000000E+00 0. -1.
         21    1    1    2  505  501  0.43222461881E+02 -0.30428347864E+01 -0.55948131390E+02  0.70764634250E+02  0.00000000000E+00 0. -1.
          4    1    1    2  501    0 -0.63723057132E+02 -0.61394240307E+02  0.16120810797E+03  0.18389653295E+03  0.00000000000E+00 0. -1.
<scales pt_clust_3="117.25663" pt_clust_4="33.79605" pt_clust_5="42.52546" pt_clust_6="14000.00000"></scales>
<clustering>
<clus scale="   33.796">  1  4  2 -1</clus>
<clus scale="   42.525">  2  5  1 -1</clus>
<clus scale="  117.257">  2  3  1 -1</clus>
<clus scale="   42.525">  2  3  1 -1</clus>
</clustering>
</event>
<event>
 6    0  0.1849053E+002  0.1172022E+03  0.7546771E-02  0.1247785E+00
         21   -1    0    0  503  502  0.00000000000E+00  0.00000000000E+00  0.24314423870E+03  0.24314423870E+03  0.00000000000E+00 0. -1.
          2   -1    0    0  505    0 -0.00000000000E+00 -0.00000000000E+00 -0.41071749299E+03  0.41071749299E+03  0.00000000000E+00 0.  1.
         21    1    1    2  503  501  0.88149044010E+02  0.82289103282E+02  0.17746460470E+03  0.21455870152E+03  0.00000000000E+00 0. -1.
         21    1    1    2  504  502  0.32741771496E+02 -0.25318197854E+02 -0.51552036137E+01  0.41708642601E+02  0.00000000000E+00 0.  1.
         21    1    1    2  505  504 -0.31217374030E+02 -0.30496467608E+02 -0.28675074623E+03  0.29005266667E+03  0.00000000000E+00 0.  1.
          2    1    1    2  501    0 -0.89673441477E+02 -0.26474437820E+02 -0.53131909148E+02  0.10754172090E+03  0.00000000000E+00 0.  1.
<scales pt_clust_3="14000.00000" pt_clust_4="41.38882" pt_clust_5="43.60023" pt_clust_6="117.20222"></scales>
<clustering>
<clus scale="   41.389">  1  4  2 -1</clus>
<clus scale="   43.600">  2  5  1 -1</clus>
<clus scale="  117.202">  2  6  1 -1</clus>
<clus scale="   41.389">  1  3  2 -1</clus>
</clustering>
</event>
<event>
 6    0  0.1849053E+002  0.1110201E+03  0.7546771E-02  0.1258692E+00
         21   -1    0    0  505  502  0.00000000000E+00  0.00000000000E+00  0.77162420150E+02  0.77162420150E+02  0.00000000000E+00 0.  1.
          2   -1    0    0  504    0 -0.00000000000E+00 -0.00000000000E+00 -0.14976506348E+04  0.14976506348E+04  0.00000000000E+00 0.  1.
         21    1    1    2  503  501  0.34384961615E+02 -0.16014381025E+02 -0.10261629731E+02  0.39294872816E+02  0.00000000000E+00 0.  1.
         21    1    1    2  504  502  0.53448259615E+02  0.25888413698E+02 -0.39123308461E+03  0.39571486314E+03  0.00000000000E+00 0. -1.
         21    1    1    2  505  503  0.50792920779E+02 -0.38462152172E+02  0.37460831809E+02  0.73909213708E+02  0.00000000000E+00 0.  1.
          2    1    1    2  501    0 -0.13862614201E+03  0.28588119499E+02 -0.10564543321E+04  0.10658941053E+04  0.00000000000E+00 0.  1.
<scales pt_clust_3="33.20896" pt_clust_4="59.38793" pt_clust_5="33.20896" pt_clust_6="102.33801"></scales>
<clustering>
<clus scale="   33.209">  3  5 -1 -1</clus>
<clus scale="   59.388">  2  4  1 -1</clus>
<clus scale="  102.338">  2  6  1 -1</clus>
<clus scale="  111.020">  1  3  2 -1</clus>
</clustering>
</event>
<event>
 6    0  0.1849053E+002  0.1113594E+03  0.7546771E-02  0.1258073E+00
          1   -1    0    0  505    0 -0.00000000000E+00  0.00000000000E+00  0.12053170429E+04  0.12053170429E+04  0.00000000000E+00 0. -1.
         21   -1    0    0  503  502  0.00000000000E+00 -0.00000000000E+00 -0.40315784948E+02  0.40315784948E+02  0.00000000000E+00 0.  1.
         21    1    1    2  503  504 -0.10836410868E+02  0.58621374490E+02  0.21402878947E+02  0.63340165573E+02  0.00000000000E+00 0. -1.
         21    1    1    2  504  501  0.20724822812E+02  0.44943480696E+02  0.41576072739E+02  0.64637485734E+02  0.00000000000E+00 0.  1.
         21    1    1    2  505  502 -0.50691683727E+02  0.31273868287E+01  0.14100059048E+03  0.14986858865E+03  0.00000000000E+00 0.  1.
          1    1    1    2  501    0  0.40803271783E+02 -0.10669224201E+03  0.96102171583E+03  0.96778658794E+03  0.00000000000E+00 0. -1.
<scales pt_clust_3="36.31450" pt_clust_4="36.31450" pt_clust_5="50.78806" pt_clust_6="103.98286"></scales>
<clustering>
<clus scale="   36.314">  3  4 -1 -1</clus>
<clus scale="   50.788">  1  5  2 -1</clus>
<clus scale="  103.983">  1  6  2 -1</clus>
<clus scale="  111.359">  2  3  1 -1</clus>
</clustering>
</event>
<event>
 6    0  0.1849053E+002  0.1033245E+03  0.7546771E-02  0.1273456E+00
         21   -1    0    0  503  502  0.00000000000E+00  0.00000000000E+00  0.98552472903E+02  0.98552472903E+02  0.00000000000E+00 0. -1.
          2   -1    0    0  504    0 -0.00000000000E+00 -0.00000000000E+00 -0.74414404361E+03  0.74414404361E+03  0.00000000000E+00 0. -1.
         21    1    1    2  503  505 -0.15637255665E+02 -0.73470417759E+02  0.45098221859E+02  0.87614357643E+02  0.00000000000E+00 0. -1.
         21    1    1    2  504  502 -0.38618399059E+02 -0.21923154615E+02 -0.28837102401E+01  0.44500800430E+02  0.00000000000E+00 0. -1.
         21    1    1    2  505  501  0.82292598568E+02  0.73893320843E+02 -0.27707534085E+03  0.29833377139E+03  0.00000000000E+00 0. -1.
          2    1    1    2  501    0 -0.28036943844E+02  0.21500251531E+02 -0.41073074148E+03  0.41224758705E+03  0.00000000000E+00 0. -1.
<scales pt_clust_3="14000.00000" pt_clust_4="45.44696" pt_clust_5="103.32454" pt_clust_6="35.33173"></scales>
<clustering>
<clus scale="   35.332">  2  6  1 -1</clus>
<clus scale="   45.447">  1  4  2 -1</clus>
<clus scale="  103.325">  2  5  1 -1</clus>
<clus scale="   45.447">  1  3  2 -1</clus>
</clustering>
</event>
<event>
 6    0  0.1849053E+002  0.1243055E+03  0.7546771E-02  0.1236159E+00
          2   -1    0    0  504    0 -0.00000000000E+00  0.00000000000E+00  0.35500793859E+04  0.35500793859E+04  0.00000000000E+00 0.  1.
         21   -1    0    0  505  502  0.00000000000E+00 -0.00000000000E+00 -0.33499624291E+02  0.33499624291E+02  0.00000000000E+00 0. -1.
         21    1    1    2  503  501  0.67226110489E+02 -0.23703204409E+02  0.14191761647E+04  0.14209652277E+04  0.00000000000E+00 0.  1.
         21    1    1    2  504  502 -0.90964680111E+02  0.81046682047E+02  0.17203491644E+03  0.21080595384E+03  0.00000000000E+00 0. -1.
         21    1    1    2  505  503 -0.22606755525E+02 -0.54487253365E+02  0.54344435953E+02  0.80207505220E+02  0.00000000000E+00 0. -1.
          2    1    1    2  501    0  0.46345325147E+02 -0.28562242739E+01  0.18710242445E+04  0.18716003235E+04  0.00000000000E+00 0.  1.
<scales pt_clust_3="35.77979" pt_clust_4="116.13161" pt_clust_5="58.99090" pt_clust_6="35.77979"></scales>
<clustering>
<clus scale="   35.780">  3  6 -1 -1</clus>
<clus scale="   58.991">  2  5  1 -1</clus>
<clus scale="  116.132">  2  4  1 -1</clus>
<clus scale="   58.991">  2  3  1 -1</clus>
</clustering>
</event>
<event>
 6    0  0.1849053E+002  0.9833199E+02  0.7546771E-02  0.1283843E+00
          2   -1    0    0  505    0 -0.00000000000E+00  0.00000000000E+00  0.38114066327E+04  0.38114066327E+04  0.00000000000E+00 0.  1.
         21   -1    0    0  503  502  0.00000000000E+00 -0.00000000000E+00 -0.58555160829E+03  0.58555160829E+03  0.00000000000E+00 0. -1.
         21    1    1    2  503  504  0.41857799265E+02  0.78993988215E+00 -0.65646861945E+02  0.77860194243E+02  0.00000000000E+00 0. -1.
         21    1    1    2  504  501  0.86553705573E+02 -0.65760239665E+02 -0.49833674721E+03  0.51005437621E+03  0.00000000000E+00 0. -1.
         21    1    1    2  505  502 -0.47430667403E+02  0.92146077609E+01  0.56217229198E+02  0.74127957379E+02  0.00000000000E+00 0. -1.
          2    1    1    2  501    0 -0.80980837435E+02  0.55755692022E+02  0.37336214043E+04  0.37349157131E+04  0.00000000000E+00 0.  1.
<scales pt_clust_3="41.86525" pt_clust_4="14000.00000" pt_clust_5="47.60415" pt_clust_6="98.33199"></scales>
<clustering>
<clus scale="   41.865">  2  3  1 -1</clus>
<clus scale="   47.604">  2  5  1 -1</clus>
<clus scale="   98.332">  1  6  2 -1</clus>
<clus scale="   41.865">  2  3  1 -1</clus>
</clustering>
</event>
<event>
 6    0  0.1849053E+002  0.1068342E+03  0.7546771E-02  0.1266547E+00
         -3   -1    0    0    0  501 -0.00000000000E+00  0.00000000000E+00  0.54898585125E+03  0.54898585125E+03  0.00000000000E+00 0.  1.
         21   -1    0    0  501  502  0.00000000000E+00 -0.00000000000E+00 -0.36995380672E+03  0.36995380672E+03  0.00000000000E+00 0. -1.
         21    1    1    2  503  502 -0.41519668191E+02  0.41186756230E+02 -0.24591749935E+03  0.25277588537E+03  0.00000000000E+00 0. -1.
         21    1    1    2  504  503 -0.15433954892E+02  0.36807378188E+02 -0.78522950141E+02  0.88084299120E+02  0.00000000000E+00 0. -1.
         21    1    1    2  505  504  0.12006763103E+03 -0.10617747718E+03  0.15552765920E+03  0.22333549978E+03  0.00000000000E+00 0. -1.
         -3    1    1    2    0  505 -0.63114007948E+02  0.28183342765E+02  0.34794483481E+03  0.35474397371E+03  0.00000000000E+00 0.  1.
<scales pt_clust_3="33.01621" pt_clust_4="33.01621" pt_clust_5="99.07721" pt_clust_6="69.12076"></scales>
<clustering>
<clus scale="   33.016">  3  4 -1 -1</clus>
<clus scale="   69.121">  1  6  2 -1</clus>
<clus scale="   99.077">  1  5  2 -1</clus>
<clus scale="  106.834">  2  3  1 -1</clus>
</clustering>
</event>
<event>
 6    0  0.1849053E+002  0.7830346E+02  0.7546771E-02  0.1333936E+00
         21   -1    0    0  503  502  0.00000000000E+00  0.00000000000E+00  0.92939149224E+03  0.92939149224E+03  0.00000000000E+00 0. -1.
          2   -1    0    0  505    0 -0.00000000000E+00 -0.00000000000E+00 -0.18987513243E+03  0.18987513243E+03  0.00000000000E+00 0.  1.
         21    1    1    2  503  501  0.42411863861E+02  0.72873210548E+02  0.39865659219E+03  0.40747558148E+03  0.00000000000E+00 0. -1.
         21    1    1    2  504  502  0.18213218351E+02 -0.25258492309E+02  0.48011169293E+03  0.48112051551E+03  0.00000000000E+00 0. -1.
         21    1    1    2  505  504  0.19875995708E+01  0.52151479661E+02 -0.55468279218E+01  0.52483280031E+02  0.00000000000E+00 0.  1.
          2    1    1    2  501    0 -0.62612681783E+02 -0.99766197899E+02 -0.13370509738E+03  0.17818724766E+03  0.00000000000E+00 0.  1.
<scales pt_clust_3="14000.00000" pt_clust_4="31.14021" pt_clust_5="50.91557" pt_clust_6="78.30346"></scales>
<clustering>
<clus scale="   31.140">  1  4  2 -1</clus>
<clus scale="   50.916">  2  5  1 -1</clus>
<clus scale="   78.303">  2  6  1 -1</clus>
<clus scale="   31.140">  1  3  2 -1</clus>
</clustering>
</event>
<event>
 6    0  0.1849053E+002  0.1690783E+03  0.7546771E-02  0.1178812E+00
         -1   -1    0    0    0  501 -0.00000000000E+00  0.00000000000E+00  0.29050463281E+02  0.29050463281E+02  0.00000000000E+00 0.  1.
         21   -1    0    0  501  502  0.00000000000E+00 -0.00000000000E+00 -0.21151054003E+04  0.21151054003E+04  0.00000000000E+00 0.  1.
         21    1    1    2  503  504  0.42539825619E+02  0.14177877778E+02 -0.80985683905E+02  0.92570675592E+02  0.00000000000E+00 0.  1.
         21    1    1    2  504  505 -0.15393629884E+03  0.39448462583E+01 -0.15502233510E+04  0.15578524910E+04  0.00000000000E+00 0.  1.
         21    1    1    2  505  502 -0.38024858663E+01  0.31753591171E+02 -0.25993562553E+03  0.26189554954E+03  0.00000000000E+00 0.  1.
         -1    1    1    2    0  503  0.11519895909E+03 -0.49876315206E+02 -0.19491027662E+03  0.23183714742E+03  0.00000000000E+00 0.  1.
<scales pt_clust_3="32.90512" pt_clust_4="160.06724" pt_clust_5="31.98045" pt_clust_6="32.90512"></scales>
<clustering>
<clus scale="   31.980">  2  5  1 -1</clus>
<clus scale="   32.905">  3  6 -1 -1</clus>
<clus scale="  160.067">  2  4  1 -1</clus>
<clus scale="   31.980">  2  3  1 -1</clus>
</clustering>
</event>
<event>
 6    0  0.1849053E+002  0.9632070E+02  0.7546771E-02  0.1288229E+00
         21   -1    0    0  503  502  0.00000000000E+00  0.00000000000E+00  0.14306129312E+03  0.14306129312E+03  0.00000000000E+00 0.  1.
          2   -1    0    0  505    0 -0.00000000000E+00 -0.00000000000E+00 -0.94035400068E+03  0.94035400068E+03  0.00000000000E+00 0.  1.
         21    1    1    2  503  501 -0.13947750032E+02 -0.11686440498E+03 -0.24640325287E+02  0.12024547606E+03  0.00000000000E+00 0. -1.
         21    1    1    2  504  502 -0.24655106283E+02  0.88004648250E+02  0.64284228377E+02  0.11173698760E+03  0.00000000000E+00 0.  1.
         21    1    1    2  505  504 -0.48386452405E+02 -0.18434198356E+02 -0.18858679912E+03  0.19556597160E+03  0.00000000000E+00 0. -1.
          2    1    1    2  501    0  0.86989308720E+02  0.47293955089E+02 -0.64834981153E+03  0.65586685854E+03  0.00000000000E+00 0.  1.
<scales pt_clust_3="96.32070" pt_clust_4="14000.00000" pt_clust_5="51.77903" pt_clust_6="54.62797"></scales>
<clustering>
<clus scale="   51.779">  2  5  1 -1</clus>
<clus scale="   54.628">  2  6  1 -1</clus>
<clus scale="   96.321">  2  3  1 -1</clus>
<clus scale="   96.321">  1  3  2 -1</clus>
</clustering>
</event>
<event>
 6    0  0.1849053E+002  0.1521239E+03  0.7546771E-02  0.1197887E+00
         21   -1    0    0  503  502  0.00000000000E+00  0.00000000000E+00  0.64246649749E+03  0.64246649749E+03  0.00000000000E+00 0.  1.
          2   -1    0    0  504    0 -0.00000000000E+00 -0.00000000000E+00 -0.12624608188E+04  0.12624608188E+04  0.00000000000E+00 0.  1.
         21    1    1    2  503  501 -0.92896848635E+02 -0.24253029295E+02  0.57295106702E+03  0.58093972072E+03  0.00000000000E+00 0.  1.
         21    1    1    2  504  505  0.27491988026E+02  0.66194159557E+02 -0.40317561878E+03  0.40949732080E+03  0.00000000000E+00 0.  1.
         21    1    1    2  505  502 -0.60051146917E+02  0.55319398255E+01  0.41024697089E+02  0.72936742288E+02  0.00000000000E+00 0. -1.
          2    1    1    2  501    0  0.12545600753E+03 -0.47473070088E+02 -0.83079446662E+03  0.84155353244E+03  0.00000000000E+00 0.  1.
<scales pt_clust_3="152.12385" pt_clust_4="71.58010" pt_clust_5="60.30541" pt_clust_6="14000.00000"></scales>
<clustering>
<clus scale="   60.305">  1  5  2 -1</clus>
<clus scale="   71.580">  2  4  1 -1</clus>
<clus scale="  152.124">  1  3  2 -1</clus>
<clus scale="   60.305">  1  3  2 -1</clus>
</clustering>
</event>
<event>
 6    0  0.9566474E+002  0.1044980E+03  0.7546771E-02  0.1271112E+00
          1   -1    0    0  504    0 -0.00000000000E+00  0.00000000000E+00  0.33684445945E+04  0.33684445945E+04  0.00000000000E+00 0. -1.
         21   -1    0    0  505  502  0.00000000000E+00 -0.00000000000E+00 -0.15668749793E+04  0.15668749793E+04  0.00000000000E+00 0.  1.
         21    1    1    2  503  501  0.55082852782E+02  0.18937860046E+02  0.11867078639E+03  0.13219500276E+03  0.00000000000E+00 0.  1.
         21    1    1    2  504  502  0.25321072941E+02 -0.18517958336E+02 -0.24648146771E+02  0.39894895100E+02  0.00000000000E+00 0.  1.
         21    1    1    2  505  503  0.19671937385E+02  0.47764950842E+02 -0.15264510247E+04  0.15273248529E+04  0.00000000000E+00 0.  1.
          1    1    1    2  501    0 -0.10007586311E+03 -0.48184852552E+02  0.32339980002E+04  0.32359048231E+04  0.00000000000E+00 0. -1.
<scales pt_clust_3="104.49803" pt_clust_4="31.36991" pt_clust_5="53.60758" pt_clust_6="14000.00000"></scales>
<clustering>
<clus scale="   31.370">  2  4  1 -1</clus>
<clus scale="   53.608">  2  5  1 -1</clus>
<clus scale="  104.498">  2  3  1 -1</clus>
<clus scale="   31.370">  2  3  1 -1</clus>
</clustering>
</event>
<event>
 6    0  0.1849053E+002  0.1500273E+03  0.7546771E-02  0.1200439E+00
         21   -1    0    0  504  502  0.00000000000E+00  0.00000000000E+00  0.10551933633E+03  0.10551933633E+03  0.00000000000E+00 0. -1.
          2   -1    0    0  502    0 -0.00000000000E+00 -0.00000000000E+00 -0.10720543370E+04  0.10720543370E+04  0.00000000000E+00 0.  1.
         21    1    1    2  503  501 -0.42213789929E+02 -0.29778597119E+01 -0.14524216488E+03  0.15128171789E+03  0.00000000000E+00 0. -1.
         21    1    1    2  504  505  0.40688221416E+02 -0.19131719158E+02 -0.34319534147E+02  0.56563101612E+02  0.00000000000E+00 0. -1.
         21    1    1    2  505  503  0.98832671621E+02  0.17412682435E+02  0.60164388728E+02  0.11700791495E+03  0.00000000000E+00 0. -1.
          2    1    1    2  501    0 -0.97307103109E+02  0.46968964345E+01 -0.84713769035E+03  0.85272093885E+03  0.00000000000E+00 0.  1.
<scales pt_clust_3="40.27715" pt_clust_4="44.96170" pt_clust_5="137.01707" pt_clust_6="40.27715"></scales>
<clustering>
<clus scale="   40.277">  3  6 -1 -1</clus>
<clus scale="   44.962">  1  4  2 -1</clus>
<clus scale="  137.017">  1  5  2 -1</clus>
<clus scale="   44.962">  1  3  2 -1</clus>
</clustering>
</event>
<event>
 6    0  0.1849053E+002  0.1038123E+03  0.7546771E-02  0.1272478E+00
          3   -1    0    0  504    0 -0.00000000000E+00  0.00000000000E+00  0.19180014234E+03  0.19180014234E+03  0.00000000000E+00 0.  1.
         21   -1    0    0  505  502  0.00000000000E+00 -0.00000000000E+00 -0.13850101030E+03  0.13850101030E+03  0.00000000000E+00 0.  1.
         21    1    1    2  503  502  0.57628938168E+02  0.17839304700E+02  0.35377692421E+02  0.69935087242E+02  0.00000000000E+00 0.  1.
         21    1    1    2  504  503  0.66506871032E+02 -0.12154137499E+02  0.70424869089E+02  0.97624531440E+02  0.00000000000E+00 0.  1.
         21    1    1    2  505  501 -0.58836575854E+02  0.25171640654E+02 -0.62950536826E+02  0.89767055416E+02  0.00000000000E+00 0.  1.
          3    1    1    2  501    0 -0.65299233346E+02 -0.30856807855E+02  0.10447107348E+02  0.72974478542E+02  0.00000000000E+00 0.  1.
<scales pt_clust_3="35.84596" pt_clust_4="35.84596" pt_clust_5="63.99495" pt_clust_6="96.62798"></scales>
<clustering>
<clus scale="   35.846">  3  4 -1 -1</clus>
<clus scale="   63.995">  2  5  1 -1</clus>
<clus scale="   96.628">  2  6  1 -1</clus>
<clus scale="   63.995">  2  3  1 -1</clus>
</clustering>
</event>
<event>
 6    0  0.1849053E+002  0.1599672E+03  0.7546771E-02  0.1188734E+00
         21   -1    0    0  505  502  0.00000000000E+00  0.00000000000E+00  0.14591829267E+02  0.14591829267E+02  0.00000000000E+00 0.  1.
          2   -1    0    0  504    0 -0.00000000000E+00 -0.00000000000E+00 -0.26573651364E+04  0.26573651364E+04  0.00000000000E+00 0.  1.
         21    1    1    2  503  502 -0.64679666310E+02  0.65323174224E+02 -0.34284299110E+03  0.35495336718E+03  0.00000000000E+00 0.  1.
         21    1    1    2  504  503 -0.66789413997E+02  0.55971418641E+01 -0.19678697506E+03  0.20788763160E+03  0.00000000000E+00 0.  1.
         21    1    1    2  505  501  0.65899484507E+02 -0.57059913931E+02 -0.93608656267E+03  0.94013649469E+03  0.00000000000E+00 0. -1.
          2    1    1    2  501    0  0.65569595800E+02 -0.13860402157E+02 -0.11670567783E+04  0.11689794722E+04  0.00000000000E+00 0.  1.
<scales pt_clust_3="48.87005" pt_clust_4="48.87005" pt_clust_5="46.76411" pt_clust_6="158.61352"></scales>
<clustering>
<clus scale="   46.764">  5  6 -1 -1</clus>
<clus scale="   48.870">  3  4 -1 -1</clus>
<clus scale="  158.614">  2  5  1 -1</clus>
<clus scale="  159.967">  1  3  2 -1</clus>
</clustering>
</event>
<event>
 6    0  0.1849053E+002  0.2225666E+03  0.7546771E-02  0.1131984E+00
          2   -1    0    0  503    0 -0.00000000000E+00  0.00000000000E+00  0.30735878096E+03  0.30735878096E+03  0.00000000000E+00 0.  1.
         21   -1    0    0  505  502  0.00000000000E+00 -0.00000000000E+00 -0.63683311806E+03  0.63683311806E+03  0.00000000000E+00 0. -1.
         21    1    1    2  503  502 -0.13768472298E+03 -0.10825059273E+03 -0.46263815415E+03  0.49468104415E+03  0.00000000000E+00 0. -1.
         21    1    1    2  504  501  0.67784690534E+02  0.37234612185E+02  0.88207154185E+02  0.11731019847E+03  0.00000000000E+00 0. -1.
         21    1    1    2  505  504  0.47108591705E+02 -0.75609018077E+02 -0.93575978894E+02  0.12919909773E+03  0.00000000000E+00 0. -1.
          2    1    1    2  501    0  0.22791440743E+02  0.14662499862E+03  0.13853264175E+03  0.20300155867E+03  0.00000000000E+00 0.  1.
<scales pt_clust_3="200.88699" pt_clust_4="69.17177" pt_clust_5="89.08391" pt_clust_6="69.17177"></scales>
<clustering>
<clus scale="   69.172">  4  6 -1 -1</clus>
<clus scale="   89.084">  2  5  1 -1</clus>
<clus scale="  200.887">  2  3  1 -1</clus>
<clus scale="   89.084">  2  3  1 -1</clus>
</clustering>
</event>
<event>
 6    0  0.1849053E+002  0.1013917E+03  0.7546771E-02  0.1277396E+00
         -1   -1    0    0    0  501 -0.00000000000E+00  0.00000000000E+00  0.13953695528E+03  0.13953695528E+03  0.00000000000E+00 0.  1.
         21   -1    0    0  503  502  0.00000000000E+00 -0.00000000000E+00 -0.27142954963E+03  0.27142954963E+03  0.00000000000E+00 0. -1.
         21    1    1    2  503  505 -0.84388283866E+02  0.25005117603E+02  0.30199991634E+02  0.93052016931E+02  0.00000000000E+00 0. -1.
         21    1    1    2  504  502  0.10302266193E+03  0.30957149467E+02 -0.17894132427E+03  0.20878700032E+03  0.00000000000E+00 0. -1.
         21    1    1    2  505  501  0.32848873057E+02 -0.35492950264E+01 -0.25578645791E+01  0.33138929185E+02  0.00000000000E+00 0.  1.
         -1    1    1    2    0  504 -0.51483251117E+02 -0.52412972044E+02  0.19406602860E+02  0.75988558472E+02  0.00000000000E+00 0.  1.
<scales pt_clust_3="101.39168" pt_clust_4="14000.00000" pt_clust_5="33.04007" pt_clust_6="66.35433"></scales>
<clustering>
<clus scale="   33.040">  1  5  2 -1</clus>
<clus scale="   66.354">  1  6  2 -1</clus>
<clus scale="  101.392">  1  3  2 -1</clus>
<clus scale="  101.392">  2  3  1 -1</clus>
</clustering>
</event>
<event>
 6    0  0.1849053E+002  0.2394838E+03  0.7546771E-02  0.1120137E+00
         21   -1    0    0  505  502  0.00000000000E+00  0.00000000000E+00  0.89800499479E+03  0.89800499479E+03  0.00000000000E+00 0. -1.
         -2   -1    0    0    0  501 -0.00000000000E+00 -0.00000000000E+00 -0.32577371758E+03  0.32577371758E+03  0.00000000000E+00 0. -1.
         21    1    1    2  503  501 -0.26298261712E+02  0.22000916189E+03  0.24737522007E+03  0.33209957752E+03  0.00000000000E+00 0. -1.
         21    1    1    2  504  502 -0.32318681563E+02 -0.24117021589E+02  0.14571398810E+03  0.15119091982E+03  0.00000000000E+00 0. -1.
         21    1    1    2  505  503 -0.23958913611E+02  0.33345332279E+02  0.40570237139E+03  0.40777488260E+03  0.00000000000E+00 0. -1.
         -2    1    1    2    0  504  0.82575856885E+02 -0.22923747258E+03 -0.22656030235E+03  0.33271333243E+03  0.00000000000E+00 0. -1.
<scales pt_clust_3="14000.00000" pt_clust_4="40.32528" pt_clust_5="46.17742" pt_clust_6="239.48379"></scales>
<clustering>
<clus scale="   40.325">  1  4  2 -1</clus>
<clus scale="   46.177">  1  5  2 -1</clus>
<clus scale="  239.484">  2  6  1 -1</clus>
<clus scale="   40.325">  1  3  2 -1</clus>
</clustering>
</event>
<event>
 6    0  0.1849053E+002  0.8768935E+02  0.7546771E-02  0.1308546E+00
         -1   -1    0    0    0  501 -0.00000000000E+00  0.00000000000E+00  0.26620845257E+03  0.26620845257E+03  0.00000000000E+00 0. -1.
         21   -1    0    0  504  502  0.00000000000E+00 -0.00000000000E+00 -0.17468289819E+04  0.17468289819E+04  0.00000000000E+00 0.  1.
         21    1    1    2  503  501 -0.16579060193E+01 -0.36981246169E+02  0.35036650171E+02  0.50969874198E+02  0.00000000000E+00 0. -1.
         21    1    1    2  504  503  0.54372173425E+02 -0.64932343018E+02 -0.21044143988E+03  0.22684387149E+03  0.00000000000E+00 0. -1.
         21    1    1    2  505  502 -0.26984009281E+02 -0.17635972119E+02 -0.15026446352E+04  0.15029903739E+04  0.00000000000E+00 0.  1.
         -1    1    1    2    0  505 -0.25730258124E+02  0.11954956131E+03  0.19742889552E+03  0.23223331496E+03  0.00000000000E+00 0. -1.
<scales pt_clust_3="37.64275" pt_clust_4="87.68935" pt_clust_5="32.23607" pt_clust_6="14000.00000"></scales>
<clustering>
<clus scale="   32.236">  2  5  1 -1</clus>
<clus scale="   37.643">  1  3  2 -1</clus>
<clus scale="   87.689">  2  4  1 -1</clus>
<clus scale="   32.236">  2  3  1 -1</clus>
</clustering>
</event>
<event>
 6    0  0.1849053E+002  0.1138354E+03  0.7546771E-02  0.1253628E+00
         21   -1    0    0  504  502  0.00000000000E+00  0.00000000000E+00  0.50574263955E+03  0.50574263955E+03  0.00000000000E+00 0. -1.
          3   -1    0    0  505    0 -0.00000000000E+00 -0.00000000000E+00 -0.74837263084E+02  0.74837263084E+02  0.00000000000E+00 0. -1.
         21    1    1    2  503  501 -0.11085822012E+03 -0.41296502496E+02  0.31866929835E+03  0.33991920775E+03  0.00000000000E+00 0. -1.
         21    1    1    2  504  503 -0.69432270571E+01 -0.29619844028E+02  0.51987798213E+02  0.60235161868E+02  0.00000000000E+00 0. -1.
         21    1    1    2  505  502  0.76897855995E+02 -0.11140457197E+02  0.35700212761E+02  0.85509620713E+02  0.00000000000E+00 0. -1.
          3    1    1    2  501    0  0.40903591180E+02  0.82056803721E+02  0.24548067142E+02  0.94915912305E+02  0.00000000000E+00 0. -1.
<scales pt_clust_3="113.83544" pt_clust_4="30.42275" pt_clust_5="77.45468" pt_clust_6="14000.00000"></scales>
<clustering>
<clus scale="   30.423">  1  4  2 -1</clus>
<clus scale="   77.455">  2  5  1 -1</clus>
<clus scale="  113.835">  1  3  2 -1</clus>
<clus scale="   30.423">  1  3  2 -1</clus>
</clustering>
</event>
<event>
 6    0  0.1849053E+002  0.2596865E+03  0.7546771E-02  0.1107332E+00
         21   -1    0    0  504  502  0.00000000000E+00  0.00000000000E+00  0.50844245586E+03  0.50844245586E+03  0.00000000000E+00 0. -1.
          2   -1    0    0  505    0 -0.00000000000E+00 -0.00000000000E+00 -0.79201179594E+03  0.79201179594E+03  0.00000000000E+00 0. -1.
         21    1    1    2  503  501 -0.11133904307E+03  0.17800996480E+03 -0.35660883499E+03  0.41382821469E+03  0.00000000000E+00 0. -1.
         21    1    1    2  504  503 -0.54764265622E+02  0.85102614888E+02  0.14208392350E+02  0.10219323981E+03  0.00000000000E+00 0. -1.
         21    1    1    2  505  502  0.22242053594E+03 -0.28657825745E+03  0.33971742421E+03  0.49699690217E+03  0.00000000000E+00 0. -1.
          2    1    1    2  501    0 -0.56317227245E+02  0.23465677763E+02 -0.28088632166E+03  0.28743589513E+03  0.00000000000E+00 0. -1.
<scales pt_clust_3="14000.00000" pt_clust_4="105.59271" pt_clust_5="259.68654" pt_clust_6="61.01039"></scales>
<clustering>
<clus scale="   61.010">  2  6  1 -1</clus>
<clus scale="  105.593">  1  4  2 -1</clus>
<clus scale="  259.687">  1  5  2 -1</clus>
<clus scale="  105.593">  1  3  2 -1</clus>
</clustering>
</event>
<event>
 6    0  0.1849053E+002  0.1254926E+03  0.7546771E-02  0.1234301E+00
          1   -1    0    0  504    0 -0.00000000000E+00  0.00000000000E+00  0.14542626106E+04  0.14542626106E+04  0.00000000000E+00 0. -1.
         21   -1    0    0  503  502  0.00000000000E+00 -0.00000000000E+00 -0.44047956770E+02  0.44047956770E+02  0.00000000000E+00 0. -1.
         21    1    1    2  503  501  0.17413729192E+02 -0.29319185207E+02  0.50158194556E+02  0.60652263492E+02  0.00000000000E+00 0. -1.
         21    1    1    2  504  505  0.50065739207E+02  0.61627975837E+01  0.26433083734E+03  0.26910100313E+03  0.00000000000E+00 0.  1.
         21    1    1    2  505  502 -0.85698199314E+02 -0.83911863684E+02  0.73691310370E+02  0.14076857411E+03  0.00000000000E+00 0. -1.
          1    1    1    2  501    0  0.18218730915E+02  0.10706825131E+03  0.10220343116E+04  0.10277887266E+04  0.00000000000E+00 0. -1.
<scales pt_clust_3="34.10062" pt_clust_4="51.32174" pt_clust_5="14000.00000" pt_clust_6="125.49264"></scales>
<clustering>
<clus scale="   34.101">  2  3  1 -1</clus>
<clus scale="   51.322">  1  4  2 -1</clus>
<clus scale="  125.493">  1  6  2 -1</clus>
<clus scale="   34.101">  2  3  1 -1</clus>
</clustering>
</event>
<event>
 6    0  0.1849053E+002  0.9548682E+02  0.7546771E-02  0.1290083E+00
          2   -1    0    0  504    0 -0.00000000000E+00  0.00000000000E+00  0.66864065901E+03  0.66864065901E+03  0.00000000000E+00 0.  1.
         21   -1    0    0  503  502  0.00000000000E+00 -0.00000000000E+00 -0.11052570315E+03  0.11052570315E+03  0.00000000000E+00 0.  1.
         21    1    1    2  503  501 -0.51574029612E+02  0.12651655364E+03 -0.41981314807E+02  0.14292917710E+03  0.00000000000E+00 0.  1.
         21    1    1    2  504  505  0.36342307181E+02 -0.44917638852E+02  0.17682927311E+03  0.18602943155E+03  0.00000000000E+00 0.  1.
         21    1    1    2  505  502 -0.61922297609E+01 -0.38544119355E+02  0.19592973559E+02  0.43679256623E+02  0.00000000000E+00 0.  1.
          2    1    1    2  501    0  0.21423952192E+02 -0.43054795428E+02  0.40367402399E+03  0.40652849689E+03  0.00000000000E+00 0.  1.
<scales pt_clust_3="95.48682" pt_clust_4="14000.00000" pt_clust_5="39.03835" pt_clust_6="48.55179"></scales>
<clustering>
<clus scale="   39.038">  2  5  1 -1</clus>
<clus scale="   48.552">  1  6  2 -1</clus>
<clus scale="   95.487">  2  3  1 -1</clus>
<clus scale="   39.038">  2  3  1 -1</clus>
</clustering>
</event>
<event>
 6    0  0.1849053E+002  0.1485823E+03  0.7546771E-02  0.1202226E+00
         21   -1    0    0  504  502  0.00000000000E+00  0.00000000000E+00  0.93444889196E+02  0.93444889196E+02  0.00000000000E+00 0.  1.
          1   -1    0    0  503    0 -0.00000000000E+00 -0.00000000000E+00 -0.74854582077E+03  0.74854582077E+03  0.00000000000E+00 0.  1.
         21    1    1    2  503  502  0.80008276313E+02 -0.11850904362E+03 -0.13017193723E+03  0.19336610597E+03  0.00000000000E+00 0.  1.
         21    1    1    2  504  505 -0.47278152051E+02 -0.14497692996E+02  0.40526296509E+02  0.63935807435E+02  0.00000000000E+00 0.  1.
         21    1    1    2  505  501 -0.32949129957E+02  0.26659699652E+02 -0.16004548911E+03  0.16556250583E+03  0.00000000000E+00 0.  1.
          1    1    1    2  501    0  0.21900569540E+00  0.10634703696E+03 -0.40540980174E+03  0.41912629073E+03  0.00000000000E+00 0.  1.
<scales pt_clust_3="136.81175" pt_clust_4="49.45105" pt_clust_5="36.58961" pt_clust_6="36.58961"></scales>
<clustering>
<clus scale="   36.590">  5  6 -1 -1</clus>
<clus scale="   49.451">  1  4  2 -1</clus>
<clus scale="  136.812">  1  3  2 -1</clus>
<clus scale="   49.451">  1  3  2 -1</clus>
</clustering>
</event>
<event>
 6    0  0.1849053E+002  0.1600702E+03  0.7546771E-02  0.1188618E+00
         21   -1    0    0  504  502  0.00000000000E+00  0.00000000000E+00  0.91903002265E+02  0.91903002265E+02  0.00000000000E+00 0.  1.
          1   -1    0    0  503    0 -0.00000000000E+00 -0.00000000000E+00 -0.25146542330E+04  0.25146542330E+04  0.00000000000E+00 0.  1.
         21    1    1    2  503  502  0.61313187596E+02  0.18029890753E+02 -0.32980101905E+03  0.33593614885E+03  0.00000000000E+00 0.  1.
         21    1    1    2  504  505  0.18868844867E+02 -0.51349491764E+02 -0.28471681699E+02  0.61672037990E+02  0.00000000000E+00 0. -1.
         21    1    1    2  505  501 -0.16521809135E+03 -0.24009449104E+02 -0.27276241402E+02  0.16916697284E+03  0.00000000000E+00 0.  1.
          1    1    1    2  501    0  0.85036058882E+02  0.57329050114E+02 -0.20372022886E+04  0.20397820756E+04  0.00000000000E+00 0.  1.
<scales pt_clust_3="64.09506" pt_clust_4="54.70652" pt_clust_5="160.07021" pt_clust_6="14000.00000"></scales>
<clustering>
<clus scale="   54.707">  1  4  2 -1</clus>
<clus scale="   64.095">  2  3  1 -1</clus>
<clus scale="  160.070">  1  5  2 -1</clus>
<clus scale="   54.707">  1  3  2 -1</clus>
</clustering>
</event>
<event>
 6    0  0.1849053E+002  0.9454328E+02  0.7546771E-02  0.1292208E+00
          2   -1    0    0  503    0 -0.00000000000E+00  0.00000000000E+00  0.15101501138E+04  0.15101501138E+04  0.00000000000E+00 0.  1.
         21   -1    0    0  504  502  0.00000000000E+00 -0.00000000000E+00 -0.70166115984E+02  0.70166115984E+02  0.00000000000E+00 0. -1.
         21    1    1    2  503  505 -0.16526305824E+02 -0.39497027027E+02  0.14375926508E+03  0.14999953408E+03  0.00000000000E+00 0. -1.
         21    1    1    2  504  501  0.65215341504E+02  0.14747949101E+03  0.75245793319E+02  0.17794710014E+03  0.00000000000E+00 0. -1.
         21    1    1    2  505  502 -0.35461677448E+02 -0.57451643999E+02  0.60319541789E+02  0.90535457625E+02  0.00000000000E+00 0. -1.
          2    1    1    2  501    0 -0.13227358231E+02 -0.50530819986E+02  0.11606593976E+04  0.11618341379E+04  0.00000000000E+00 0.  1.
<scales pt_clust_3="42.81511" pt_clust_4="14000.00000" pt_clust_5="69.85544" pt_clust_6="94.54328"></scales>
<clustering>
<clus scale="   42.815">  1  3  2 -1</clus>
<clus scale="   69.855">  2  5  1 -1</clus>
<clus scale="   94.543">  1  6  2 -1</clus>
<clus scale="   69.855">  2  3  1 -1</clus>
</clustering>
</event>
<event>
 6    0  0.1849053E+002  0.1326118E+03  0.7546771E-02  0.1223631E+00
         21   -1    0    0  505  502  0.00000000000E+00  0.00000000000E+00  0.28478817214E+03  0.28478817214E+03  0.00000000000E+00 0. -1.
          2   -1    0    0  504    0 -0.00000000000E+00 -0.00000000000E+00 -0.96569634279E+03  0.96569634279E+03  0.00000000000E+00 0.  1.
         21    1    1    2  503  502  0.93500187186E+02 -0.95528516840E+02  0.11726218630E+03  0.17781564293E+03  0.00000000000E+00 0. -1.
         21    1    1    2  504  503 -0.72077558322E+02  0.18075012449E+02 -0.75709722337E+02  0.10608412956E+03  0.00000000000E+00 0. -1.
         21    1    1    2  505  501  0.50103674495E+02  0.12174951733E+03  0.83723709405E+02  0.15602237879E+03  0.00000000000E+00 0. -1.
          2    1    1    2  501    0 -0.71526303358E+02 -0.44296012936E+02 -0.80618434402E+03  0.81056236365E+03  0.00000000000E+00 0.  1.
<scales pt_clust_3="14000.00000" pt_clust_4="74.30936" pt_clust_5="131.24847" pt_clust_6="132.61184"></scales>
<clustering>
<clus scale="   74.309">  2  4  1 -1</clus>
<clus scale="  131.248">  1  5  2 -1</clus>
<clus scale="  132.612">  2  6  1 -1</clus>
<clus scale="  131.248">  1  3  2 -1</clus>
</clustering>
</event>
<event>
 6    0  0.1849053E+002  0.9849985E+02  0.7546771E-02  0.1283483E+00
         21   -1    0    0  505  502  0.00000000000E+00  0.00000000000E+00  0.31189658528E+03  0.31189658528E+03  0.00000000000E+00 0. -1.
          2   -1    0    0  503    0 -0.00000000000E+00 -0.00000000000E+00 -0.48387083914E+03  0.48387083914E+03  0.00000000000E+00 0.  1.
         21    1    1    2  503  504  0.37411367527E+02  0.16076489489E+02 -0.15620117452E+02  0.43612521181E+02  0.00000000000E+00 0.  1.
         21    1    1    2  504  502  0.45085012186E+02  0.48246863021E+02  0.25962671633E+03  0.26789260898E+03  0.00000000000E+00 0. -1.
         21    1    1    2  505  501 -0.12606172739E+02  0.45888363229E+02  0.72998466294E+00  0.47594015891E+02  0.00000000000E+00 0. -1.
          2    1    1    2  501    0 -0.69890206974E+02 -0.11021171574E+03 -0.41671083741E+03  0.43666827836E+03  0.00000000000E+00 0.  1.
<scales pt_clust_3="40.71933" pt_clust_4="98.49985" pt_clust_5="47.92205" pt_clust_6="14000.00000"></scales>
<clustering>
<clus scale="   40.719">  2  3  1 -1</clus>
<clus scale="   47.922">  1  5  2 -1</clus>
<clus scale="   98.500">  1  4  2 -1</clus>
<clus scale="   47.922">  1  3  2 -1</clus>
</clustering>
</event>
<event>
 6    0  0.1849053E+002  0.1091643E+03  0.7546771E-02  0.1262125E+00
          3   -1    0    0  505    0 -0.00000000000E+00  0.00000000000E+00  0.47120105460E+02  0.47120105460E+02  0.00000000000E+00 0. -1.
         21   -1    0    0  504  502  0.00000000000E+00 -0.00000000000E+00 -0.11647348999E+04  0.11647348999E+04  0.00000000000E+00 0.  1.
         21    1    1    2  503  502  0.16163540746E+02 -0.31104268815E+02 -0.52192966134E+03  0.52310544537E+03  0.00000000000E+00 0.  1.
         21    1    1    2  504  501 -0.74966900744E+02 -0.89118337747E+01 -0.21643419828E+03  0.22922307731E+03  0.00000000000E+00 0.  1.
         21    1    1    2  505  503 -0.78275959468E+01 -0.43729888916E+02 -0.34399199125E+03  0.34684876313E+03  0.00000000000E+00 0.  1.
          3    1    1    2  501    0  0.66630955945E+02  0.83745991506E+02 -0.35258943592E+02  0.11267771957E+03  0.00000000000E+00 0. -1.
<scales pt_clust_3="32.39953" pt_clust_4="75.49475" pt_clust_5="32.39953" pt_clust_6="102.89056"></scales>
<clustering>
<clus scale="   32.400">  3  5 -1 -1</clus>
<clus scale="   75.495">  2  4  1 -1</clus>
<clus scale="  102.891">  1  6  2 -1</clus>
<clus scale="   75.495">  2  3  1 -1</clus>
</clustering>
</event>
<event>
 6    0  0.1849053E+002  0.1384018E+03  0.7546771E-02  0.1215496E+00
         21   -1    0    0  505  502  0.00000000000E+00  0.00000000000E+00  0.49865620704E+03  0.49865620704E+03  0.00000000000E+00 0.  1.
          2   -1    0    0  503    0 -0.00000000000E+00 -0.00000000000E+00 -0.60069660102E+03  0.60069660102E+03  0.00000000000E+00 0. -1.
         21    1    1    2  503  504  0.30360114819E+02 -0.82817589919E+02 -0.14449651493E+03  0.16929185627E+03  0.00000000000E+00 0.  1.
         21    1    1    2  504  502 -0.72877923928E+02  0.18814894570E+02  0.42517873366E+03  0.43178947139E+03  0.00000000000E+00 0.  1.
         21    1    1    2  505  501 -0.64584933394E+02  0.30792694875E+02  0.24704704538E+02  0.75694954294E+02  0.00000000000E+00 0. -1.
          2    1    1    2  501    0  0.10710274250E+03  0.33210000474E+02 -0.40742731724E+03  0.42257652611E+03  0.00000000000E+00 0. -1.
<scales pt_clust_3="86.80431" pt_clust_4="138.40177" pt_clust_5="71.55001" pt_clust_6="14000.00000"></scales>
<clustering>
<clus scale="   71.550">  1  5  2 -1</clus>
<clus scale="   86.804">  2  3  1 -1</clus>
<clus scale="  138.402">  1  4  2 -1</clus>
<clus scale="   71.550">  1  3  2 -1</clus>
</clustering>
</event>
<event>
 6    0  0.1849053E+002  0.1486441E+03  0.7546771E-02  0.1202149E+00
         21   -1    0    0  505  502  0.00000000000E+00  0.00000000000E+00  0.39233908286E+02  0.39233908286E+02  0.00000000000E+00 0. -1.
          2   -1    0    0  503    0 -0.00000000000E+00 -0.00000000000E+00 -0.26217109052E+04  0.26217109052E+04  0.00000000000E+00 0. -1.
         21    1    1    2  503  504 -0.60470820503E+02  0.63907348015E+02 -0.72519471973E+02  0.11401729289E+03  0.00000000000E+00 0. -1.
         21    1    1    2  504  502 -0.54625714838E+02  0.12418167238E+02 -0.31998569294E+02  0.64514246767E+02  0.00000000000E+00 0. -1.
         21    1    1    2  505  501  0.53431510741E+02 -0.50028666692E+02 -0.87620756477E+03  0.87925962627E+03  0.00000000000E+00 0.  1.
          2    1    1    2  501    0  0.61665024599E+02 -0.26296848562E+02 -0.16017513908E+04  0.16031536475E+04  0.00000000000E+00 0. -1.
<scales pt_clust_3="144.73939" pt_clust_4="34.56755" pt_clust_5="52.61160" pt_clust_6="52.61160"></scales>
<clustering>
<clus scale="   34.568">  3  4 -1 -1</clus>
<clus scale="   52.612">  5  6 -1 -1</clus>
<clus scale="  144.739">  1  3  2 -1</clus>
<clus scale="  144.739">  1  3  2 -1</clus>
</clustering>
</event>
<event>
 6    0  0.1849053E+002  0.2044454E+03  0.7546771E-02  0.1146042E+00
         21   -1    0    0  505  502  0.00000000000E+00  0.00000000000E+00  0.47552545479E+03  0.47552545479E+03  0.00000000000E+00 0.  1.
          2   -1    0    0  504    0 -0.00000000000E+00 -0.00000000000E+00 -0.21209219256E+04  0.21209219256E+04  0.00000000000E+00 0. -1.
         21    1    1    2  503  501  0.73952133877E+02  0.13892310042E+03 -0.45403392919E+03  0.48053652805E+03  0.00000000000E+00 0.  1.
         21    1    1    2  504  502 -0.81929642758E+00  0.11248790369E+03  0.41801136757E+03  0.43288301323E+03  0.00000000000E+00 0.  1.
         21    1    1    2  505  503 -0.29452460173E+02 -0.16713614578E+02  0.17921917106E+02  0.38314324153E+02  0.00000000000E+00 0. -1.
          2    1    1    2  501    0 -0.43680377277E+02 -0.23469738953E+03 -0.16272958263E+04  0.16447135149E+04  0.00000000000E+00 0. -1.
<scales pt_clust_3="204.44542" pt_clust_4="100.80413" pt_clust_5="33.86432" pt_clust_6="14000.00000"></scales>
<clustering>
<clus scale="   33.864">  1  5  2 -1</clus>
<clus scale="  100.804">  1  4  2 -1</clus>
<clus scale="  204.445">  1  3  2 -1</clus>
<clus scale="   33.864">  1  3  2 -1</clus>
</clustering>
</event>
<event>
 6    0  0.1849053E+002  0.1851490E+03  0.7546771E-02  0.1162911E+00
         -2   -1    0    0    0  501 -0.00000000000E+00  0.00000000000E+00  0.12207552106E+04  0.12207552106E+04  0.00000000000E+00 0. -1.
         21   -1    0    0  503  502  0.00000000000E+00 -0.00000000000E+00 -0.57917896402E+02  0.57917896402E+02  0.00000000000E+00 0. -1.
         21    1    1    2  503  505  0.29404849422E+02 -0.14708353806E+03  0.19496050978E+03  0.24598335860E+03  0.00000000000E+00 0. -1.
         21    1    1    2  504  502 -0.73791976778E+02  0.11659695906E+03  0.39615695114E+03  0.41950022245E+03  0.00000000000E+00 0. -1.
         21    1    1    2  505  501  0.14005563169E+02 -0.50661208523E+02  0.22497176190E+02  0.57173742095E+02  0.00000000000E+00 0. -1.
         -2    1    1    2    0  504  0.30381564187E+02  0.81147787523E+02  0.54922267712E+03  0.55601578388E+03  0.00000000000E+00 0. -1.
<scales pt_clust_3="35.66042" pt_clust_4="175.07488" pt_clust_5="35.66042" pt_clust_6="86.64873"></scales>
<clustering>
<clus scale="   35.660">  3  5 -1 -1</clus>
<clus scale="   86.649">  1  6  2 -1</clus>
<clus scale="  175.075">  1  4  2 -1</clus>
<clus scale="  185.149">  2  3  1 -1</clus>
</clustering>
</event>
<event>
 6    0  0.1849053E+002  0.1717436E+03  0.7546771E-02  0.1176042E+00
          3   -1    0    0  502    0 -0.00000000000E+00  0.00000000000E+00  0.34915992868E+04  0.34915992868E+04  0.00000000000E+00 0. -1.
         21   -1    0    0  503  502  0.00000000000E+00 -0.00000000000E+00 -0.82301270429E+02  0.82301270429E+02  0.00000000000E+00 0.  1.
         21    1    1    2  503  505 -0.55034791787E+02 -0.12633815039E+03  0.19013102731E+03  0.23481900285E+03  0.00000000000E+00 0.  1.
         21    1    1    2  504  501 -0.11791443579E+03  0.22851740426E+02  0.77584313659E+03  0.78508508380E+03  0.00000000000E+00 0. -1.
         21    1    1    2  505  504  0.24425857483E+03  0.92418183550E+02  0.25674062038E+03  0.36622277125E+03  0.00000000000E+00 0.  1.
          3    1    1    2  501    0 -0.71309347254E+02  0.11068226414E+02  0.21865832320E+04  0.21877736993E+04  0.00000000000E+00 0. -1.
<scales pt_clust_3="141.24903" pt_clust_4="171.74360" pt_clust_5="14000.00000" pt_clust_6="72.16321"></scales>
<clustering>
<clus scale="   72.163">  1  6  2 -1</clus>
<clus scale="  141.249">  2  3  1 -1</clus>
<clus scale="  171.744">  1  4  2 -1</clus>
<clus scale="  141.249">  2  3  1 -1</clus>
</clustering>
</event>
<event>
 6    0  0.1849053E+002  0.1487864E+03  0.7546771E-02  0.1201972E+00
         21   -1    0    0  505  502  0.00000000000E+00  0.00000000000E+00  0.64457950817E+02  0.64457950817E+02  0.00000000000E+00 0.  1.
          2   -1    0    0  502    0 -0.00000000000E+00 -0.00000000000E+00 -0.25904234195E+04  0.25904234195E+04  0.00000000000E+00 0. -1.
         21    1    1    2  503  504 -0.24114681480E+02  0.82438276071E+02 -0.35004605199E+02  0.92751871192E+02  0.00000000000E+00 0.  1.
         21    1    1    2  504  501  0.13123648346E+02 -0.49057666306E+02 -0.12505897164E+04  0.12516203592E+04  0.00000000000E+00 0. -1.
         21    1    1    2  505  503  0.10376134784E+02  0.56811643542E+02  0.85102183107E+01  0.58375087415E+02  0.00000000000E+00 0.  1.
          2    1    1    2  501    0  0.61489834998E+00 -0.90192253308E+02 -0.12488813654E+04  0.12521340525E+04  0.00000000000E+00 0. -1.
<scales pt_clust_3="41.47276" pt_clust_4="32.28437" pt_clust_5="41.47276" pt_clust_6="146.39148"></scales>
<clustering>
<clus scale="   32.284">  4  6 -1 -1</clus>
<clus scale="   41.473">  3  5 -1 -1</clus>
<clus scale="  146.391">  2  4  1 -1</clus>
<clus scale="  148.786">  1  3  2 -1</clus>
</clustering>
</event>
<event>
 6    0  0.1849053E+002  0.1107014E+03  0.7546771E-02  0.1259277E+00
          1   -1    0    0  505    0 -0.00000000000E+00  0.00000000000E+00  0.20470616186E+04  0.20470616186E+04  0.00000000000E+00 0. -1.
         21   -1    0    0  504  502  0.00000000000E+00 -0.00000000000E+00 -0.41026416101E+03  0.41026416101E+03  0.00000000000E+00 0.  1.
         21    1    1    2  503  502  0.35667295963E+02  0.70693224724E+02 -0.34497942335E+03  0.35394984187E+03  0.00000000000E+00 0.  1.
         21    1    1    2  504  501  0.19520031989E+02  0.27940443965E+02 -0.45221085089E+02  0.56627260171E+02  0.00000000000E+00 0. -1.
         21    1    1    2  505  503 -0.11776800479E+02 -0.95870910253E+02  0.23305895898E+03  0.25228238706E+03  0.00000000000E+00 0.  1.
          1    1    1    2  501    0 -0.43410527472E+02 -0.27627584361E+01  0.17939390070E+04  0.17944662905E+04  0.00000000000E+00 0. -1.
<scales pt_clust_3="14000.00000" pt_clust_4="34.08372" pt_clust_5="110.70137" pt_clust_6="43.48276"></scales>
<clustering>
<clus scale="   34.084">  2  4  1 -1</clus>
<clus scale="   43.483">  1  6  2 -1</clus>
<clus scale="  110.701">  1  5  2 -1</clus>
<clus scale="   34.084">  2  3  1 -1</clus>
</clustering>
</event>
<event>
 6    0  0.1849053E+002  0.1360151E+03  0.7546771E-02  0.1218794E+00
         21   -1    0    0  503  502  0.00000000000E+00  0.00000000000E+00  0.24455082586E+02  0.24455082586E+02  0.00000000000E+00 0. -1.
          1   -1    0    0  505    0 -0.00000000000E+00 -0.00000000000E+00 -0.29733146015E+04  0.29733146015E+04  0.00000000000E+00 0. -1.
         21    1    1    2  503  501  0.15790007803E+02  0.69674401963E+02 -0.10684765721E+04  0.10708622843E+04  0.00000000000E+00 0. -1.
         21    1    1    2  504  502  0.13850502962E+02 -0.54151183476E+02 -0.90968964097E+02  0.10676862616E+03  0.00000000000E+00 0. -1.
         21    1    1    2  505  504 -0.28136398582E+02 -0.72390438272E+02 -0.86406349357E+02  0.11618127942E+03  0.00000000000E+00 0. -1.
          1    1    1    2  501    0 -0.15041121838E+01  0.56867219785E+02 -0.17030076333E+04  0.17039574942E+04  0.00000000000E+00 0. -1.
<scales pt_clust_3="42.63906" pt_clust_4="38.20145" pt_clust_5="135.07279" pt_clust_6="42.63906"></scales>
<clustering>
<clus scale="   38.201">  4  5 -1 -1</clus>
<clus scale="   42.639">  3  6 -1 -1</clus>
<clus scale="  135.073">  1  4  2 -1</clus>
<clus scale="  135.073">  1  3  2 -1</clus>
</clustering>
</event>
<event>
 6    0  0.1849053E+002  0.1305921E+03  0.7546771E-02  0.1226580E+00
          2   -1    0    0  505    0 -0.00000000000E+00  0.00000000000E+00  0.48969014189E+04  0.48969014189E+04  0.00000000000E+00 0. -1.
         21   -1    0    0  501  502  0.00000000000E+00 -0.00000000000E+00 -0.95970773170E+01  0.95970773170E+01  0.00000000000E+00 0.  1.
         21    1    1    2  503  504  0.87043392171E+02 -0.11739430324E+02  0.36204301957E+03  0.37254464748E+03  0.00000000000E+00 0.  1.
         21    1    1    2  504  502  0.31784204357E+02  0.32545400372E+02  0.15566813516E+03  0.16217893524E+03  0.00000000000E+00 0.  1.
         21    1    1    2  505  503 -0.29976559779E+02 -0.59140922276E+01  0.40217111931E+03  0.40333011272E+03  0.00000000000E+00 0.  1.
          2    1    1    2  501    0 -0.88851036748E+02 -0.14891877821E+02  0.39674220676E+04  0.39684448008E+04  0.00000000000E+00 0. -1.
<scales pt_clust_3="41.82203" pt_clust_4="41.82203" pt_clust_5="30.55439" pt_clust_6="117.05860"></scales>
<clustering>
<clus scale="   30.554">  1  5  2 -1</clus>
<clus scale="   41.822">  3  4 -1 -1</clus>
<clus scale="  117.059">  1  6  2 -1</clus>
<clus scale="  130.592">  2  3  1 -1</clus>
</clustering>
</event>
<event>
 6    0  0.1849053E+002  0.8050739E+02  0.7546771E-02  0.1327618E+00
          2   -1    0    0  504    0 -0.00000000000E+00  0.00000000000E+00  0.16024718218E+04  0.16024718218E+04  0.00000000000E+00 0.  1.
         21   -1    0    0  505  502  0.00000000000E+00 -0.00000000000E+00 -0.81344406660E+02  0.81344406660E+02  0.00000000000E+00 0.  1.
         21    1    1    2  503  502  0.73404339836E+02  0.20684029686E+02  0.15557788925E+02  0.77833610909E+02  0.00000000000E+00 0.  1.
         21    1    1    2  504  503 -0.21957827899E+02 -0.68486832053E+02  0.27640587620E+03  0.28560952500E+03  0.00000000000E+00 0.  1.
         21    1    1    2  505  501 -0.21820031795E+02 -0.34244865998E+02 -0.34754508073E+02  0.53448110033E+02  0.00000000000E+00 0.  1.
          2    1    1    2  501    0 -0.29626480142E+02  0.82047668365E+02  0.12639182581E+04  0.12669249825E+04  0.00000000000E+00 0.  1.
<scales pt_clust_3="55.73076" pt_clust_4="14000.00000" pt_clust_5="40.60572" pt_clust_6="80.50739"></scales>
<clustering>
<clus scale="   40.606">  2  5  1 -1</clus>
<clus scale="   55.731">  2  3  1 -1</clus>
<clus scale="   80.507">  1  6  2 -1</clus>
<clus scale="   40.606">  2  3  1 -1</clus>
</clustering>
</event>
<event>
 6    0  0.1849053E+002  0.2468647E+03  0.7546771E-02  0.1115302E+00
         21   -1    0    0  503  502  0.00000000000E+00  0.00000000000E+00  0.83815199211E+03  0.83815199211E+03  0.00000000000E+00 0.  1.
          2   -1    0    0  504    0 -0.00000000000E+00 -0.00000000000E+00 -0.85782418353E+03  0.85782418353E+03  0.00000000000E+00 0.  1.
         21    1    1    2  503  501 -0.40209189149E+01 -0.79626515106E+02  0.27344208280E+02  0.84286745241E+02  0.00000000000E+00 0.  1.
         21    1    1    2  504  505 -0.13978419229E+03  0.19068989571E+03 -0.33178219793E+03  0.40740849722E+03  0.00000000000E+00 0.  1.
         21    1    1    2  505  502  0.32356739479E+02 -0.17618531229E+03  0.72433238410E+03  0.74615388862E+03  0.00000000000E+00 0.  1.
          2    1    1    2  501    0  0.11144837172E+03  0.65121931694E+02 -0.43956658587E+03  0.45812704456E+03  0.00000000000E+00 0.  1.
<scales pt_clust_3="79.72797" pt_clust_4="246.86468" pt_clust_5="14000.00000" pt_clust_6="128.56456"></scales>
<clustering>
<clus scale="   79.728">  1  3  2 -1</clus>
<clus scale="  128.565">  2  6  1 -1</clus>
<clus scale="  246.865">  2  4  1 -1</clus>
<clus scale="   79.728">  1  3  2 -1</clus>
</clustering>
</event>
<event>
 6    0  0.1849053E+002  0.1433431E+03  0.7546771E-02  0.1208900E+00
         21   -1    0    0  503  502  0.00000000000E+00  0.00000000000E+00  0.23461698469E+03  0.23461698469E+03  0.00000000000E+00 0. -1.
          2   -1    0    0  504    0 -0.00000000000E+00 -0.00000000000E+00 -0.21468051650E+03  0.21468051650E+03  0.00000000000E+00 0.  1.
         21    1    1    2  503  505 -0.21024602803E+01 -0.30486226456E+02  0.27395661814E+02  0.41040865354E+02  0.00000000000E+00 0. -1.
         21    1    1    2  504  502 -0.10954231462E+03 -0.53693809449E+02  0.15009960101E+03  0.19342294095E+03  0.00000000000E+00 0. -1.
         21    1    1    2  505  501  0.42271077460E+02  0.42404632829E+02 -0.95876994150E+02  0.11303713939E+03  0.00000000000E+00 0.  1.
          2    1    1    2  501    0  0.69373697436E+02  0.41775403076E+02 -0.61681800479E+02  0.10179655548E+03  0.00000000000E+00 0.  1.
<scales pt_clust_3="30.55864" pt_clust_4="137.00127" pt_clust_5="36.34488" pt_clust_6="36.34488"></scales>
<clustering>
<clus scale="   30.559">  1  3  2 -1</clus>
<clus scale="   36.345">  5  6 -1 -1</clus>
<clus scale="  137.001">  1  4  2 -1</clus>
<clus scale="   30.559">  1  3  2 -1</clus>
</clustering>
</event>
<event>
 6    0  0.1849053E+002  0.6039593E+02  0.7546771E-02  0.1396178E+00
          2   -1    0    0  503    0 -0.00000000000E+00  0.00000000000E+00  0.17552482078E+04  0.17552482078E+04  0.00000000000E+00 0. -1.
         21   -1    0    0  504  502  0.00000000000E+00 -0.00000000000E+00 -0.19230654508E+03  0.19230654508E+03  0.00000000000E+00 0.  1.
         21    1    1    2  503  505  0.19411914624E+02 -0.26418344363E+02  0.28448156710E+03  0.28636430184E+03  0.00000000000E+00 0.  1.
         21    1    1    2  504  501  0.25838693703E+02  0.53900958576E+02 -0.17403489032E+03  0.18401384316E+03  0.00000000000E+00 0.  1.
         21    1    1    2  505  502 -0.60175948392E+01 -0.86862581864E+02  0.15539955808E+03  0.17813012723E+03  0.00000000000E+00 0.  1.
          2    1    1    2  501    0 -0.39233013487E+02  0.59379967651E+02  0.12970954278E+04  0.12990464806E+04  0.00000000000E+00 0. -1.
<scales pt_clust_3="32.78340" pt_clust_4="14000.00000" pt_clust_5="60.39593" pt_clust_6="42.27828"></scales>
<clustering>
<clus scale="   32.783">  1  3  2 -1</clus>
<clus scale="   42.278">  1  6  2 -1</clus>
<clus scale="   60.396">  1  5  2 -1</clus>
<clus scale="   60.396">  2  3  1 -1</clus>
</clustering>
</event>
<event>
 6    0  0.1849053E+002  0.1234120E+03  0.7546771E-02  0.1237572E+00
         21   -1    0    0  503  502  0.00000000000E+00  0.00000000000E+00  0.45088927969E+03  0.45088927969E+03  0.00000000000E+00 0.  1.
          2   -1    0    0  504    0 -0.00000000000E+00 -0.00000000000E+00 -0.27868539572E+04  0.27868539572E+04  0.00000000000E+00 0. -1.
         21    1    1    2  503  505  0.11036460375E+02 -0.46439613668E+02 -0.11082801144E+02  0.49002751519E+02  0.00000000000E+00 0.  1.
         21    1    1    2  504  502  0.94445797950E+02 -0.24845505194E+02  0.42058175225E+03  0.43177114101E+03  0.00000000000E+00 0.  1.
         21    1    1    2  505  501 -0.23511359482E+02  0.10094063856E+03 -0.54426102961E+03  0.55404139276E+03  0.00000000000E+00 0. -1.
          2    1    1    2  501    0 -0.81970898844E+02 -0.29655519698E+02 -0.22012025990E+04  0.22029279516E+04  0.00000000000E+00 0. -1.
<scales pt_clust_3="47.73302" pt_clust_4="14000.00000" pt_clust_5="123.41196" pt_clust_6="87.18127"></scales>
<clustering>
<clus scale="   47.733">  1  3  2 -1</clus>
<clus scale="   87.181">  2  6  1 -1</clus>
<clus scale="  123.412">  2  5  1 -1</clus>
<clus scale="   47.733">  1  3  2 -1</clus>
</clustering>
</event>
<event>
 6    0  0.1849053E+002  0.2204404E+03  0.7546771E-02  0.1133555E+00
          2   -1    0    0  504    0 -0.00000000000E+00  0.00000000000E+00  0.12541667053E+04  0.12541667053E+04  0.00000000000E+00 0. -1.
         21   -1    0    0  501  502  0.00000000000E+00 -0.00000000000E+00 -0.99362131957E+02  0.99362131957E+02  0.00000000000E+00 0. -1.
         21    1    1    2  503  502 -0.47757963698E+02 -0.17727940608E+02  0.59306927226E+01  0.51286217359E+02  0.00000000000E+00 0. -1.
         21    1    1    2  504  505  0.13556218424E+03  0.11050440833E+03  0.62766585363E+03  0.65157712810E+03  0.00000000000E+00 0. -1.
         21    1    1    2  505  503 -0.10587084079E+03 -0.14247344336E+03  0.61393424942E+02  0.18782031205E+03  0.00000000000E+00 0. -1.
          2    1    1    2  501    0  0.18066620246E+02  0.49696975639E+02  0.45981460209E+03  0.46284517978E+03  0.00000000000E+00 0. -1.
<scales pt_clust_3="31.11362" pt_clust_4="212.65194" pt_clust_5="31.11362" pt_clust_6="52.87903"></scales>
<clustering>
<clus scale="   31.114">  3  5 -1 -1</clus>
<clus scale="   52.879">  1  6  2 -1</clus>
<clus scale="  212.652">  1  4  2 -1</clus>
<clus scale="  220.440">  2  3  1 -1</clus>
</clustering>
</event>
<event>
 6    0  0.1849053E+002  0.1721374E+03  0.7546771E-02  0.1175637E+00
         21   -1    0    0  504  502  0.00000000000E+00  0.00000000000E+00  0.82571786654E+03  0.82571786654E+03  0.00000000000E+00 0. -1.
          2   -1    0    0  502    0 -0.00000000000E+00 -0.00000000000E+00 -0.78147265406E+03  0.78147265406E+03  0.00000000000E+00 0.  1.
         21    1    1    2  503  501  0.21939495207E+02 -0.12568608031E+03 -0.37164625450E+03  0.39293672610E+03  0.00000000000E+00 0. -1.
         21    1    1    2  504  505 -0.67002095953E+02  0.23326378673E+02  0.16724637258E+03  0.18167209457E+03  0.00000000000E+00 0. -1.
         21    1    1    2  505  503  0.36533972313E+02  0.14925209447E+03  0.62989399591E+03  0.64836514784E+03  0.00000000000E+00 0. -1.
          2    1    1    2  501    0  0.85286284331E+01 -0.46892392836E+02 -0.38124890151E+03  0.38421655210E+03  0.00000000000E+00 0.  1.
<scales pt_clust_3="14000.00000" pt_clust_4="70.52587" pt_clust_5="172.13738" pt_clust_6="47.66166"></scales>
<clustering>
<clus scale="   47.662">  2  6  1 -1</clus>
<clus scale="   70.526">  1  4  2 -1</clus>
<clus scale="  172.137">  1  5  2 -1</clus>
<clus scale="   70.526">  1  3  2 -1</clus>
</clustering>
</event>
<event>
 6    0  0.1849053E+002  0.2757309E+03  0.7546771E-02  0.1098044E+00
          1   -1    0    0  505    0 -0.00000000000E+00  0.00000000000E+00  0.62970147866E+03  0.62970147866E+03  0.00000000000E+00 0.  1.
         21   -1    0    0  503  502  0.00000000000E+00 -0.00000000000E+00 -0.15216472985E+04  0.15216472985E+04  0.00000000000E+00 0. -1.
         21    1    1    2  503  501 -0.35378824681E+02 -0.73786695507E+02  0.14383877328E+03  0.16548634496E+03  0.00000000000E+00 0.  1.
         21    1    1    2  504  502  0.13569107956E+03  0.12250583605E+03 -0.10249105420E+04  0.10410866285E+04  0.00000000000E+00 0. -1.
         21    1    1    2  505  504  0.39182523655E+02  0.83547669054E+02 -0.45319177677E+03  0.46249137256E+03  0.00000000000E+00 0. -1.
          1    1    1    2  501    0 -0.13949477853E+03 -0.13226680960E+03  0.44231772562E+03  0.48228443118E+03  0.00000000000E+00 0.  1.
<scales pt_clust_3="35.66850" pt_clust_4="275.60904" pt_clust_5="38.40216" pt_clust_6="35.66850"></scales>
<clustering>
<clus scale="   35.669">  3  6 -1 -1</clus>
<clus scale="   38.402">  4  5 -1 -1</clus>
<clus scale="  275.609">  2  4  1 -1</clus>
<clus scale="  275.609">  2  3  1 -1</clus>
</clustering>
</event>
<event>
 6    0  0.1849053E+002  0.1177571E+03  0.7546771E-02  0.1246844E+00
          2   -1    0    0  505    0 -0.00000000000E+00  0.00000000000E+00  0.34818810492E+04  0.34818810492E+04  0.00000000000E+00 0. -1.
         21   -1    0    0  503  502  0.00000000000E+00 -0.00000000000E+00 -0.50393709886E+02  0.50393709886E+02  0.00000000000E+00 0. -1.
         21    1    1    2  503  501 -0.26865492806E+02 -0.19298621432E+02  0.76236337031E+02  0.83103372837E+02  0.00000000000E+00 0.  1.
         21    1    1    2  504  502 -0.45156542882E+02 -0.77332531452E+02 -0.15413647753E+01  0.89564555440E+02  0.00000000000E+00 0. -1.
         21    1    1    2  505  504  0.38324333265E+02  0.12961764335E+02  0.61383893209E+03  0.61517070509E+03  0.00000000000E+00 0. -1.
          2    1    1    2  501    0  0.33697702423E+02  0.83669388550E+02  0.27429534349E+04  0.27444361257E+04  0.00000000000E+00 0. -1.
<scales pt_clust_3="33.07857" pt_clust_4="117.75710" pt_clust_5="40.00861" pt_clust_6="14000.00000"></scales>
<clustering>
<clus scale="   33.079">  2  3  1 -1</clus>
<clus scale="   40.009">  1  5  2 -1</clus>
<clus scale="  117.757">  2  4  1 -1</clus>
<clus scale="   33.079">  2  3  1 -1</clus>
</clustering>
</event>
<event>
 6    0  0.1849053E+002  0.1693079E+03  0.7546771E-02  0.1178572E+00
         21   -1    0    0  505  502  0.00000000000E+00  0.00000000000E+00  0.14561793684E+03  0.14561793684E+03  0.00000000000E+00 0. -1.
         -4   -1    0    0    0  501 -0.00000000000E+00 -0.00000000000E+00 -0.26280796791E+04  0.26280796791E+04  0.00000000000E+00 0.  1.
         21    1    1    2  503  502  0.59254699394E+02  0.53458704412E+01 -0.14234673670E+04  0.14247101609E+04  0.00000000000E+00 0.  1.
         21    1    1    2  504  501 -0.12350653765E+03 -0.31107448767E+02 -0.51053794540E+01  0.12746608612E+03  0.00000000000E+00 0. -1.
         21    1    1    2  505  504 -0.15554450254E+02 -0.34994881862E+02  0.77103358608E+02  0.86090130607E+02  0.00000000000E+00 0. -1.
         -4    1    1    2    0  503  0.79806288507E+02  0.60756460188E+02 -0.11309923545E+04  0.11354312383E+04  0.00000000000E+00 0.  1.
<scales pt_clust_3="56.58738" pt_clust_4="152.68631" pt_clust_5="38.29599" pt_clust_6="56.58738"></scales>
<clustering>
<clus scale="   38.296">  1  5  2 -1</clus>
<clus scale="   56.587">  3  6 -1 -1</clus>
<clus scale="  152.686">  1  4  2 -1</clus>
<clus scale="   38.296">  1  3  2 -1</clus>
</clustering>
</event>
<event>
 6    0  0.1849053E+002  0.3035538E+03  0.7546771E-02  0.1083477E+00
         21   -1    0    0  501  502  0.00000000000E+00  0.00000000000E+00  0.30406972154E+03  0.30406972154E+03  0.00000000000E+00 0.  1.
          2   -1    0    0  504    0 -0.00000000000E+00 -0.00000000000E+00 -0.26644618103E+04  0.26644618103E+04  0.00000000000E+00 0.  1.
         21    1    1    2  503  502 -0.50595773444E+02  0.26500613770E+01  0.14785780565E+01  0.50686697552E+02  0.00000000000E+00 0.  1.
         21    1    1    2  504  505  0.60816237200E+01  0.42810574075E+02 -0.89946323715E+02  0.99800163073E+02  0.00000000000E+00 0.  1.
         21    1    1    2  505  503 -0.46295054506E-01 -0.30412013711E+03  0.17914534501E+03  0.35296191661E+03  0.00000000000E+00 0.  1.
          2    1    1    2  501    0  0.44560444778E+02  0.25865950166E+03 -0.24510696881E+04  0.24650827546E+04  0.00000000000E+00 0.  1.
<scales pt_clust_3="50.63010" pt_clust_4="43.24039" pt_clust_5="14000.00000" pt_clust_6="303.55384"></scales>
<clustering>
<clus scale="   43.240">  2  4  1 -1</clus>
<clus scale="   50.630">  1  3  2 -1</clus>
<clus scale="  303.554">  2  6  1 -1</clus>
<clus scale="   50.630">  1  3  2 -1</clus>
</clustering>
</event>
<event>
 6    0  0.1849053E+002  0.8227461E+02  0.7546771E-02  0.1322718E+00
          1   -1    0    0  504    0 -0.00000000000E+00  0.00000000000E+00  0.96781098760E+03  0.96781098760E+03  0.00000000000E+00 0. -1.
         21   -1    0    0  505  502  0.00000000000E+00 -0.00000000000E+00 -0.10417028705E+03  0.10417028705E+03  0.00000000000E+00 0.  1.
         21    1    1    2  503  502  0.14191169644E+03 -0.28278256831E+02 -0.14841517350E+02  0.14546085395E+03  0.00000000000E+00 0.  1.
         21    1    1    2  504  503 -0.95845237027E+01  0.57525010294E+02  0.16460696975E+03  0.17463231200E+03  0.00000000000E+00 0.  1.
         21    1    1    2  505  501 -0.67968928899E+02 -0.65727656536E+01  0.50295520257E+02  0.84809291366E+02  0.00000000000E+00 0. -1.
          1    1    1    2  501    0 -0.64358243834E+02 -0.22673987809E+02  0.66357972789E+03  0.66707881734E+03  0.00000000000E+00 0. -1.
<scales pt_clust_3="82.27461" pt_clust_4="58.31801" pt_clust_5="68.80120" pt_clust_6="14000.00000"></scales>
<clustering>
<clus scale="   58.318">  1  4  2 -1</clus>
<clus scale="   68.801">  2  5  1 -1</clus>
<clus scale="   82.275">  2  3  1 -1</clus>
<clus scale="   68.801">  2  3  1 -1</clus>
</clustering>
</event>
<event>
 6    0  0.1849053E+002  0.1866494E+03  0.7546771E-02  0.1161519E+00
          2   -1    0    0  504    0 -0.00000000000E+00  0.00000000000E+00  0.12824092471E+04  0.12824092471E+04  0.00000000000E+00 0. -1.
         21   -1    0    0  505  502  0.00000000000E+00 -0.00000000000E+00 -0.94245556552E+03  0.94245556552E+03  0.00000000000E+00 0. -1.
         21    1    1    2  503  502 -0.82158229939E+02 -0.33191845395E+02 -0.77152821757E+03  0.77659993810E+03  0.00000000000E+00 0. -1.
         21    1    1    2  504  503 -0.11554189920E+03 -0.87143783281E+02  0.10682088339E+03  0.17987404083E+03  0.00000000000E+00 0. -1.
         21    1    1    2  505  501  0.46541897624E+02 -0.51627884739E+01 -0.11889649060E+03  0.12778567250E+03  0.00000000000E+00 0.  1.
          2    1    1    2  501    0  0.15115823151E+03  0.12549841715E+03  0.11235575064E+04  0.11406051612E+04  0.00000000000E+00 0. -1.
<scales pt_clust_3="53.91466" pt_clust_4="186.64942" pt_clust_5="46.82737" pt_clust_6="14000.00000"></scales>
<clustering>
<clus scale="   46.827">  2  5  1 -1</clus>
<clus scale="   53.915">  2  3  1 -1</clus>
<clus scale="  186.649">  2  4  1 -1</clus>
<clus scale="   46.827">  2  3  1 -1</clus>
</clustering>
</event>
<event>
 6    0  0.1849053E+002  0.1613530E+03  0.7546771E-02  0.1187178E+00
         21   -1    0    0  504  502  0.00000000000E+00  0.00000000000E+00  0.60848869466E+02  0.60848869466E+02  0.00000000000E+00 0. -1.
          2   -1    0    0  505    0 -0.00000000000E+00 -0.00000000000E+00 -0.11567555272E+04  0.11567555272E+04  0.00000000000E+00 0. -1.
         21    1    1    2  503  502  0.36627116457E+02 -0.57577774164E+02 -0.23182875133E+03  0.24166364162E+03  0.00000000000E+00 0. -1.
         21    1    1    2  504  501  0.53765325293E+02  0.98177293107E+02 -0.60022854814E+02  0.12701273238E+03  0.00000000000E+00 0. -1.
         21    1    1    2  505  503  0.86504186649E+02 -0.30737508381E+02 -0.34083505963E+03  0.35298202022E+03  0.00000000000E+00 0. -1.
          2    1    1    2  501    0 -0.17689662840E+03 -0.98620105614E+01 -0.46321999201E+03  0.49594600249E+03  0.00000000000E+00 0. -1.
<scales pt_clust_3="44.78897" pt_clust_4="111.93521" pt_clust_5="44.78897" pt_clust_6="152.76146"></scales>
<clustering>
<clus scale="   44.789">  3  5 -1 -1</clus>
<clus scale="  111.935">  1  4  2 -1</clus>
<clus scale="  152.761">  1  6  2 -1</clus>
<clus scale="  111.935">  1  3  2 -1</clus>
</clustering>
</event>
<event>
 6    0  0.1849053E+002  0.1990712E+03  0.7546771E-02  0.1150525E+00
         21   -1    0    0  505  502  0.00000000000E+00  0.00000000000E+00  0.12878135584E+03  0.12878135584E+03  0.00000000000E+00 0.  1.
          2   -1    0    0  503    0 -0.00000000000E+00 -0.00000000000E+00 -0.30315237532E+04  0.30315237532E+04  0.00000000000E+00 0. -1.
         21    1    1    2  503  502  0.99997820007E+00 -0.15610621544E+03  0.55680638728E+02  0.16574222149E+03  0.00000000000E+00 0.  1.
         21    1    1    2  504  501 -0.12123475256E+02  0.57373672967E+02 -0.56498418646E+03  0.56801923202E+03  0.00000000000E+00 0. -1.
         21    1    1    2  505  504  0.71303226584E+02 -0.22133276984E+02 -0.80972322927E+02  0.11013877224E+03  0.00000000000E+00 0.  1.
          2    1    1    2  501    0 -0.60179729528E+02  0.12086581946E+03 -0.23124665267E+04  0.23164048833E+04  0.00000000000E+00 0. -1.
<scales pt_clust_3="190.90981" pt_clust_4="37.17973" pt_clust_5="74.65944" pt_clust_6="37.17973"></scales>
<clustering>
<clus scale="   37.180">  4  6 -1 -1</clus>
<clus scale="   74.659">  1  5  2 -1</clus>
<clus scale="  190.910">  1  3  2 -1</clus>
<clus scale="   74.659">  1  3  2 -1</clus>
</clustering>
</event>
<event>
 6    0  0.1849053E+002  0.9058997E+02  0.7546771E-02  0.1301429E+00
         21   -1    0    0  504  502  0.00000000000E+00  0.00000000000E+00  0.27629951209E+03  0.27629951209E+03  0.00000000000E+00 0. -1.
          2   -1    0    0  503    0 -0.00000000000E+00 -0.00000000000E+00 -0.11035739306E+04  0.11035739306E+04  0.00000000000E+00 0.  1.
         21    1    1    2  503  505  0.43466266635E+02 -0.35341842740E+02 -0.88034103135E+02  0.10434733106E+03  0.00000000000E+00 0.  1.
         21    1    1    2  504  501 -0.76787183888E+02 -0.22887770904E+02  0.17965356122E+03  0.19671177831E+03  0.00000000000E+00 0. -1.
         21    1    1    2  505  502  0.44565663985E+01 -0.33433046119E+02  0.73977130556E+02  0.81303415686E+02  0.00000000000E+00 0.  1.
          2    1    1    2  501    0  0.28864350854E+02  0.91662659763E+02 -0.99287100711E+03  0.99751091759E+03  0.00000000000E+00 0.  1.
<scales pt_clust_3="57.03696" pt_clust_4="14000.00000" pt_clust_5="33.72876" pt_clust_6="90.58997"></scales>
<clustering>
<clus scale="   33.729">  1  5  2 -1</clus>
<clus scale="   57.037">  2  3  1 -1</clus>
<clus scale="   90.590">  2  6  1 -1</clus>
<clus scale="   33.729">  1  3  2 -1</clus>
</clustering>
</event>
<event>
 6    0  0.1849053E+002  0.1898540E+03  0.7546771E-02  0.1158593E+00
          2   -1    0    0  503    0 -0.00000000000E+00  0.00000000000E+00  0.12513456712E+04  0.12513456712E+04  0.00000000000E+00 0.  1.
         21   -1    0    0  504  502  0.00000000000E+00 -0.00000000000E+00 -0.26425526939E+03  0.26425526939E+03  0.00000000000E+00 0. -1.
         21    1    1    2  503  502 -0.42216327198E+02 -0.13500212387E+03 -0.21162882507E+03  0.25454773880E+03  0.00000000000E+00 0. -1.
         21    1    1    2  504  505 -0.25554900821E+02 -0.29928182226E+02 -0.72884377067E+01  0.40023372815E+02  0.00000000000E+00 0. -1.
         21    1    1    2  505  501  0.18141219915E+01  0.60124901023E+02  0.25526467440E+03  0.26225626543E+03  0.00000000000E+00 0. -1.
          2    1    1    2  501    0  0.65957106028E+02  0.10480540507E+03  0.95074299020E+03  0.95877356356E+03  0.00000000000E+00 0.  1.
<scales pt_clust_3="177.14438" pt_clust_4="39.35415" pt_clust_5="47.54861" pt_clust_6="47.54861"></scales>
<clustering>
<clus scale="   39.354">  2  4  1 -1</clus>
<clus scale="   47.549">  5  6 -1 -1</clus>
<clus scale="  177.144">  2  3  1 -1</clus>
<clus scale="   39.354">  2  3  1 -1</clus>
</clustering>
</event>
<event>
 6    0  0.1849053E+002  0.1142689E+03  0.7546771E-02  0.1252863E+00
         21   -1    0    0  505  502  0.00000000000E+00  0.00000000000E+00  0.14077756846E+02  0.14077756846E+02  0.00000000000E+00 0.  1.
          2   -1    0    0  503    0 -0.00000000000E+00 -0.00000000000E+00 -0.24298615874E+04  0.24298615874E+04  0.00000000000E+00 0.  1.
         21    1    1    2  503  502 -0.30742074205E+02  0.42678465296E+02 -0.81771800594E+02  0.97227331028E+02  0.00000000000E+00 0.  1.
         21    1    1    2  504  501  0.28829734868E+02 -0.39844363362E+02 -0.60884976071E+03  0.61083283968E+03  0.00000000000E+00 0.  1.
         21    1    1    2  505  504 -0.52879413426E+01  0.75362211688E+02 -0.33121003372E+03  0.33971681105E+03  0.00000000000E+00 0.  1.
          2    1    1    2  501    0  0.72002806793E+01 -0.78196313623E+02 -0.13939522355E+04  0.13961623625E+04  0.00000000000E+00 0.  1.
<scales pt_clust_3="52.59778" pt_clust_4="31.47818" pt_clust_5="107.12250" pt_clust_6="31.47818"></scales>
<clustering>
<clus scale="   31.478">  4  6 -1 -1</clus>
<clus scale="   52.598">  1  3  2 -1</clus>
<clus scale="  107.123">  1  5  2 -1</clus>
<clus scale="   52.598">  1  3  2 -1</clus>
</clustering>
</event>
<event>
 6    0  0.1849053E+002  0.9167153E+02  0.7546771E-02  0.1298854E+00
         21   -1    0    0  503  502  0.00000000000E+00  0.00000000000E+00  0.94762417762E+03  0.94762417762E+03  0.00000000000E+00 0. -1.
          1   -1    0    0  505    0 -0.00000000000E+00 -0.00000000000E+00 -0.62021377376E+03  0.62021377376E+03  0.00000000000E+00 0. -1.
         21    1    1    2  503  501 -0.29162806546E+02  0.70036838947E+02  0.79248979187E+03  0.79611286782E+03  0.00000000000E+00 0. -1.
         21    1    1    2  504  502 -0.90801320581E+01  0.36233890818E+02  0.63853928405E+02  0.73977481808E+02  0.00000000000E+00 0. -1.
         21    1    1    2  505  504  0.56253190633E+02 -0.37155118511E+02 -0.59598269797E+03  0.59978354476E+03  0.00000000000E+00 0. -1.
          1    1    1    2  501    0 -0.18010252029E+02 -0.69115611253E+02  0.67049381551E+02  0.97964056998E+02  0.00000000000E+00 0. -1.
<scales pt_clust_3="14000.00000" pt_clust_4="37.35430" pt_clust_5="67.35650" pt_clust_6="91.67153"></scales>
<clustering>
<clus scale="   37.354">  1  4  2 -1</clus>
<clus scale="   67.357">  2  5  1 -1</clus>
<clus scale="   91.672">  2  6  1 -1</clus>
<clus scale="   37.354">  1  3  2 -1</clus>
</clustering>
</event>
<event>
 6    0  0.1849053E+002  0.1488684E+03  0.7546771E-02  0.1201870E+00
          1   -1    0    0  504    0 -0.00000000000E+00  0.00000000000E+00  0.15147290431E+04  0.15147290431E+04  0.00000000000E+00 0.  1.
         21   -1    0    0  505  502  0.00000000000E+00 -0.00000000000E+00 -0.76227538971E+03  0.76227538971E+03  0.00000000000E+00 0. -1.
         21    1    1    2  503  502  0.94800248379E+01 -0.39084105882E+02 -0.92157000498E+02  0.10055024090E+03  0.00000000000E+00 0. -1.
         21    1    1    2  504  503 -0.90888523709E+02  0.44889527537E+02  0.13454382231E+04  0.13492515724E+04  0.00000000000E+00 0.  1.
         21    1    1    2  505  501  0.12600929486E+03 -0.24215538680E+02 -0.65407299129E+03  0.66654048087E+03  0.00000000000E+00 0. -1.
          1    1    1    2  501    0 -0.44600795988E+02  0.18410117026E+02  0.15324542212E+03  0.16066213870E+03  0.00000000000E+00 0.  1.
<scales pt_clust_3="40.21739" pt_clust_4="14000.00000" pt_clust_5="148.86841" pt_clust_6="48.11954"></scales>
<clustering>
<clus scale="   40.217">  2  3  1 -1</clus>
<clus scale="   48.120">  1  6  2 -1</clus>
<clus scale="  148.868">  2  5  1 -1</clus>
<clus scale="   40.217">  2  3  1 -1</clus>
</clustering>
</event>
<event>
 6    0  0.1849053E+002  0.1005642E+03  0.7546771E-02  0.1279114E+00
         21   -1    0    0  504  502  0.00000000000E+00  0.00000000000E+00  0.13031092615E+02  0.13031092615E+02  0.00000000000E+00 0.  1.
          2   -1    0    0  505    0 -0.00000000000E+00 -0.00000000000E+00 -0.25655229619E+04  0.25655229619E+04  0.00000000000E+00 0. -1.
         21    1    1    2  503  502  0.35154530925E+02  0.16649362561E+02 -0.18183502839E+03  0.18594897114E+03  0.00000000000E+00 0. -1.
         21    1    1    2  504  501  0.17937889795E+02  0.76709929704E+02 -0.17634910736E+03  0.19314551218E+03  0.00000000000E+00 0.  1.
         21    1    1    2  505  503  0.31946646563E+02 -0.17505399386E+02 -0.50323881104E+03  0.50455557490E+03  0.00000000000E+00 0.  1.
          2    1    1    2  501    0 -0.85039067284E+02 -0.75853892878E+02 -0.16910689225E+04  0.16949039963E+04  0.00000000000E+00 0. -1.
<scales pt_clust_3="40.88957" pt_clust_4="100.56425" pt_clust_5="36.42839" pt_clust_6="14000.00000"></scales>
<clustering>
<clus scale="   36.428">  2  5  1 -1</clus>
<clus scale="   40.890">  1  3  2 -1</clus>
<clus scale="  100.564">  1  4  2 -1</clus>
<clus scale="   40.890">  1  3  2 -1</clus>
</clustering>
</event>
<event>
 6    0  0.1849053E+002  0.1118540E+03  0.7546771E-02  0.1257175E+00
         21   -1    0    0  505  502  0.00000000000E+00  0.00000000000E+00  0.43829654899E+03  0.43829654899E+03  0.00000000000E+00 0. -1.
         -1   -1    0    0    0  501 -0.00000000000E+00 -0.00000000000E+00 -0.38790703013E+03  0.38790703013E+03  0.00000000000E+00 0.  1.
         21    1    1    2  503  504  0.12493112279E+03  0.89488243468E+01  0.33055383163E+03  0.35348790999E+03  0.00000000000E+00 0. -1.
         21    1    1    2  504  502 -0.21331336163E+02  0.26839123086E+02  0.63906156922E+02  0.72521454226E+02  0.00000000000E+00 0.  1.
         21    1    1    2  505  501  0.41886760134E+02 -0.18259638537E+02 -0.33088016824E+02  0.56415706425E+02  0.00000000000E+00 0. -1.
         -1    1    1    2    0  503 -0.14548654676E+03 -0.17528308896E+02 -0.31098245287E+03  0.34377850848E+03  0.00000000000E+00 0.  1.
<scales pt_clust_3="14000.00000" pt_clust_4="34.28359" pt_clust_5="44.74227" pt_clust_6="111.85395"></scales>
<clustering>
<clus scale="   34.284">  1  4  2 -1</clus>
<clus scale="   44.742">  2  5  1 -1</clus>
<clus scale="  111.854">  2  6  1 -1</clus>
<clus scale="   34.284">  1  3  2 -1</clus>
</clustering>
</event>
<event>
 6    0  0.1849053E+002  0.1213886E+03  0.7546771E-02  0.1240824E+00
         21   -1    0    0  505  502  0.00000000000E+00  0.00000000000E+00  0.36237701222E+03  0.36237701222E+03  0.00000000000E+00 0. -1.
          2   -1    0    0  503    0 -0.00000000000E+00 -0.00000000000E+00 -0.27309380004E+04  0.27309380004E+04  0.00000000000E+00 0.  1.
         21    1    1    2  503  504 -0.59937326476E+02 -0.92104097212E+02 -0.15729778823E+04  0.15768116774E+04  0.00000000000E+00 0.  1.
         21    1    1    2  504  502 -0.55092010035E+02  0.34243840275E+01 -0.40737134243E+02  0.68602988871E+02  0.00000000000E+00 0.  1.
         21    1    1    2  505  501  0.40223491773E+02 -0.45957443297E+02  0.33839531989E+03  0.34386248474E+03  0.00000000000E+00 0. -1.
          2    1    1    2  501    0  0.74805844739E+02  0.13463715648E+03 -0.10932412915E+04  0.11040378616E+04  0.00000000000E+00 0.  1.
<scales pt_clust_3="14000.00000" pt_clust_4="55.19833" pt_clust_5="44.75711" pt_clust_6="121.38864"></scales>
<clustering>
<clus scale="   55.198">  1  4  2 -1</clus>
<clus scale="   44.757">  1  5  2 -1</clus>
<clus scale="  121.389">  1  6  2 -1</clus>
<clus scale="   55.198">  1  3  2 -1</clus>
</clustering>
</event>
<event>
 6    0  0.1849053E+002  0.3035140E+03  0.7546771E-02  0.1083497E+00
         21   -1    0    0  504  502  0.00000000000E+00  0.00000000000E+00  0.35718185530E+03  0.35718185530E+03  0.00000000000E+00 0.  1.
         -2   -1    0    0    0  501 -0.00000000000E+00 -0.00000000000E+00 -0.78186644915E+03  0.78186644915E+03  0.00000000000E+00 0.  1.
         21    1    1    2  503  505  0.91625854867E+02  0.16011206262E+03 -0.43252447170E+03  0.47022185029E+03  0.00000000000E+00 0.  1.
         21    1    1    2  504  501 -0.17638307240E+03 -0.20736524571E+03  0.24264491292E+03  0.36467504319E+03  0.00000000000E+00 0.  1.
         21    1    1    2  505  502 -0.32165745401E+02  0.26632981781E+02 -0.82103849560E+00  0.41768708383E+02  0.00000000000E+00 0.  1.
         -2    1    1    2    0  503  0.11692296294E+03  0.20620201312E+02 -0.23398399657E+03  0.26238270258E+03  0.00000000000E+00 0.  1.
<scales pt_clust_3="101.87917" pt_clust_4="275.32096" pt_clust_5="41.76064" pt_clust_6="101.87917"></scales>
<clustering>
<clus scale="   41.761">  1  5  2 -1</clus>
<clus scale="  101.879">  3  6 -1 -1</clus>
<clus scale="  275.321">  1  4  2 -1</clus>
<clus scale="   41.761">  1  3  2 -1</clus>
</clustering>
</event>
<event>
 6    0  0.1849053E+002  0.1161464E+03  0.7546771E-02  0.1249593E+00
         21   -1    0    0  505  502  0.00000000000E+00  0.00000000000E+00  0.21114168726E+03  0.21114168726E+03  0.00000000000E+00 0. -1.
          2   -1    0    0  502    0 -0.00000000000E+00 -0.00000000000E+00 -0.39559359510E+03  0.39559359510E+03  0.00000000000E+00 0. -1.
         21    1    1    2  503  504  0.94693436106E+02 -0.90992283105E+02 -0.23649328011E+02  0.13343812477E+03  0.00000000000E+00 0. -1.
         21    1    1    2  504  501 -0.29385993842E+02 -0.28734578941E+02 -0.10648934202E+03  0.11414548885E+03  0.00000000000E+00 0. -1.
         21    1    1    2  505  503 -0.36059833748E+02  0.10938363179E+03  0.12917213031E+03  0.17306221356E+03  0.00000000000E+00 0. -1.
          2    1    1    2  501    0 -0.29247608517E+02  0.10343230254E+02 -0.18348536812E+03  0.18608945518E+03  0.00000000000E+00 0. -1.
<scales pt_clust_3="14000.00000" pt_clust_4="50.41080" pt_clust_5="116.14643" pt_clust_6="31.02265"></scales>
<clustering>
<clus scale="   31.023">  2  6  1 -1</clus>
<clus scale="   50.411">  2  4  1 -1</clus>
<clus scale="  116.146">  1  5  2 -1</clus>
<clus scale="  116.146">  1  3  2 -1</clus>
</clustering>
</event>
<event>
 6    0  0.1849053E+002  0.1078829E+03  0.7546771E-02  0.1264541E+00
         21   -1    0    0  503  502  0.00000000000E+00  0.00000000000E+00  0.10442878500E+03  0.10442878500E+03  0.00000000000E+00 0. -1.
          2   -1    0    0  505    0 -0.00000000000E+00 -0.00000000000E+00 -0.21035153711E+04  0.21035153711E+04  0.00000000000E+00 0. -1.
         21    1    1    2  503  501 -0.83061186460E+02  0.74428781965E+02 -0.10506394916E+03  0.15322283673E+03  0.00000000000E+00 0. -1.
         21    1    1    2  504  502  0.47073461582E+02 -0.98010408797E+02  0.42624967837E+02  0.11678543959E+03  0.00000000000E+00 0. -1.
         21    1    1    2  505  504 -0.15603648673E+01  0.31998905840E+02 -0.82081826980E+03  0.82144324012E+03  0.00000000000E+00 0. -1.
          2    1    1    2  501    0  0.37548089745E+02 -0.84172790082E+01 -0.11158293350E+04  0.11164926397E+04  0.00000000000E+00 0. -1.
<scales pt_clust_3="107.88289" pt_clust_4="14000.00000" pt_clust_5="32.03693" pt_clust_6="41.07787"></scales>
<clustering>
<clus scale="   32.037">  2  5  1 -1</clus>
<clus scale="   41.078">  2  6  1 -1</clus>
<clus scale="  107.883">  2  3  1 -1</clus>
<clus scale="  107.883">  1  3  2 -1</clus>
</clustering>
</event>
<event>
 6    0  0.1849053E+002  0.1126575E+03  0.7546771E-02  0.1255726E+00
          2   -1    0    0  504    0 -0.00000000000E+00  0.00000000000E+00  0.22883362549E+04  0.22883362549E+04  0.00000000000E+00 0. -1.
         21   -1    0    0  503  502  0.00000000000E+00 -0.00000000000E+00 -0.82108908414E+02  0.82108908414E+02  0.00000000000E+00 0. -1.
         21    1    1    2  503  505 -0.51054938463E+02  0.34638010043E+02 -0.45430768678E+02  0.76618230363E+02  0.00000000000E+00 0. -1.
         21    1    1    2  504  502  0.30360127092E+02 -0.73875167063E+01  0.94942506843E+02  0.99951950085E+02  0.00000000000E+00 0. -1.
         21    1    1    2  505  501 -0.37580746892E+02  0.53899113915E+02  0.44637051849E+02  0.79434837543E+02  0.00000000000E+00 0. -1.
          2    1    1    2  501    0  0.58275558263E+02 -0.81149607251E+02  0.21120785564E+04  0.21144401453E+04  0.00000000000E+00 0. -1.
<scales pt_clust_3="61.48773" pt_clust_4="31.24600" pt_clust_5="112.65755" pt_clust_6="14000.00000"></scales>
<clustering>
<clus scale="   31.246">  1  4  2 -1</clus>
<clus scale="   61.488">  2  3  1 -1</clus>
<clus scale="  112.658">  2  5  1 -1</clus>
<clus scale="   61.488">  2  3  1 -1</clus>
</clustering>
</event>
<event>
 6    0  0.1849053E+002  0.1473815E+03  0.7546771E-02  0.1203728E+00
         -2   -1    0    0    0  501 -0.00000000000E+00  0.00000000000E+00  0.16392312726E+04  0.16392312726E+04  0.00000000000E+00 0.  1.
         21   -1    0    0  503  502  0.00000000000E+00 -0.00000000000E+00 -0.13904667197E+02  0.13904667197E+02  0.00000000000E+00 0.  1.
         21    1    1    2  503  505  0.81348261236E+02  0.58667547470E+01  0.47425871181E+03  0.48122061899E+03  0.00000000000E+00 0. -1.
         21    1    1    2  504  502 -0.48395510174E+02 -0.94745067502E+00  0.13200149458E+03  0.14059664875E+03  0.00000000000E+00 0.  1.
         21    1    1    2  505  501  0.51867299520E+02 -0.34686658405E+02  0.56536826175E+03  0.56880106578E+03  0.00000000000E+00 0.  1.
         -2    1    1    2    0  504 -0.84820050582E+02  0.29767354333E+02  0.45369813730E+03  0.46251760632E+03  0.00000000000E+00 0.  1.
<scales pt_clust_3="49.04648" pt_clust_4="33.83316" pt_clust_5="49.04648" pt_clust_6="143.88449"></scales>
<clustering>
<clus scale="   33.833">  4  6 -1 -1</clus>
<clus scale="   49.046">  3  5 -1 -1</clus>
<clus scale="  143.884">  2  4  1 -1</clus>
<clus scale="  143.884">  2  3  1 -1</clus>
</clustering>
</event>
<event>
 6    0  0.1849053E+002  0.7297022E+02  0.7546771E-02  0.1350274E+00
          2   -1    0    0  504    0 -0.00000000000E+00  0.00000000000E+00  0.17335889840E+04  0.17335889840E+04  0.00000000000E+00 0.  1.
         21   -1    0    0  503  502  0.00000000000E+00 -0.00000000000E+00 -0.37399435039E+03  0.37399435039E+03  0.00000000000E+00 0.  1.
         21    1    1    2  503  501 -0.33519906699E+02 -0.87254951203E+02 -0.20938976964E+03  0.22930566126E+03  0.00000000000E+00 0.  1.
         21    1    1    2  504  505  0.28302979445E+02 -0.44866404769E+02  0.82937134389E+03  0.83106610987E+03  0.00000000000E+00 0.  1.
         21    1    1    2  505  502  0.38943694447E+00  0.61962584508E+02 -0.14610734506E+03  0.15870371710E+03  0.00000000000E+00 0.  1.
          2    1    1    2  501    0  0.48274903093E+01  0.70158771465E+02  0.88572040446E+03  0.88850784619E+03  0.00000000000E+00 0.  1.
<scales pt_clust_3="72.97022" pt_clust_4="53.04765" pt_clust_5="14000.00000" pt_clust_6="41.77722"></scales>
<clustering>
<clus scale="   53.048">  1  4  2 -1</clus>
<clus scale="   41.777">  1  6  2 -1</clus>
<clus scale="   72.970">  1  3  2 -1</clus>
<clus scale="   72.970">  2  3  1 -1</clus>
</clustering>
</event>
<event>
 6    0  0.1849053E+002  0.1065252E+03  0.7546771E-02  0.1267143E+00
          2   -1    0    0  504    0 -0.00000000000E+00  0.00000000000E+00  0.11936738697E+04  0.11936738697E+04  0.00000000000E+00 0.  1.
         21   -1    0    0  505  502  0.00000000000E+00 -0.00000000000E+00 -0.36892525434E+03  0.36892525434E+03  0.00000000000E+00 0.  1.
         21    1    1    2  503  502 -0.29996731803E+02 -0.39117994538E+01 -0.82808025202E+02  0.88160507778E+02  0.00000000000E+00 0.  1.
         21    1    1    2  504  503  0.44721391733E+02  0.42171902819E+01  0.10124338964E+03  0.11076105596E+03  0.00000000000E+00 0. -1.
         21    1    1    2  505  501 -0.32386804733E+01 -0.97861313651E+02 -0.26777062386E+03  0.28511126383E+03  0.00000000000E+00 0.  1.
          2    1    1    2  501    0 -0.11485979456E+02  0.97555922823E+02  0.10740838748E+04  0.10785662965E+04  0.00000000000E+00 0.  1.
<scales pt_clust_3="30.25072" pt_clust_4="44.41222" pt_clust_5="106.52522" pt_clust_6="14000.00000"></scales>
<clustering>
<clus scale="   30.251">  2  3  1 -1</clus>
<clus scale="   44.412">  1  4  2 -1</clus>
<clus scale="  106.525">  2  5  1 -1</clus>
<clus scale="   30.251">  2  3  1 -1</clus>
</clustering>
</event>
<event>
 6    0  0.1849053E+002  0.1195004E+03  0.7546771E-02  0.1243923E+00
         21   -1    0    0  503  502  0.00000000000E+00  0.00000000000E+00  0.25821237532E+03  0.25821237532E+03  0.00000000000E+00 0.  1.
          2   -1    0    0  504    0 -0.00000000000E+00 -0.00000000000E+00 -0.44691136604E+03  0.44691136604E+03  0.00000000000E+00 0.  1.
         21    1    1    2  503  501  0.81660221959E+02  0.63554705297E+02  0.11340142857E+03  0.15351702321E+03  0.00000000000E+00 0.  1.
         21    1    1    2  504  505  0.20530668642E+02  0.35512041298E+02 -0.65434957744E+02  0.77229185720E+02  0.00000000000E+00 0. -1.
         21    1    1    2  505  502 -0.10090194203E+03 -0.15828269501E+03  0.39594598313E+02  0.19183937464E+03  0.00000000000E+00 0.  1.
          2    1    1    2  501    0 -0.12889485673E+01  0.59215948415E+02 -0.27626005985E+03  0.28253815779E+03  0.00000000000E+00 0.  1.
<scales pt_clust_3="119.50044" pt_clust_4="41.01967" pt_clust_5="14000.00000" pt_clust_6="86.76819"></scales>
<clustering>
<clus scale="   41.020">  2  4  1 -1</clus>
<clus scale="   86.768">  2  6  1 -1</clus>
<clus scale="  119.500">  1  3  2 -1</clus>
<clus scale="  119.500">  1  3  2 -1</clus>
</clustering>
</event>
<event>
 6    0  0.1849053E+002  0.1418176E+03  0.7546771E-02  0.1210904E+00
          2   -1    0    0  505    0 -0.00000000000E+00  0.00000000000E+00  0.23717906789E+04  0.23717906789E+04  0.00000000000E+00 0.  1.
         21   -1    0    0  504  502  0.00000000000E+00 -0.00000000000E+00 -0.19916839448E+02  0.19916839448E+02  0.00000000000E+00 0.  1.
         21    1    1    2  503  502 -0.12995996718E+01  0.56001715612E+02  0.24988461631E+03  0.25608631861E+03  0.00000000000E+00 0.  1.
         21    1    1    2  504  501  0.15654297356E+02 -0.65863904574E+02  0.76337939681E+03  0.76637537436E+03  0.00000000000E+00 0.  1.
         21    1    1    2  505  503  0.10054462127E+02  0.87993669170E+02  0.12676371323E+03  0.15463834264E+03  0.00000000000E+00 0.  1.
          2    1    1    2  501    0 -0.24409159811E+02 -0.78131480209E+02  0.12118461131E+04  0.12146074827E+04  0.00000000000E+00 0.  1.
<scales pt_clust_3="56.01679" pt_clust_4="40.32291" pt_clust_5="134.70811" pt_clust_6="40.32291"></scales>
<clustering>
<clus scale="   40.323">  4  6 -1 -1</clus>
<clus scale="   56.017">  2  3  1 -1</clus>
<clus scale="  134.708">  2  5  1 -1</clus>
<clus scale="   56.017">  2  3  1 -1</clus>
</clustering>
</event>
<event>
 6    0  0.1849053E+002  0.1806566E+03  0.7546771E-02  0.1167169E+00
         21   -1    0    0  501  502  0.00000000000E+00  0.00000000000E+00  0.41726762044E+03  0.41726762044E+03  0.00000000000E+00 0.  1.
          2   -1    0    0  504    0 -0.00000000000E+00 -0.00000000000E+00 -0.17063878300E+04  0.17063878300E+04  0.00000000000E+00 0.  1.
         21    1    1    2  503  505  0.89431219439E+02  0.64962088617E+02  0.30946549125E+03  0.32861361238E+03  0.00000000000E+00 0.  1.
         21    1    1    2  504  503  0.28994724284E+02 -0.97824009924E+01 -0.55257699293E+02  0.63164885313E+02  0.00000000000E+00 0. -1.
         21    1    1    2  505  502  0.43809082162E+02  0.42079891103E+02  0.78386372473E+02  0.99168423929E+02  0.00000000000E+00 0. -1.
          2    1    1    2  501    0 -0.16223502589E+03 -0.97259578728E+02 -0.16217143739E+04  0.16327085288E+04  0.00000000000E+00 0.  1.
<scales pt_clust_3="42.96612" pt_clust_4="30.60048" pt_clust_5="42.96612" pt_clust_6="171.11215"></scales>
<clustering>
<clus scale="   30.600">  2  4  1 -1</clus>
<clus scale="   42.966">  3  5 -1 -1</clus>
<clus scale="  171.112">  2  6  1 -1</clus>
<clus scale="  180.657">  1  3  2 -1</clus>
</clustering>
</event>
<event>
 6    0  0.1849053E+002  0.8774937E+02  0.7546771E-02  0.1308395E+00
         21   -1    0    0  505  502  0.00000000000E+00  0.00000000000E+00  0.41005346958E+03  0.41005346958E+03  0.00000000000E+00 0. -1.
         -2   -1    0    0    0  501 -0.00000000000E+00 -0.00000000000E+00 -0.11339434461E+03  0.11339434461E+03  0.00000000000E+00 0. -1.
         21    1    1    2  503  504 -0.19120966722E+02  0.12195608874E+03  0.25311950836E+03  0.28161744346E+03  0.00000000000E+00 0. -1.
         21    1    1    2  504  502  0.51681032043E+02 -0.33207264257E+02  0.10150312329E+03  0.11864457640E+03  0.00000000000E+00 0. -1.
         21    1    1    2  505  501  0.12889063433E+02 -0.40046338651E+02 -0.21535862353E+02  0.47261300901E+02  0.00000000000E+00 0.  1.
         -2    1    1    2    0  503 -0.45449128754E+02 -0.48702485835E+02 -0.36427644328E+02  0.75924493428E+02  0.00000000000E+00 0. -1.
<scales pt_clust_3="14000.00000" pt_clust_4="65.01992" pt_clust_5="42.06943" pt_clust_6="87.74937"></scales>
<clustering>
<clus scale="   42.069">  2  5  1 -1</clus>
<clus scale="   65.020">  1  4  2 -1</clus>
<clus scale="   87.749">  2  6  1 -1</clus>
<clus scale="   65.020">  1  3  2 -1</clus>
</clustering>
</event>
<event>
 6    0  0.1849053E+002  0.3346983E+03  0.7546771E-02  0.1069077E+00
         21   -1    0    0  501  502  0.00000000000E+00  0.00000000000E+00  0.32327742497E+03  0.32327742497E+03  0.00000000000E+00 0.  1.
          2   -1    0    0  504    0 -0.00000000000E+00 -0.00000000000E+00 -0.77416353885E+03  0.77416353885E+03  0.00000000000E+00 0.  1.
         21    1    1    2  503  505 -0.74396461632E+02  0.91643196778E+02 -0.16731338517E+03  0.20476102626E+03  0.00000000000E+00 0.  1.
         21    1    1    2  504  503  0.82242644203E+02 -0.62192870722E+02 -0.17959835450E+03  0.20709267161E+03  0.00000000000E+00 0.  1.
         21    1    1    2  505  502 -0.31859086530E+03  0.99892431908E+02 -0.19986178298E+01  0.33389014942E+03  0.00000000000E+00 0.  1.
          2    1    1    2  501    0  0.31074468273E+03 -0.12934275796E+03 -0.10197575637E+03  0.35169711652E+03  0.00000000000E+00 0.  1.
<scales pt_clust_3="86.33267" pt_clust_4="103.11065" pt_clust_5="334.69826" pt_clust_6="14000.00000"></scales>
<clustering>
<clus scale="  103.111">  2  4  1 -1</clus>
<clus scale="   86.333">  2  3  1 -1</clus>
<clus scale="  334.698">  1  5  2 -1</clus>
<clus scale="  334.698">  1  3  2 -1</clus>
</clustering>
</event>
<event>
 6    0  0.1849053E+002  0.1471903E+03  0.7546771E-02  0.1203969E+00
          1   -1    0    0  504    0 -0.00000000000E+00  0.00000000000E+00  0.71128905812E+03  0.71128905812E+03  0.00000000000E+00 0. -1.
         21   -1    0    0  505  502  0.00000000000E+00 -0.00000000000E+00 -0.44858709461E+03  0.44858709461E+03  0.00000000000E+00 0.  1.
         21    1    1    2  503  502  0.67137088712E+02  0.34806115212E+02 -0.18862338154E+01  0.75646627253E+02  0.00000000000E+00 0.  1.
         21    1    1    2  504  503 -0.43968766350E+02 -0.19611729318E+02  0.81658746189E+02  0.94794636823E+02  0.00000000000E+00 0. -1.
         21    1    1    2  505  501  0.90178008295E+01  0.97071555794E+02 -0.39139628121E+03  0.40335500074E+03  0.00000000000E+00 0.  1.
          1    1    1    2  501    0 -0.32186123191E+02 -0.11226594169E+03  0.57432573234E+03  0.58607988791E+03  0.00000000000E+00 0. -1.
<scales pt_clust_3="72.77846" pt_clust_4="48.14429" pt_clust_5="14000.00000" pt_clust_6="147.19031"></scales>
<clustering>
<clus scale="   48.144">  1  4  2 -1</clus>
<clus scale="   72.778">  2  3  1 -1</clus>
<clus scale="  147.190">  1  6  2 -1</clus>
<clus scale="   72.778">  2  3  1 -1</clus>
</clustering>
</event>
<event>
 6    0  0.1849053E+002  0.9111313E+02  0.7546771E-02  0.1300178E+00
         21   -1    0    0  503  502  0.00000000000E+00  0.00000000000E+00  0.52314288867E+03  0.52314288867E+03  0.00000000000E+00 0. -1.
          2   -1    0    0  505    0 -0.00000000000E+00 -0.00000000000E+00 -0.80422831723E+02  0.80422831723E+02  0.00000000000E+00 0.  1.
         21    1    1    2  503  504 -0.12937261770E+03  0.12714977170E+02  0.33778367916E+03  0.36193474379E+03  0.00000000000E+00 0. -1.
         21    1    1    2  504  501  0.63677093608E+02  0.28173316679E+02  0.21213290609E+02  0.72790876637E+02  0.00000000000E+00 0. -1.
         21    1    1    2  505  502  0.37124627052E+02  0.17762784581E+02  0.94168800297E+02  0.10276924345E+03  0.00000000000E+00 0.  1.
          2    1    1    2  501    0  0.28570897043E+02 -0.58651078430E+02 -0.10445713116E+02  0.66070856520E+02  0.00000000000E+00 0.  1.
<scales pt_clust_3="91.11313" pt_clust_4="14000.00000" pt_clust_5="41.15525" pt_clust_6="65.31449"></scales>
<clustering>
<clus scale="   41.155">  1  5  2 -1</clus>
<clus scale="   65.314">  2  6  1 -1</clus>
<clus scale="   91.113">  1  3  2 -1</clus>
<clus scale="   41.155">  1  3  2 -1</clus>
</clustering>
</event>
<event>
 6    0  0.1849053E+002  0.1278426E+03  0.7546771E-02  0.1230692E+00
         21   -1    0    0  504  502  0.00000000000E+00  0.00000000000E+00  0.52717543106E+03  0.52717543106E+03  0.00000000000E+00 0. -1.
          3   -1    0    0  505    0 -0.00000000000E+00 -0.00000000000E+00 -0.56423710962E+02  0.56423710962E+02  0.00000000000E+00 0. -1.
         21    1    1    2  503  501  0.96082544708E+02  0.10057894493E+03  0.17895054624E+03  0.22665232750E+03  0.00000000000E+00 0. -1.
         21    1    1    2  504  503 -0.11069523144E+02 -0.32733750243E+02  0.11297983509E+03  0.11814599394E+03  0.00000000000E+00 0. -1.
         21    1    1    2  505  502 -0.11365791233E+03 -0.52151007833E+02  0.14952680207E+03  0.19492591719E+03  0.00000000000E+00 0. -1.
          3    1    1    2  501    0  0.28644890766E+02 -0.15694186850E+02  0.29294536694E+02  0.43874903395E+02  0.00000000000E+00 0. -1.
<scales pt_clust_3="14000.00000" pt_clust_4="34.89495" pt_clust_5="127.84260" pt_clust_6="32.66247"></scales>
<clustering>
<clus scale="   32.662">  2  6  1 -1</clus>
<clus scale="   34.895">  1  4  2 -1</clus>
<clus scale="  127.843">  2  5  1 -1</clus>
<clus scale="   34.895">  1  3  2 -1</clus>
</clustering>
</event>
<event>
 6    0  0.1849053E+002  0.3383299E+03  0.7546771E-02  0.1067509E+00
         21   -1    0    0  504  502  0.00000000000E+00  0.00000000000E+00  0.21833425044E+04  0.21833425044E+04  0.00000000000E+00 0.  1.
          4   -1    0    0  505    0 -0.00000000000E+00 -0.00000000000E+00 -0.43415595357E+03  0.43415595357E+03  0.00000000000E+00 0.  1.
         21    1    1    2  503  502 -0.15287034635E+02  0.16243102272E+03  0.12705871647E+04  0.12810188420E+04  0.00000000000E+00 0.  1.
         21    1    1    2  504  501 -0.10224764852E+03 -0.10251626253E+03 -0.92968622618E+02  0.17206780786E+03  0.00000000000E+00 0.  1.
         21    1    1    2  505  503  0.22527601441E+03  0.10182755360E+03  0.81571768048E+03  0.85235759373E+03  0.00000000000E+00 0.  1.
          4    1    1    2  501    0 -0.10774133126E+03 -0.16174231380E+03 -0.24414967168E+03  0.31205421439E+03  0.00000000000E+00 0.  1.
<scales pt_clust_3="163.14880" pt_clust_4="71.16366" pt_clust_5="328.13064" pt_clust_6="71.16366"></scales>
<clustering>
<clus scale="   71.164">  4  6 -1 -1</clus>
<clus scale="  163.149">  1  3  2 -1</clus>
<clus scale="  328.131">  1  5  2 -1</clus>
<clus scale="  163.149">  1  3  2 -1</clus>
</clustering>
</event>
<event>
 6    0  0.1849053E+002  0.1924022E+03  0.7546771E-02  0.1156312E+00
          3   -1    0    0  504    0 -0.00000000000E+00  0.00000000000E+00  0.75566073643E+03  0.75566073643E+03  0.00000000000E+00 0.  1.
         21   -1    0    0  503  502  0.00000000000E+00 -0.00000000000E+00 -0.22105096219E+03  0.22105096219E+03  0.00000000000E+00 0. -1.
         21    1    1    2  503  505  0.13604564262E+03 -0.11194874116E+03 -0.13263528082E+03  0.22052903492E+03  0.00000000000E+00 0. -1.
         21    1    1    2  504  502  0.21237290292E+02  0.27482295257E+02 -0.21584119874E+02  0.40892215424E+02  0.00000000000E+00 0. -1.
         21    1    1    2  505  501 -0.42784578670E+02  0.62015780868E+02  0.24036529589E+03  0.25189671041E+03  0.00000000000E+00 0. -1.
          3    1    1    2  501    0 -0.11449835424E+03  0.22450665029E+02  0.44846387905E+03  0.46339373787E+03  0.00000000000E+00 0.  1.
<scales pt_clust_3="178.14689" pt_clust_4="34.73182" pt_clust_5="58.68219" pt_clust_6="58.68219"></scales>
<clustering>
<clus scale="   34.732">  2  4  1 -1</clus>
<clus scale="   58.682">  5  6 -1 -1</clus>
<clus scale="  178.147">  2  3  1 -1</clus>
<clus scale="   34.732">  2  3  1 -1</clus>
</clustering>
</event>
<event>
 6    0  0.1849053E+002  0.6381276E+02  0.7546771E-02  0.1382494E+00
         21   -1    0    0  505  502  0.00000000000E+00  0.00000000000E+00  0.14502828092E+03  0.14502828092E+03  0.00000000000E+00 0.  1.
          2   -1    0    0  504    0 -0.00000000000E+00 -0.00000000000E+00 -0.12141629979E+04  0.12141629979E+04  0.00000000000E+00 0.  1.
         21    1    1    2  503  502  0.50119072198E+02  0.30810432903E+02  0.55856531201E+02  0.81124325892E+02  0.00000000000E+00 0.  1.
         21    1    1    2  504  503 -0.36485591255E+02  0.76246963977E+02 -0.15866519375E+03  0.17977608737E+03  0.00000000000E+00 0. -1.
         21    1    1    2  505  501 -0.32293602019E+02 -0.77858191069E+02  0.38642192769E+02  0.92725367133E+02  0.00000000000E+00 0.  1.
          2    1    1    2  501    0  0.18660121076E+02 -0.29199205811E+02 -0.10049682472E+04  0.10055654984E+04  0.00000000000E+00 0.  1.
<scales pt_clust_3="14000.00000" pt_clust_4="56.76918" pt_clust_5="63.81276" pt_clust_6="34.65247"></scales>
<clustering>
<clus scale="   34.652">  2  6  1 -1</clus>
<clus scale="   56.769">  2  4  1 -1</clus>
<clus scale="   63.813">  2  5  1 -1</clus>
<clus scale="   63.813">  1  3  2 -1</clus>
</clustering>
</event>
<event>
 6    0  0.1849053E+002  0.1545541E+03  0.7546771E-02  0.1194986E+00
          1   -1    0    0  503    0 -0.00000000000E+00  0.00000000000E+00  0.17732845091E+04  0.17732845091E+04  0.00000000000E+00 0. -1.
         21   -1    0    0  504  502  0.00000000000E+00 -0.00000000000E+00 -0.93671775463E+02  0.93671775463E+02  0.00000000000E+00 0. -1.
         21    1    1    2  503  505  0.17944144552E+03  0.98375731720E+02  0.34436366349E+03  0.40057876841E+03  0.00000000000E+00 0. -1.
         21    1    1    2  504  501 -0.12886785153E+02 -0.54803094316E+02 -0.40908958353E+02  0.69591603313E+02  0.00000000000E+00 0. -1.
         21    1    1    2  505  502 -0.29681810489E+02  0.11469649723E+02  0.34088737264E+02  0.46632657515E+02  0.00000000000E+00 0. -1.
          1    1    1    2  501    0 -0.13687284988E+03 -0.55042287127E+02  0.13420692912E+04  0.13501532553E+04  0.00000000000E+00 0. -1.
<scales pt_clust_3="154.55409" pt_clust_4="57.12251" pt_clust_5="31.82079" pt_clust_6="14000.00000"></scales>
<clustering>
<clus scale="   31.821">  2  5  1 -1</clus>
<clus scale="   57.123">  2  4  1 -1</clus>
<clus scale="  154.554">  2  3  1 -1</clus>
<clus scale="   31.821">  2  3  1 -1</clus>
</clustering>
</event>
<event>
 6    0  0.1849053E+002  0.2021178E+03  0.7546771E-02  0.1147964E+00
          2   -1    0    0  505    0 -0.00000000000E+00  0.00000000000E+00  0.53282295737E+03  0.53282295737E+03  0.00000000000E+00 0.  1.
         21   -1    0    0  501  502  0.00000000000E+00 -0.00000000000E+00 -0.27882262940E+03  0.27882262940E+03  0.00000000000E+00 0. -1.
         21    1    1    2  503  502  0.10668965436E+03 -0.47736706379E+02 -0.77893213663E+02  0.14045934720E+03  0.00000000000E+00 0. -1.
         21    1    1    2  504  503  0.34325490441E+02 -0.72646458250E+02 -0.12693379736E+03  0.15022628299E+03  0.00000000000E+00 0. -1.
         21    1    1    2  505  504  0.12231453039E+02  0.83642861710E+02  0.11488186029E+03  0.14263091734E+03  0.00000000000E+00 0.  1.
          2    1    1    2  501    0 -0.15324659783E+03  0.36740302919E+02  0.34394547870E+03  0.37832903923E+03  0.00000000000E+00 0.  1.
<scales pt_clust_3="74.92630" pt_clust_4="74.92630" pt_clust_5="84.53246" pt_clust_6="180.78985"></scales>
<clustering>
<clus scale="   74.926">  3  4 -1 -1</clus>
<clus scale="   84.532">  1  5  2 -1</clus>
<clus scale="  180.790">  1  6  2 -1</clus>
<clus scale="  202.118">  2  3  1 -1</clus>
</clustering>
</event>
<event>
 6    0  0.1849053E+002  0.1268486E+03  0.7546771E-02  0.1232208E+00
         21   -1    0    0  503  502  0.00000000000E+00  0.00000000000E+00  0.74193316539E+02  0.74193316539E+02  0.00000000000E+00 0.  1.
          2   -1    0    0  505    0 -0.00000000000E+00 -0.00000000000E+00 -0.49656770820E+03  0.49656770820E+03  0.00000000000E+00 0.  1.
         21    1    1    2  503  504 -0.20883862374E+00  0.54754573013E+02 -0.51358986678E+02  0.75072314417E+02  0.00000000000E+00 0.  1.
         21    1    1    2  504  501 -0.11771173194E+03 -0.42393538762E+02 -0.13388566408E+03  0.18324474075E+03  0.00000000000E+00 0.  1.
         21    1    1    2  505  502  0.13468492528E+01 -0.70678647814E+02 -0.10712381077E+03  0.12834639104E+03  0.00000000000E+00 0.  1.
          2    1    1    2  501    0  0.11657372131E+03  0.58317613562E+02 -0.13000593014E+03  0.18409757854E+03  0.00000000000E+00 0.  1.
<scales pt_clust_3="54.75497" pt_clust_4="126.84865" pt_clust_5="61.37203" pt_clust_6="14000.00000"></scales>
<clustering>
<clus scale="   54.755">  1  3  2 -1</clus>
<clus scale="   61.372">  2  5  1 -1</clus>
<clus scale="  126.849">  1  4  2 -1</clus>
<clus scale="   54.755">  1  3  2 -1</clus>
</clustering>
</event>
<event>
 6    0  0.1849053E+002  0.1050602E+03  0.7546771E-02  0.1270001E+00
          2   -1    0    0  503    0 -0.00000000000E+00  0.00000000000E+00  0.22850187778E+04  0.22850187778E+04  0.00000000000E+00 0.  1.
         21   -1    0    0  504  502  0.00000000000E+00 -0.00000000000E+00 -0.22738384358E+02  0.22738384358E+02  0.00000000000E+00 0.  1.
         21    1    1    2  503  505 -0.78500755520E+02 -0.72557317206E+02  0.33765319559E+03  0.35417031693E+03  0.00000000000E+00 0.  1.
         21    1    1    2  504  501  0.32490411403E+02  0.11106821095E+02  0.74875832254E+02  0.82373409324E+02  0.00000000000E+00 0. -1.
         21    1    1    2  505  502 -0.58349693752E+02  0.37470978118E+02  0.12344229479E+03  0.14158658518E+03  0.00000000000E+00 0.  1.
          2    1    1    2  501    0  0.10436003787E+03  0.23979517993E+02  0.17263090708E+04  0.17296268507E+04  0.00000000000E+00 0.  1.
<scales pt_clust_3="14000.00000" pt_clust_4="34.33640" pt_clust_5="60.53175" pt_clust_6="105.06023"></scales>
<clustering>
<clus scale="   34.336">  2  4  1 -1</clus>
<clus scale="   60.532">  2  5  1 -1</clus>
<clus scale="  105.060">  1  6  2 -1</clus>
<clus scale="   34.336">  2  3  1 -1</clus>
</clustering>
</event>
<event>
 6    0  0.1849053E+002  0.1158552E+03  0.7546771E-02  0.1250096E+00
          1   -1    0    0  505    0 -0.00000000000E+00  0.00000000000E+00  0.27502192175E+03  0.27502192175E+03  0.00000000000E+00 0.  1.
         21   -1    0    0  504  502  0.00000000000E+00 -0.00000000000E+00 -0.22513491060E+04  0.22513491060E+04  0.00000000000E+00 0.  1.
         21    1    1    2  503  501  0.63777287350E+02 -0.18952736161E+02 -0.15826750530E+03  0.17168387177E+03  0.00000000000E+00 0.  1.
         21    1    1    2  504  503 -0.11843265660E+03  0.56987006157E+02 -0.20667765996E+04  0.20709513094E+04  0.00000000000E+00 0.  1.
         21    1    1    2  505  502  0.95059312495E+01 -0.33246292804E+02  0.39613447029E+01  0.34804754934E+02  0.00000000000E+00 0.  1.
          1    1    1    2  501    0  0.45149438001E+02 -0.47879771917E+01  0.24475557593E+03  0.24893109172E+03  0.00000000000E+00 0.  1.
<scales pt_clust_3="115.85523" pt_clust_4="14000.00000" pt_clust_5="34.57859" pt_clust_6="65.66937"></scales>
<clustering>
<clus scale="   34.579">  1  5  2 -1</clus>
<clus scale="   65.669">  1  6  2 -1</clus>
<clus scale="  115.855">  1  3  2 -1</clus>
<clus scale="  115.855">  2  3  1 -1</clus>
</clustering>
</event>
<event>
 6    0  0.1849053E+002  0.1512791E+03  0.7546771E-02  0.1198910E+00
         -1   -1    0    0    0  501 -0.00000000000E+00  0.00000000000E+00  0.81254943063E+02  0.81254943063E+02  0.00000000000E+00 0. -1.
         21   -1    0    0  504  502  0.00000000000E+00 -0.00000000000E+00 -0.56295937192E+03  0.56295937192E+03  0.00000000000E+00 0.  1.
         21    1    1    2  503  502  0.98824311947E+01 -0.89707961903E+02 -0.99934896595E+01  0.90802261595E+02  0.00000000000E+00 0. -1.
         21    1    1    2  504  505 -0.70333622618E+01  0.39141488937E+02 -0.22613753359E+03  0.22960772731E+03  0.00000000000E+00 0.  1.
         21    1    1    2  505  501 -0.40301267043E+02  0.93379702151E+02 -0.24677208257E+03  0.26690901377E+03  0.00000000000E+00 0.  1.
         -1    1    1    2    0  503  0.37452198110E+02 -0.42813229184E+02  0.11986769566E+01  0.56895312310E+02  0.00000000000E+00 0. -1.
<scales pt_clust_3="34.92062" pt_clust_4="34.71998" pt_clust_5="34.71998" pt_clust_6="147.43549"></scales>
<clustering>
<clus scale="   34.720">  4  5 -1 -1</clus>
<clus scale="   34.921">  3  6 -1 -1</clus>
<clus scale="  147.435">  1  3  2 -1</clus>
<clus scale="  151.279">  2  3  1 -1</clus>
</clustering>
</event>
<event>
 6    0  0.1849053E+002  0.5973590E+02  0.7546771E-02  0.1398943E+00
         21   -1    0    0  503  502  0.00000000000E+00  0.00000000000E+00  0.78347629547E+03  0.78347629547E+03  0.00000000000E+00 0.  1.
         -2   -1    0    0    0  501 -0.00000000000E+00 -0.00000000000E+00 -0.80644935833E+03  0.80644935833E+03  0.00000000000E+00 0. -1.
         21    1    1    2  503  505  0.54246522314E+02  0.16956285776E+00  0.58940190858E+03  0.59189300027E+03  0.00000000000E+00 0.  1.
         21    1    1    2  504  502 -0.42023441845E+01 -0.32893935836E+02  0.17824966344E+03  0.18130806168E+03  0.00000000000E+00 0. -1.
         21    1    1    2  505  501  0.56695320323E+02 -0.71288795536E+01 -0.88018034859E+02  0.10493976716E+03  0.00000000000E+00 0. -1.
         -2    1    1    2    0  504 -0.10673949845E+03  0.39853252532E+02 -0.70260660002E+03  0.71178482469E+03  0.00000000000E+00 0. -1.
<scales pt_clust_3="59.73590" pt_clust_4="33.16128" pt_clust_5="57.14272" pt_clust_6="14000.00000"></scales>
<clustering>
<clus scale="   33.161">  1  4  2 -1</clus>
<clus scale="   57.143">  2  5  1 -1</clus>
<clus scale="   59.736">  1  3  2 -1</clus>
<clus scale="   33.161">  1  3  2 -1</clus>
</clustering>
</event>
<event>
 6    0  0.1849053E+002  0.8904461E+02  0.7546771E-02  0.1305182E+00
         21   -1    0    0  505  502  0.00000000000E+00  0.00000000000E+00  0.67161945542E+02  0.67161945542E+02  0.00000000000E+00 0.  1.
          2   -1    0    0  503    0 -0.00000000000E+00 -0.00000000000E+00 -0.56746163534E+03  0.56746163534E+03  0.00000000000E+00 0.  1.
         21    1    1    2  503  502 -0.53667798551E+01 -0.32062081690E+02 -0.93296205626E+02  0.98797577867E+02  0.00000000000E+00 0.  1.
         21    1    1    2  504  501 -0.84959024054E+02  0.51175227190E+02 -0.17685983516E+02  0.10074588656E+03  0.00000000000E+00 0.  1.
         21    1    1    2  505  504 -0.30061115732E+01 -0.41723119076E+02 -0.89509181264E+01  0.42778198975E+02  0.00000000000E+00 0.  1.
          2    1    1    2  501    0  0.93331915482E+02  0.22609973575E+02 -0.38036658253E+03  0.39230191748E+03  0.00000000000E+00 0.  1.
<scales pt_clust_3="32.50814" pt_clust_4="89.04461" pt_clust_5="43.60732" pt_clust_6="14000.00000"></scales>
<clustering>
<clus scale="   32.508">  2  3  1 -1</clus>
<clus scale="   43.607">  1  5  2 -1</clus>
<clus scale="   89.045">  1  4  2 -1</clus>
<clus scale="   43.607">  1  3  2 -1</clus>
</clustering>
</event>
<event>
 6    0  0.1849053E+002  0.1630896E+03  0.7546771E-02  0.1185252E+00
          3   -1    0    0  503    0 -0.00000000000E+00  0.00000000000E+00  0.39240595295E+03  0.39240595295E+03  0.00000000000E+00 0.  1.
         21   -1    0    0  505  502  0.00000000000E+00 -0.00000000000E+00 -0.19118528739E+03  0.19118528739E+03  0.00000000000E+00 0. -1.
         21    1    1    2  503  502  0.50586017574E+02  0.27026270901E+02 -0.80282873098E+02  0.98664604624E+02  0.00000000000E+00 0. -1.
         21    1    1    2  504  501 -0.33735328151E+02  0.33898138954E+02  0.47571079902E+02  0.67454902217E+02  0.00000000000E+00 0.  1.
         21    1    1    2  505  504  0.74990812907E+02 -0.12602890392E+03 -0.11853755501E+02  0.14713061599E+03  0.00000000000E+00 0. -1.
          3    1    1    2  501    0 -0.91841502330E+02  0.65104494061E+02  0.24578621426E+03  0.27034111751E+03  0.00000000000E+00 0.  1.
<scales pt_clust_3="57.35298" pt_clust_4="32.43598" pt_clust_5="155.31139" pt_clust_6="32.43598"></scales>
<clustering>
<clus scale="   32.436">  4  6 -1 -1</clus>
<clus scale="   57.353">  2  3  1 -1</clus>
<clus scale="  155.311">  2  5  1 -1</clus>
<clus scale="   57.353">  2  3  1 -1</clus>
</clustering>
</event>
<event>
 6    0  0.1849053E+002  0.1158638E+03  0.7546771E-02  0.1250081E+00
         21   -1    0    0  504  502  0.00000000000E+00  0.00000000000E+00  0.29890057709E+03  0.29890057709E+03  0.00000000000E+00 0. -1.
         -1   -1    0    0    0  501 -0.00000000000E+00 -0.00000000000E+00 -0.21313370001E+03  0.21313370001E+03  0.00000000000E+00 0. -1.
         21    1    1    2  503  502  0.98165588445E+02  0.94931079973E+02  0.17473133604E+03  0.22176436254E+03  0.00000000000E+00 0. -1.
         21    1    1    2  504  501 -0.41181675643E+02  0.22997532560E+02 -0.22181417076E+02  0.52123240269E+02  0.00000000000E+00 0. -1.
         21    1    1    2  505  503 -0.40436919323E+02 -0.86683001492E+02  0.55683446421E+02  0.11067851371E+03  0.00000000000E+00 0. -1.
         -1    1    1    2    0  505 -0.16546993479E+02 -0.31245611041E+02 -0.12246648831E+03  0.12746816057E+03  0.00000000000E+00 0. -1.
<scales pt_clust_3="14000.00000" pt_clust_4="49.14767" pt_clust_5="115.86376" pt_clust_6="35.35663"></scales>
<clustering>
<clus scale="   35.357">  2  6  1 -1</clus>
<clus scale="   49.148">  2  4  1 -1</clus>
<clus scale="  115.864">  2  5  1 -1</clus>
<clus scale="  115.864">  1  3  2 -1</clus>
</clustering>
</event>
<event>
 6    0  0.1849053E+002  0.1518641E+03  0.7546771E-02  0.1198201E+00
          2   -1    0    0  503    0 -0.00000000000E+00  0.00000000000E+00  0.56222669210E+02  0.56222669210E+02  0.00000000000E+00 0. -1.
         21   -1    0    0  501  502  0.00000000000E+00 -0.00000000000E+00 -0.11226722615E+04  0.11226722615E+04  0.00000000000E+00 0.  1.
         21    1    1    2  503  505  0.45920471710E+02 -0.30332389314E+02 -0.88434431923E+02  0.10416041625E+03  0.00000000000E+00 0.  1.
         21    1    1    2  504  502 -0.53083927981E+02 -0.53215347950E+02 -0.43022168358E+03  0.43673844998E+03  0.00000000000E+00 0.  1.
         21    1    1    2  505  504 -0.12549788331E+03 -0.52817549635E+02 -0.20899549805E+03  0.24943642571E+03  0.00000000000E+00 0.  1.
          2    1    1    2  501    0  0.13266133958E+03  0.13636528690E+03 -0.33879797877E+03  0.38855963881E+03  0.00000000000E+00 0. -1.
<scales pt_clust_3="55.03402" pt_clust_4="74.51548" pt_clust_5="151.86411" pt_clust_6="14000.00000"></scales>
<clustering>
<clus scale="   55.034">  1  3  2 -1</clus>
<clus scale="   74.515">  2  4  1 -1</clus>
<clus scale="  151.864">  1  5  2 -1</clus>
<clus scale="   74.515">  2  3  1 -1</clus>
</clustering>
</event>
<event>
 6    0  0.1849053E+002  0.3363051E+03  0.7546771E-02  0.1068381E+00
         21   -1    0    0  504  502  0.00000000000E+00  0.00000000000E+00  0.58422452917E+02  0.58422452917E+02  0.00000000000E+00 0.  1.
          2   -1    0    0  503    0 -0.00000000000E+00 -0.00000000000E+00 -0.41944227240E+04  0.41944227240E+04  0.00000000000E+00 0. -1.
         21    1    1    2  503  505 -0.15137463404E+02  0.83651200048E+02 -0.22143883759E+03  0.23719575220E+03  0.00000000000E+00 0. -1.
         21    1    1    2  504  501  0.67375672834E+02 -0.35308665948E+02 -0.29947561801E+03  0.30898515978E+03  0.00000000000E+00 0.  1.
         21    1    1    2  505  502 -0.14867815845E+03  0.25640547795E+03 -0.54845243544E+03  0.62341722615E+03  0.00000000000E+00 0.  1.
          2    1    1    2  501    0  0.96439949016E+02 -0.30474801205E+03 -0.30666333801E+04  0.30832470388E+04  0.00000000000E+00 0. -1.
<scales pt_clust_3="39.52937" pt_clust_4="76.06697" pt_clust_5="39.52937" pt_clust_6="328.10532"></scales>
<clustering>
<clus scale="   39.529">  3  5 -1 -1</clus>
<clus scale="   76.067">  1  4  2 -1</clus>
<clus scale="  328.105">  2  6  1 -1</clus>
<clus scale="   76.067">  1  3  2 -1</clus>
</clustering>
</event>
<event>
 6    0  0.1849053E+002  0.8260495E+02  0.7546771E-02  0.1321817E+00
         -2   -1    0    0    0  501 -0.00000000000E+00  0.00000000000E+00  0.26736185340E+03  0.26736185340E+03  0.00000000000E+00 0.  1.
         21   -1    0    0  505  502  0.00000000000E+00 -0.00000000000E+00 -0.22733422567E+04  0.22733422567E+04  0.00000000000E+00 0.  1.
         21    1    1    2  503  501  0.28072138996E+02  0.10851092334E+03  0.12237951662E+03  0.16595002730E+03  0.00000000000E+00 0.  1.
         21    1    1    2  504  502 -0.41472694135E+02 -0.21804409709E+02 -0.19124765958E+04  0.19130504819E+04  0.00000000000E+00 0.  1.
         21    1    1    2  505  503 -0.16345593421E+02 -0.37647807548E+02 -0.33076017044E+03  0.33329690395E+03  0.00000000000E+00 0.  1.
         -2    1    1    2    0  504  0.29746148561E+02 -0.49058706082E+02  0.11487684635E+03  0.12840669696E+03  0.00000000000E+00 0.  1.
<scales pt_clust_3="82.60495" pt_clust_4="14000.00000" pt_clust_5="41.04310" pt_clust_6="57.45515"></scales>
<clustering>
<clus scale="   41.043">  2  5  1 -1</clus>
<clus scale="   57.455">  1  6  2 -1</clus>
<clus scale="   82.605">  1  3  2 -1</clus>
<clus scale="   41.043">  2  3  1 -1</clus>
</clustering>
</event>
<event>
 6    0  0.1849053E+002  0.2012838E+03  0.7546771E-02  0.1148660E+00
         21   -1    0    0  505  502  0.00000000000E+00  0.00000000000E+00  0.15887993253E+03  0.15887993253E+03  0.00000000000E+00 0.  1.
          1   -1    0    0  504    0 -0.00000000000E+00 -0.00000000000E+00 -0.19955221813E+04  0.19955221813E+04  0.00000000000E+00 0.  1.
         21    1    1    2  503  502  0.10836618108E+03  0.62878685998E+02  0.21769203781E+02  0.12716468294E+03  0.00000000000E+00 0.  1.
         21    1    1    2  504  503 -0.10685346876E+03 -0.12510651238E+03 -0.67826474016E+03  0.69793435291E+03  0.00000000000E+00 0. -1.
         21    1    1    2  505  501  0.12378761974E+01  0.14768396255E+03 -0.16393272815E+01  0.14769824822E+03  0.00000000000E+00 0.  1.
          1    1    1    2  501    0 -0.27505885130E+01 -0.85456136173E+02 -0.11785073851E+04  0.11816048298E+04  0.00000000000E+00 0.  1.
<scales pt_clust_3="122.45194" pt_clust_4="201.28378" pt_clust_5="14000.00000" pt_clust_6="85.50039"></scales>
<clustering>
<clus scale="   85.500">  2  6  1 -1</clus>
<clus scale="  122.452">  1  3  2 -1</clus>
<clus scale="  201.284">  2  4  1 -1</clus>
<clus scale="  122.452">  1  3  2 -1</clus>
</clustering>
</event>
<event>
 6    0  0.1849053E+002  0.8109924E+02  0.7546771E-02  0.1325961E+00
         21   -1    0    0  505  502  0.00000000000E+00  0.00000000000E+00  0.45310386815E+03  0.45310386815E+03  0.00000000000E+00 0.  1.
          3   -1    0    0  504    0 -0.00000000000E+00 -0.00000000000E+00 -0.79532195214E+02  0.79532195214E+02  0.00000000000E+00 0.  1.
         21    1    1    2  503  502 -0.65867717499E+02  0.81777099670E+02  0.14976827252E+03  0.18291141488E+03  0.00000000000E+00 0.  1.
         21    1    1    2  504  503  0.94323240398E+02  0.49779264634E+02  0.97200230792E+02  0.14430084453E+03  0.00000000000E+00 0.  1.
         21    1    1    2  505  501 -0.41222779529E+00 -0.74062731078E+02  0.12013314453E+03  0.14112912698E+03  0.00000000000E+00 0.  1.
          3    1    1    2  501    0 -0.28043295103E+02 -0.57493633225E+02  0.64700250818E+01  0.64294676966E+02  0.00000000000E+00 0.  1.
<scales pt_clust_3="14000.00000" pt_clust_4="84.47653" pt_clust_5="81.09924" pt_clust_6="63.96831"></scales>
<clustering>
<clus scale="   63.968">  2  6  1 -1</clus>
<clus scale="   84.477">  2  4  1 -1</clus>
<clus scale="   81.099">  1  5  2 -1</clus>
<clus scale="   81.099">  1  3  2 -1</clus>
</clustering>
</event>
<event>
 6    0  0.1849053E+002  0.1429031E+03  0.7546771E-02  0.1209475E+00
         21   -1    0    0  504  502  0.00000000000E+00  0.00000000000E+00  0.35908890562E+02  0.35908890562E+02  0.00000000000E+00 0.  1.
          2   -1    0    0  505    0 -0.00000000000E+00 -0.00000000000E+00 -0.26173584097E+04  0.26173584097E+04  0.00000000000E+00 0.  1.
         21    1    1    2  503  502  0.75608951307E+02  0.28440126501E+02 -0.38238580737E+02  0.89374176191E+02  0.00000000000E+00 0.  1.
         21    1    1    2  504  501 -0.85726363321E+02 -0.23612506330E+02 -0.10282164807E+04  0.10320541125E+04  0.00000000000E+00 0.  1.
         21    1    1    2  505  503  0.81137639671E+02  0.48316701493E+01 -0.21470214187E+03  0.22957280181E+03  0.00000000000E+00 0.  1.
          2    1    1    2  501    0 -0.71020227657E+02 -0.96592903205E+01 -0.13002923158E+04  0.13022662098E+04  0.00000000000E+00 0.  1.
<scales pt_clust_3="80.78090" pt_clust_4="33.85165" pt_clust_5="137.83919" pt_clust_6="33.85165"></scales>
<clustering>
<clus scale="   33.852">  4  6 -1 -1</clus>
<clus scale="   80.781">  1  3  2 -1</clus>
<clus scale="  137.839">  1  5  2 -1</clus>
<clus scale="   80.781">  1  3  2 -1</clus>
</clustering>
</event>
<event>
 6    0  0.1849053E+002  0.1329743E+03  0.7546771E-02  0.1223108E+00
          2   -1    0    0  505    0 -0.00000000000E+00  0.00000000000E+00  0.93118659540E+03  0.93118659540E+03  0.00000000000E+00 0. -1.
         21   -1    0    0  503  502  0.00000000000E+00 -0.00000000000E+00 -0.36372300761E+02  0.36372300761E+02  0.00000000000E+00 0. -1.
         21    1    1    2  503  501 -0.25971014041E+02  0.46955209484E+02  0.22638809678E+03  0.23266038689E+03  0.00000000000E+00 0. -1.
         21    1    1    2  504  502  0.52644509341E+01 -0.33632026830E+02  0.90460860433E+01  0.35222994550E+02  0.00000000000E+00 0. -1.
         21    1    1    2  505  504  0.94440051616E+02 -0.54979437675E+02  0.16376550483E+03  0.19687763329E+03  0.00000000000E+00 0. -1.
          2    1    1    2  501    0 -0.73733488509E+02  0.41656255021E+02  0.49561460698E+03  0.50279788142E+03  0.00000000000E+00 0. -1.
<scales pt_clust_3="33.93968" pt_clust_4="34.04156" pt_clust_5="125.95306" pt_clust_6="33.93968"></scales>
<clustering>
<clus scale="   33.940">  3  6 -1 -1</clus>
<clus scale="   34.042">  2  4  1 -1</clus>
<clus scale="  125.953">  2  5  1 -1</clus>
<clus scale="   34.042">  2  3  1 -1</clus>
</clustering>
</event>
<event>
 6    0  0.1849053E+002  0.2004397E+03  0.7546771E-02  0.1149369E+00
          2   -1    0    0  505    0 -0.00000000000E+00  0.00000000000E+00  0.26212757037E+04  0.26212757037E+04  0.00000000000E+00 0.  1.
         21   -1    0    0  501  502  0.00000000000E+00 -0.00000000000E+00 -0.27981889711E+03  0.27981889711E+03  0.00000000000E+00 0.  1.
         21    1    1    2  503  504 -0.59688316992E+01  0.10076748548E+03 -0.12970601797E+03  0.16435742813E+03  0.00000000000E+00 0.  1.
         21    1    1    2  504  502  0.17990391740E+02  0.94460045136E+02 -0.90210648240E+02  0.13184959377E+03  0.00000000000E+00 0.  1.
         21    1    1    2  505  503  0.13586175122E+03  0.82767835562E+02  0.89258047081E+03  0.90664702443E+03  0.00000000000E+00 0. -1.
          2    1    1    2  501    0 -0.14788331126E+03 -0.27799536618E+03  0.16687930020E+04  0.16982405545E+04  0.00000000000E+00 0.  1.
<scales pt_clust_3="32.61892" pt_clust_4="32.61892" pt_clust_5="159.08781" pt_clust_6="197.63381"></scales>
<clustering>
<clus scale="   32.619">  3  4 -1 -1</clus>
<clus scale="  159.088">  1  5  2 -1</clus>
<clus scale="  197.634">  1  6  2 -1</clus>
<clus scale="  200.440">  2  3  1 -1</clus>
</clustering>
</event>
<event>
 6    0  0.1849053E+002  0.9023090E+02  0.7546771E-02  0.1302294E+00
         21   -1    0    0  505  502  0.00000000000E+00  0.00000000000E+00  0.10318764726E+03  0.10318764726E+03  0.00000000000E+00 0. -1.
          2   -1    0    0  504    0 -0.00000000000E+00 -0.00000000000E+00 -0.53007374997E+03  0.53007374997E+03  0.00000000000E+00 0.  1.
         21    1    1    2  503  502  0.99073224481E+02 -0.43468037104E+02  0.48445855973E+02  0.11854102674E+03  0.00000000000E+00 0. -1.
         21    1    1    2  504  503  0.20565594050E+02  0.34084201741E+02 -0.19239976185E+03  0.19647479438E+03  0.00000000000E+00 0.  1.
         21    1    1    2  505  501 -0.49471425028E+02  0.27305641980E+02 -0.54108243493E+02  0.78235043249E+02  0.00000000000E+00 0.  1.
          2    1    1    2  501    0 -0.70167393502E+02 -0.17921806617E+02 -0.22882395334E+03  0.24001053287E+03  0.00000000000E+00 0.  1.
<scales pt_clust_3="14000.00000" pt_clust_4="39.80800" pt_clust_5="90.23090" pt_clust_6="56.11314"></scales>
<clustering>
<clus scale="   39.808">  2  4  1 -1</clus>
<clus scale="   56.113">  2  6  1 -1</clus>
<clus scale="   90.231">  2  5  1 -1</clus>
<clus scale="   90.231">  1  3  2 -1</clus>
</clustering>
</event>
<event>
 6    0  0.1849053E+002  0.2190173E+03  0.7546771E-02  0.1134618E+00
         21   -1    0    0  503  502  0.00000000000E+00  0.00000000000E+00  0.87673100692E+03  0.87673100692E+03  0.00000000000E+00 0.  1.
          3   -1    0    0  504    0 -0.00000000000E+00 -0.00000000000E+00 -0.25961139974E+03  0.25961139974E+03  0.00000000000E+00 0.  1.
         21    1    1    2  503  505  0.53129575605E+01 -0.54973704583E+02  0.79158961482E+02  0.96521898534E+02  0.00000000000E+00 0.  1.
         21    1    1    2  504  502 -0.55833527803E+02 -0.14529862609E+03  0.72986466626E+03  0.74627843640E+03  0.00000000000E+00 0.  1.
         21    1    1    2  505  501  0.59599864645E+02  0.12572454187E+03 -0.85504590147E+02  0.16330902985E+03  0.00000000000E+00 0.  1.
          3    1    1    2  501    0 -0.90792944024E+01  0.74547788801E+02 -0.10639943042E+03  0.13023304187E+03  0.00000000000E+00 0.  1.
<scales pt_clust_3="55.22984" pt_clust_4="203.19970" pt_clust_5="60.21117" pt_clust_6="60.21117"></scales>
<clustering>
<clus scale="   55.230">  1  3  2 -1</clus>
<clus scale="   60.211">  5  6 -1 -1</clus>
<clus scale="  203.200">  1  4  2 -1</clus>
<clus scale="   55.230">  1  3  2 -1</clus>
</clustering>
</event>
<event>
 6    0  0.1849053E+002  0.1495345E+03  0.7546771E-02  0.1201046E+00
          1   -1    0    0  503    0 -0.00000000000E+00  0.00000000000E+00  0.14731313208E+03  0.14731313208E+03  0.00000000000E+00 0. -1.
         21   -1    0    0  504  502  0.00000000000E+00 -0.00000000000E+00 -0.44034556728E+03  0.44034556728E+03  0.00000000000E+00 0.  1.
         21    1    1    2  503  505 -0.15992404119E+03 -0.58238940164E+02 -0.20993696847E+03  0.27026099207E+03  0.00000000000E+00 0.  1.
         21    1    1    2  504  501  0.18979701553E+01  0.40890467157E+02 -0.49018633175E+02  0.63862813854E+02  0.00000000000E+00 0. -1.
         21    1    1    2  505  502  0.49903896088E+02 -0.81495745440E+02 -0.46957924315E+02  0.10647535877E+03  0.00000000000E+00 0.  1.
          1    1    1    2  501    0  0.10812217495E+03  0.98844218447E+02  0.12881090762E+02  0.14705953467E+03  0.00000000000E+00 0. -1.
<scales pt_clust_3="14000.00000" pt_clust_4="40.93449" pt_clust_5="88.90939" pt_clust_6="149.53448"></scales>
<clustering>
<clus scale="   40.934">  2  4  1 -1</clus>
<clus scale="   88.909">  2  5  1 -1</clus>
<clus scale="  149.534">  1  6  2 -1</clus>
<clus scale="   40.934">  2  3  1 -1</clus>
</clustering>
</event>
<event>
 6    0  0.1849053E+002  0.1306902E+03  0.7546771E-02  0.1226435E+00
         -2   -1    0    0    0  501 -0.00000000000E+00  0.00000000000E+00  0.28807891515E+04  0.28807891515E+04  0.00000000000E+00 0. -1.
         21   -1    0    0  505  502  0.00000000000E+00 -0.00000000000E+00 -0.39895991818E+02  0.39895991818E+02  0.00000000000E+00 0.  1.
         21    1    1    2  503  502 -0.11148823221E+03  0.34514856445E+02  0.60638358002E+02  0.13152152561E+03  0.00000000000E+00 0.  1.
         21    1    1    2  504  501  0.33828624340E+02 -0.34899551861E+02  0.57144640169E+03  0.57350967259E+03  0.00000000000E+00 0. -1.
         21    1    1    2  505  504 -0.23239813044E+02 -0.19145279877E+02  0.10227954033E+03  0.10661958086E+03  0.00000000000E+00 0. -1.
         -2    1    1    2    0  503  0.10089942092E+03  0.19529975292E+02  0.21065288596E+04  0.21090343643E+04  0.00000000000E+00 0. -1.
<scales pt_clust_3="130.69019" pt_clust_4="48.54460" pt_clust_5="30.11031" pt_clust_6="14000.00000"></scales>
<clustering>
<clus scale="   30.110">  2  5  1 -1</clus>
<clus scale="   48.545">  1  4  2 -1</clus>
<clus scale="  130.690">  2  3  1 -1</clus>
<clus scale="   30.110">  2  3  1 -1</clus>
</clustering>
</event>
<event>
 6    0  0.1849053E+002  0.1291877E+03  0.7546771E-02  0.1228666E+00
          2   -1    0    0  503    0 -0.00000000000E+00  0.00000000000E+00  0.51303895797E+03  0.51303895797E+03  0.00000000000E+00 0.  1.
         21   -1    0    0  504  502  0.00000000000E+00 -0.00000000000E+00 -0.15905672695E+03  0.15905672695E+03  0.00000000000E+00 0.  1.
         21    1    1    2  503  502  0.84155173494E+02  0.36478934812E+02  0.25154845084E+03  0.26774881705E+03  0.00000000000E+00 0. -1.
         21    1    1    2  504  505 -0.12990969197E+03  0.44355019975E+02 -0.98436192128E+02  0.16891885562E+03  0.00000000000E+00 0.  1.
         21    1    1    2  505  501  0.19112428615E+02 -0.61701280015E+02  0.51817868529E+02  0.82809566971E+02  0.00000000000E+00 0.  1.
          2    1    1    2  501    0  0.26642089857E+02 -0.19132674771E+02  0.14905210378E+03  0.15261844527E+03  0.00000000000E+00 0.  1.
<scales pt_clust_3="129.18774" pt_clust_4="14000.00000" pt_clust_5="69.55241" pt_clust_6="32.80031"></scales>
<clustering>
<clus scale="   32.800">  1  6  2 -1</clus>
<clus scale="   69.552">  1  5  2 -1</clus>
<clus scale="  129.188">  1  3  2 -1</clus>
<clus scale="  129.188">  2  3  1 -1</clus>
</clustering>
</event>
<event>
 6    0  0.1849053E+002  0.2479883E+03  0.7546771E-02  0.1114583E+00
         21   -1    0    0  504  502  0.00000000000E+00  0.00000000000E+00  0.34661102715E+03  0.34661102715E+03  0.00000000000E+00 0. -1.
          1   -1    0    0  502    0 -0.00000000000E+00 -0.00000000000E+00 -0.12522393625E+04  0.12522393625E+04  0.00000000000E+00 0.  1.
         21    1    1    2  503  505 -0.14240111846E+03 -0.10307647320E+03  0.22214948430E+03  0.28329001260E+03  0.00000000000E+00 0. -1.
         21    1    1    2  504  503 -0.71401922832E+02  0.23342348881E+02  0.62452485370E+02  0.97690392384E+02  0.00000000000E+00 0.  1.
         21    1    1    2  505  501  0.13933984145E+03  0.75515009786E+02 -0.52305245122E+03  0.54653634357E+03  0.00000000000E+00 0.  1.
          1    1    1    2  501    0  0.74463199844E+02  0.42191145311E+01 -0.66717785377E+03  0.67133364106E+03  0.00000000000E+00 0.  1.
<scales pt_clust_3="71.84336" pt_clust_4="71.84336" pt_clust_5="222.30543" pt_clust_6="74.58263"></scales>
<clustering>
<clus scale="   71.843">  3  4 -1 -1</clus>
<clus scale="   74.583">  2  6  1 -1</clus>
<clus scale="  222.305">  2  5  1 -1</clus>
<clus scale="  247.988">  1  3  2 -1</clus>
</clustering>
</event>
<event>
 6    0  0.1849053E+002  0.2044665E+03  0.7546771E-02  0.1146024E+00
          3   -1    0    0  504    0 -0.00000000000E+00  0.00000000000E+00  0.22559037889E+03  0.22559037889E+03  0.00000000000E+00 0. -1.
         21   -1    0    0  503  502  0.00000000000E+00 -0.00000000000E+00 -0.24228641026E+04  0.24228641026E+04  0.00000000000E+00 0. -1.
         21    1    1    2  503  505  0.18365843326E+03  0.10186800618E+03 -0.21692370998E+04  0.21793799820E+04  0.00000000000E+00 0. -1.
         21    1    1    2  504  502 -0.22978812225E+02  0.35088868760E+02  0.35866427063E+02  0.55187454303E+02  0.00000000000E+00 0. -1.
         21    1    1    2  505  501 -0.11890066076E+03 -0.13046770234E+03 -0.20270367525E+03  0.26878982206E+03  0.00000000000E+00 0. -1.
          3    1    1    2  501    0 -0.41778960273E+02 -0.64891725947E+01  0.13880062424E+03  0.14509722317E+03  0.00000000000E+00 0. -1.
<scales pt_clust_3="14000.00000" pt_clust_4="41.94347" pt_clust_5="204.46647" pt_clust_6="63.52585"></scales>
<clustering>
<clus scale="   41.943">  1  4  2 -1</clus>
<clus scale="   63.526">  1  6  2 -1</clus>
<clus scale="  204.466">  1  5  2 -1</clus>
<clus scale="  204.466">  2  3  1 -1</clus>
</clustering>
</event>
<event>
 6    0  0.1849053E+002  0.1464357E+03  0.7546771E-02  0.1204922E+00
         21   -1    0    0  501  502  0.00000000000E+00  0.00000000000E+00  0.11075686271E+03  0.11075686271E+03  0.00000000000E+00 0. -1.
          2   -1    0    0  504    0 -0.00000000000E+00 -0.00000000000E+00 -0.85734716754E+03  0.85734716754E+03  0.00000000000E+00 0.  1.
         21    1    1    2  503  505 -0.10139485055E+03  0.63946839152E+02 -0.30768558095E+01  0.11991489064E+03  0.00000000000E+00 0. -1.
         21    1    1    2  504  503  0.17646915105E+02  0.26016568251E+02 -0.17701715991E+03  0.17978695820E+03  0.00000000000E+00 0. -1.
         21    1    1    2  505  502 -0.35579025068E+02  0.18521831141E+01  0.34042765231E+02  0.49276845188E+02  0.00000000000E+00 0. -1.
          2    1    1    2  501    0  0.11932696052E+03 -0.91815590518E+02 -0.60053905433E+03  0.61912533622E+03  0.00000000000E+00 0.  1.
<scales pt_clust_3="14000.00000" pt_clust_4="31.43685" pt_clust_5="35.44595" pt_clust_6="146.43569"></scales>
<clustering>
<clus scale="   31.437">  2  4  1 -1</clus>
<clus scale="   35.446">  1  5  2 -1</clus>
<clus scale="  146.436">  2  6  1 -1</clus>
<clus scale="   35.446">  1  3  2 -1</clus>
</clustering>
</event>
<event>
 6    0  0.1849053E+002  0.9735287E+02  0.7546771E-02  0.1285963E+00
         21   -1    0    0  501  502  0.00000000000E+00  0.00000000000E+00  0.10442745499E+03  0.10442745499E+03  0.00000000000E+00 0. -1.
          3   -1    0    0  504    0 -0.00000000000E+00 -0.00000000000E+00 -0.26094862265E+03  0.26094862265E+03  0.00000000000E+00 0. -1.
         21    1    1    2  503  505  0.54794672789E+02  0.73396883567E+02  0.21677459469E+02  0.94124762589E+02  0.00000000000E+00 0. -1.
         21    1    1    2  504  503 -0.30533168571E+02  0.73760205819E+01 -0.58668377254E+02  0.66548167159E+02  0.00000000000E+00 0. -1.
         21    1    1    2  505  502 -0.24905088199E+02  0.24202444087E+02  0.11704513958E+02  0.36647201325E+02  0.00000000000E+00 0. -1.
          3    1    1    2  501    0  0.64358398131E+00 -0.10497534824E+03 -0.13123476384E+03  0.16805594657E+03  0.00000000000E+00 0. -1.
<scales pt_clust_3="97.35287" pt_clust_4="31.41146" pt_clust_5="36.44176" pt_clust_6="14000.00000"></scales>
<clustering>
<clus scale="   31.411">  2  4  1 -1</clus>
<clus scale="   36.442">  1  5  2 -1</clus>
<clus scale="   97.353">  1  3  2 -1</clus>
<clus scale="   36.442">  1  3  2 -1</clus>
</clustering>
</event>
<event>
 6    0  0.1849053E+002  0.9940181E+02  0.7546771E-02  0.1281559E+00
         21   -1    0    0  504  502  0.00000000000E+00  0.00000000000E+00  0.15611630211E+04  0.15611630211E+04  0.00000000000E+00 0.  1.
         -3   -1    0    0    0  501 -0.00000000000E+00 -0.00000000000E+00 -0.21041349322E+04  0.21041349322E+04  0.00000000000E+00 0. -1.
         21    1    1    2  503  501  0.49660400148E+01  0.45098386060E+02 -0.33235111449E+02  0.56241431451E+02  0.00000000000E+00 0.  1.
         21    1    1    2  504  503 -0.60724695974E+02 -0.30486701935E+02  0.47486783254E+03  0.47970447786E+03  0.00000000000E+00 0.  1.
         21    1    1    2  505  502 -0.26026518044E+02  0.79851986742E+02  0.10688273829E+04  0.10721220518E+04  0.00000000000E+00 0.  1.
         -3    1    1    2    0  505  0.81785174003E+02 -0.94463670867E+02 -0.20534320152E+04  0.20572299922E+04  0.00000000000E+00 0. -1.
<scales pt_clust_3="45.37098" pt_clust_4="67.91902" pt_clust_5="99.40181" pt_clust_6="14000.00000"></scales>
<clustering>
<clus scale="   45.371">  2  3  1 -1</clus>
<clus scale="   67.919">  1  4  2 -1</clus>
<clus scale="   99.402">  1  5  2 -1</clus>
<clus scale="   67.919">  1  3  2 -1</clus>
</clustering>
</event>
<event>
 6    0  0.1849053E+002  0.1046221E+03  0.7546771E-02  0.1270866E+00
         21   -1    0    0  504  502  0.00000000000E+00  0.00000000000E+00  0.18113843895E+03  0.18113843895E+03  0.00000000000E+00 0. -1.
          2   -1    0    0  503    0 -0.00000000000E+00 -0.00000000000E+00 -0.27183289912E+04  0.27183289912E+04  0.00000000000E+00 0. -1.
         21    1    1    2  503  502 -0.56525242941E+01  0.10926195072E+03  0.13379961032E+03  0.17283651416E+03  0.00000000000E+00 0. -1.
         21    1    1    2  504  505 -0.21449065695E+02 -0.51213370723E+02 -0.27550884912E+02  0.61983247893E+02  0.00000000000E+00 0. -1.
         21    1    1    2  505  501  0.49268497712E+02  0.50090390731E+02 -0.12193864704E+03  0.14073189316E+03  0.00000000000E+00 0.  1.
          2    1    1    2  501    0 -0.22166907723E+02 -0.10813897073E+03 -0.25215006306E+04  0.25239157749E+04  0.00000000000E+00 0. -1.
<scales pt_clust_3="66.53162" pt_clust_4="55.52361" pt_clust_5="104.62206" pt_clust_6="14000.00000"></scales>
<clustering>
<clus scale="   55.524">  1  4  2 -1</clus>
<clus scale="   66.532">  1  3  2 -1</clus>
<clus scale="  104.622">  1  5  2 -1</clus>
<clus scale="   55.524">  1  3  2 -1</clus>
</clustering>
</event>
<event>
 6    0  0.1849053E+002  0.1412864E+03  0.7546771E-02  0.1211608E+00
          1   -1    0    0  504    0 -0.00000000000E+00  0.00000000000E+00  0.78771435357E+03  0.78771435357E+03  0.00000000000E+00 0. -1.
         21   -1    0    0  503  502  0.00000000000E+00 -0.00000000000E+00 -0.76318668844E+03  0.76318668844E+03  0.00000000000E+00 0.  1.
         21    1    1    2  503  501 -0.55649611692E+02  0.50718330303E+02 -0.55583473109E+03  0.56091129120E+03  0.00000000000E+00 0.  1.
         21    1    1    2  504  505 -0.26248905711E+02  0.98042526262E+02  0.64211374256E+02  0.12010180095E+03  0.00000000000E+00 0. -1.
         21    1    1    2  505  502 -0.25548999934E+02 -0.33954802215E+02 -0.16522588712E+03  0.17060267808E+03  0.00000000000E+00 0.  1.
          1    1    1    2  501    0  0.10744751734E+03 -0.11480605435E+03  0.68137690909E+03  0.69928527179E+03  0.00000000000E+00 0. -1.
<scales pt_clust_3="81.82019" pt_clust_4="141.28642" pt_clust_5="42.49329" pt_clust_6="14000.00000"></scales>
<clustering>
<clus scale="   42.493">  2  5  1 -1</clus>
<clus scale="   81.820">  2  3  1 -1</clus>
<clus scale="  141.286">  2  4  1 -1</clus>
<clus scale="   42.493">  2  3  1 -1</clus>
</clustering>
</event>
<event>
 6    0  0.1849053E+002  0.1497850E+03  0.7546771E-02  0.1200737E+00
         21   -1    0    0  505  502  0.00000000000E+00  0.00000000000E+00  0.22942590462E+03  0.22942590462E+03  0.00000000000E+00 0. -1.
         -1   -1    0    0    0  501 -0.00000000000E+00 -0.00000000000E+00 -0.68452021438E+03  0.68452021438E+03  0.00000000000E+00 0.  1.
         21    1    1    2  503  502 -0.14213396694E+03  0.67641273946E+01  0.16630884483E+03  0.21887542083E+03  0.00000000000E+00 0. -1.
         21    1    1    2  504  501  0.24434258820E+02 -0.40196204948E+02 -0.15276722591E+03  0.15984552921E+03  0.00000000000E+00 0.  1.
         21    1    1    2  505  504 -0.58770830193E+01  0.32419205274E+02  0.14890328181E+02  0.36156145380E+02  0.00000000000E+00 0. -1.
         -1    1    1    2    0  503  0.12357679114E+03  0.10128722796E+01 -0.48352625686E+03  0.49906902357E+03  0.00000000000E+00 0.  1.
<scales pt_clust_3="149.78500" pt_clust_4="46.50670" pt_clust_5="32.94761" pt_clust_6="14000.00000"></scales>
<clustering>
<clus scale="   32.948">  1  5  2 -1</clus>
<clus scale="   46.507">  2  4  1 -1</clus>
<clus scale="  149.785">  1  3  2 -1</clus>
<clus scale="   32.948">  1  3  2 -1</clus>
</clustering>
</event>
<event>
 6    0  0.1849053E+002  0.8608925E+02  0.7546771E-02  0.1312608E+00
          3   -1    0    0  504    0 -0.00000000000E+00  0.00000000000E+00  0.26546703173E+04  0.26546703173E+04  0.00000000000E+00 0.  1.
         21   -1    0    0  505  502  0.00000000000E+00 -0.00000000000E+00 -0.64107499424E+03  0.64107499424E+03  0.00000000000E+00 0.  1.
         21    1    1    2  503  502  0.47463799439E+02 -0.14991185837E+02 -0.98838382881E+02  0.11066423921E+03  0.00000000000E+00 0. -1.
         21    1    1    2  504  503  0.18186118983E+02 -0.25972323914E+02  0.10403817026E+03  0.10876229771E+03  0.00000000000E+00 0. -1.
         21    1    1    2  505  501 -0.98035692441E+02  0.84578348230E+02 -0.52581713639E+03  0.54152391905E+03  0.00000000000E+00 0.  1.
          3    1    1    2  501    0  0.32385774019E+02 -0.43614838479E+02  0.25342126721E+04  0.25347948556E+04  0.00000000000E+00 0.  1.
<scales pt_clust_3="49.83338" pt_clust_4="31.70641" pt_clust_5="86.08925" pt_clust_6="14000.00000"></scales>
<clustering>
<clus scale="   31.706">  1  4  2 -1</clus>
<clus scale="   49.833">  2  3  1 -1</clus>
<clus scale="   86.089">  2  5  1 -1</clus>
<clus scale="   49.833">  2  3  1 -1</clus>
</clustering>
</event>
<event>
 6    0  0.1849053E+002  0.2258033E+03  0.7546771E-02  0.1129629E+00
          2   -1    0    0  505    0 -0.00000000000E+00  0.00000000000E+00  0.59689471331E+03  0.59689471331E+03  0.00000000000E+00 0. -1.
         21   -1    0    0  501  502  0.00000000000E+00 -0.00000000000E+00 -0.30853191182E+03  0.30853191182E+03  0.00000000000E+00 0.  1.
         21    1    1    2  503  502  0.13668041667E+03  0.26544808346E+02 -0.11742678694E+03  0.18214064193E+03  0.00000000000E+00 0.  1.
         21    1    1    2  504  503  0.82501395895E+02 -0.13763953619E+02 -0.98666297910E+02  0.12934823187E+03  0.00000000000E+00 0.  1.
         21    1    1    2  505  504 -0.23368384515E+03 -0.59083428713E+02  0.48512952294E+03  0.54170992705E+03  0.00000000000E+00 0. -1.
          2    1    1    2  501    0  0.14502032590E+02  0.46302573986E+02  0.19326363406E+02  0.52227824285E+02  0.00000000000E+00 0. -1.
<scales pt_clust_3="35.72942" pt_clust_4="35.72942" pt_clust_5="221.04757" pt_clust_6="48.52048"></scales>
<clustering>
<clus scale="   35.729">  3  4 -1 -1</clus>
<clus scale="   48.520">  1  6  2 -1</clus>
<clus scale="  221.048">  1  5  2 -1</clus>
<clus scale="  225.803">  2  3  1 -1</clus>
</clustering>
</event>
<event>
 6    0  0.1849053E+002  0.1581613E+03  0.7546771E-02  0.1190788E+00
          2   -1    0    0  505    0 -0.00000000000E+00  0.00000000000E+00  0.10355115851E+04  0.10355115851E+04  0.00000000000E+00 0. -1.
         21   -1    0    0  503  502  0.00000000000E+00 -0.00000000000E+00 -0.36239768182E+03  0.36239768182E+03  0.00000000000E+00 0. -1.
         21    1    1    2  503  501  0.30283988932E+02  0.88219903339E+01 -0.20918431560E+03  0.21154910870E+03  0.00000000000E+00 0. -1.
         21    1    1    2  504  502  0.13599545047E+03  0.84173629086E+01 -0.10926748886E+03  0.17465680252E+03  0.00000000000E+00 0. -1.
         21    1    1    2  505  504 -0.56390345908E+02  0.73765976943E+01  0.64046394643E+03  0.64298394380E+03  0.00000000000E+00 0. -1.
          2    1    1    2  501    0 -0.10988909349E+03 -0.24615950937E+02  0.35110176132E+03  0.36871941189E+03  0.00000000000E+00 0. -1.
<scales pt_clust_3="31.54279" pt_clust_4="158.16129" pt_clust_5="56.63149" pt_clust_6="14000.00000"></scales>
<clustering>
<clus scale="   31.543">  2  3  1 -1</clus>
<clus scale="   56.631">  1  5  2 -1</clus>
<clus scale="  158.161">  2  4  1 -1</clus>
<clus scale="   31.543">  2  3  1 -1</clus>
</clustering>
</event>
<event>
 6    0  0.1849053E+002  0.2080535E+03  0.7546771E-02  0.1143117E+00
          2   -1    0    0  503    0 -0.00000000000E+00  0.00000000000E+00  0.61969931987E+03  0.61969931987E+03  0.00000000000E+00 0. -1.
         21   -1    0    0  504  502  0.00000000000E+00 -0.00000000000E+00 -0.19983333913E+03  0.19983333913E+03  0.00000000000E+00 0.  1.
         21    1    1    2  503  505 -0.90377157411E+02  0.64629059158E+02 -0.21131850481E+02  0.11309951801E+03  0.00000000000E+00 0.  1.
         21    1    1    2  504  501  0.34411616130E+02  0.30381899145E+00  0.15915808383E+02  0.37915228960E+02  0.00000000000E+00 0. -1.
         21    1    1    2  505  502 -0.90927543806E+02  0.72100839301E+02 -0.69103799419E+02  0.13506177973E+03  0.00000000000E+00 0.  1.
          2    1    1    2  501    0  0.14689308509E+03 -0.13703371745E+03  0.49418582226E+03  0.53345613230E+03  0.00000000000E+00 0. -1.
<scales pt_clust_3="43.14060" pt_clust_4="34.41296" pt_clust_5="43.14060" pt_clust_6="203.49737"></scales>
<clustering>
<clus scale="   34.413">  2  4  1 -1</clus>
<clus scale="   43.141">  3  5 -1 -1</clus>
<clus scale="  203.497">  1  6  2 -1</clus>
<clus scale="   34.413">  2  3  1 -1</clus>
</clustering>
</event>
<event>
 6    0  0.1849053E+002  0.9930226E+02  0.7546771E-02  0.1281770E+00
         21   -1    0    0  504  502  0.00000000000E+00  0.00000000000E+00  0.12781638729E+03  0.12781638729E+03  0.00000000000E+00 0.  1.
          1   -1    0    0  505    0 -0.00000000000E+00 -0.00000000000E+00 -0.28711376290E+03  0.28711376290E+03  0.00000000000E+00 0. -1.
         21    1    1    2  503  501  0.87540760269E+02  0.71221990558E+02 -0.71928198901E+02  0.13382683754E+03  0.00000000000E+00 0.  1.
         21    1    1    2  504  503 -0.36472614598E+02 -0.49432262223E+01  0.44789564031E+02  0.57972339500E+02  0.00000000000E+00 0.  1.
         21    1    1    2  505  502 -0.16497485395E+02  0.25185911532E+02  0.24259369755E+02  0.38665413291E+02  0.00000000000E+00 0.  1.
          1    1    1    2  501    0 -0.34570660276E+02 -0.91464675868E+02 -0.15641811050E+03  0.18446555986E+03  0.00000000000E+00 0. -1.
<scales pt_clust_3="99.30226" pt_clust_4="46.05865" pt_clust_5="30.10809" pt_clust_6="14000.00000"></scales>
<clustering>
<clus scale="   30.108">  1  5  2 -1</clus>
<clus scale="   46.059">  1  4  2 -1</clus>
<clus scale="   99.302">  1  3  2 -1</clus>
<clus scale="   30.108">  1  3  2 -1</clus>
</clustering>
</event>
<event>
 6    0  0.1849053E+002  0.1703579E+03  0.7546771E-02  0.1177475E+00
          2   -1    0    0  505    0 -0.00000000000E+00  0.00000000000E+00  0.15776518061E+04  0.15776518061E+04  0.00000000000E+00 0.  1.
         21   -1    0    0  504  502  0.00000000000E+00 -0.00000000000E+00 -0.23343973226E+03  0.23343973226E+03  0.00000000000E+00 0. -1.
         21    1    1    2  503  501  0.72496591594E+02  0.16466425978E+02  0.82721647065E+03  0.83055041285E+03  0.00000000000E+00 0.  1.
         21    1    1    2  504  503  0.13766882365E+02  0.50765067535E+02  0.15269315175E+02  0.54770166312E+02  0.00000000000E+00 0.  1.
         21    1    1    2  505  502 -0.16690392490E+03 -0.22205033989E+02 -0.17495529890E+03  0.24281544493E+03  0.00000000000E+00 0. -1.
          2    1    1    2  501    0  0.80640450945E+02 -0.45026459524E+02  0.67668158693E+03  0.68295551427E+03  0.00000000000E+00 0.  1.
<scales pt_clust_3="61.80736" pt_clust_4="52.59866" pt_clust_5="155.87697" pt_clust_6="61.80736"></scales>
<clustering>
<clus scale="   52.599">  2  4  1 -1</clus>
<clus scale="   61.807">  3  6 -1 -1</clus>
<clus scale="  155.877">  2  5  1 -1</clus>
<clus scale="   52.599">  2  3  1 -1</clus>
</clustering>
</event>
<event>
 6    0  0.1849053E+002  0.3098995E+03  0.7546771E-02  0.1080394E+00
         -1   -1    0    0    0  501 -0.00000000000E+00  0.00000000000E+00  0.12926624097E+04  0.12926624097E+04  0.00000000000E+00 0.  1.
         21   -1    0    0  501  502  0.00000000000E+00 -0.00000000000E+00 -0.11944717813E+03  0.11944717813E+03  0.00000000000E+00 0.  1.
         21    1    1    2  503  504  0.13692558685E+03 -0.97237477500E+02  0.34192176803E+03  0.38093862867E+03  0.00000000000E+00 0.  1.
         21    1    1    2  504  505 -0.33209454598E+03  0.93690238535E+02  0.38438101645E+03  0.51653984752E+03  0.00000000000E+00 0.  1.
         21    1    1    2  505  502  0.83894725069E+02  0.60145519395E+02  0.91541768294E+02  0.13796993781E+03  0.00000000000E+00 0.  1.
         -1    1    1    2    0  503  0.11127423406E+03 -0.56598280431E+02  0.35537067881E+03  0.37666117383E+03  0.00000000000E+00 0.  1.
<scales pt_clust_3="42.86831" pt_clust_4="305.88489" pt_clust_5="103.22698" pt_clust_6="42.86831"></scales>
<clustering>
<clus scale="   42.868">  3  6 -1 -1</clus>
<clus scale="  103.227">  2  5  1 -1</clus>
<clus scale="  305.885">  2  4  1 -1</clus>
<clus scale="  103.227">  2  3  1 -1</clus>
</clustering>
</event>
<event>
 6    0  0.1849053E+002  0.1570835E+03  0.7546771E-02  0.1192029E+00
          2   -1    0    0  504    0 -0.00000000000E+00  0.00000000000E+00  0.10108893345E+03  0.10108893345E+03  0.00000000000E+00 0.  1.
         21   -1    0    0  505  502  0.00000000000E+00 -0.00000000000E+00 -0.64280925059E+03  0.64280925059E+03  0.00000000000E+00 0. -1.
         21    1    1    2  503  501 -0.10212097473E+03 -0.20894118422E+02 -0.16046828757E+02  0.10546448871E+03  0.00000000000E+00 0.  1.
         21    1    1    2  504  502  0.12237912547E+03  0.98581050435E+01 -0.51557553551E+03  0.52999242014E+03  0.00000000000E+00 0. -1.
         21    1    1    2  505  503  0.24067229067E+02  0.21180859448E+02 -0.42041515796E+02  0.52871063658E+02  0.00000000000E+00 0. -1.
          2    1    1    2  501    0 -0.44325379805E+02 -0.10144846069E+02  0.31943562929E+02  0.55570211528E+02  0.00000000000E+00 0.  1.
<scales pt_clust_3="38.05295" pt_clust_4="146.30693" pt_clust_5="32.06026" pt_clust_6="38.05295"></scales>
<clustering>
<clus scale="   32.060">  2  5  1 -1</clus>
<clus scale="   38.053">  3  6 -1 -1</clus>
<clus scale="  146.307">  2  4  1 -1</clus>
<clus scale="   32.060">  2  3  1 -1</clus>
</clustering>
</event>
<event>
 6    0  0.1849053E+002  0.1059166E+03  0.7546771E-02  0.1268324E+00
         21   -1    0    0  503  502  0.00000000000E+00  0.00000000000E+00  0.85214873649E+03  0.85214873649E+03  0.00000000000E+00 0.  1.
          3   -1    0    0  505    0 -0.00000000000E+00 -0.00000000000E+00 -0.12026811240E+03  0.12026811240E+03  0.00000000000E+00 0. -1.
         21    1    1    2  503  501  0.10680124289E+03 -0.86959350717E+02  0.59101429576E+03  0.60684951343E+03  0.00000000000E+00 0.  1.
         21    1    1    2  504  502 -0.33140870703E+02  0.73289173920E+02  0.20310629186E+03  0.21845316688E+03  0.00000000000E+00 0. -1.
         21    1    1    2  505  504  0.27096208507E+02  0.14788557476E+02 -0.24883145423E+02  0.39649424634E+02  0.00000000000E+00 0.  1.
          3    1    1    2  501    0 -0.10075658070E+03 -0.11183806781E+01 -0.37356818115E+02  0.10746474394E+03  0.00000000000E+00 0. -1.
<scales pt_clust_3="105.91656" pt_clust_4="14000.00000" pt_clust_5="30.86917" pt_clust_6="79.23524"></scales>
<clustering>
<clus scale="   30.869">  2  5  1 -1</clus>
<clus scale="   79.235">  2  6  1 -1</clus>
<clus scale="  105.917">  2  3  1 -1</clus>
<clus scale="  105.917">  1  3  2 -1</clus>
</clustering>
</event>
<event>
 6    0  0.1849053E+002  0.9542697E+02  0.7546771E-02  0.1290217E+00
          1   -1    0    0  504    0 -0.00000000000E+00  0.00000000000E+00  0.34030403422E+04  0.34030403422E+04  0.00000000000E+00 0.  1.
         21   -1    0    0  501  502  0.00000000000E+00 -0.00000000000E+00 -0.20487916151E+03  0.20487916151E+03  0.00000000000E+00 0.  1.
         21    1    1    2  503  505 -0.35052611762E+02  0.26769506660E+02  0.40263098302E+02  0.59719420317E+02  0.00000000000E+00 0.  1.
         21    1    1    2  504  503 -0.89380904193E+02 -0.33865217201E+02  0.75802187022E+03  0.76402418463E+03  0.00000000000E+00 0.  1.
         21    1    1    2  505  502  0.28009318122E+02  0.33390565263E+02 -0.18870169790E+03  0.19366926070E+03  0.00000000000E+00 0.  1.
          1    1    1    2  501    0  0.96424197832E+02 -0.26294854722E+02  0.25885779101E+04  0.25905066380E+04  0.00000000000E+00 0.  1.
<scales pt_clust_3="52.71580" pt_clust_4="95.42697" pt_clust_5="43.58270" pt_clust_6="14000.00000"></scales>
<clustering>
<clus scale="   43.583">  2  5  1 -1</clus>
<clus scale="   52.716">  2  3  1 -1</clus>
<clus scale="   95.427">  2  4  1 -1</clus>
<clus scale="   43.583">  2  3  1 -1</clus>
</clustering>
</event>
<event>
 6    0  0.1849053E+002  0.1171048E+03  0.7546771E-02  0.1247951E+00
          1   -1    0    0  505    0 -0.00000000000E+00  0.00000000000E+00  0.87369088609E+03  0.87369088609E+03  0.00000000000E+00 0. -1.
         21   -1    0    0  504  502  0.00000000000E+00 -0.00000000000E+00 -0.27709683117E+03  0.27709683117E+03  0.00000000000E+00 0. -1.
         21    1    1    2  503  502  0.23352608582E+02 -0.10631376163E+03 -0.24245997468E+03  0.26577208198E+03  0.00000000000E+00 0. -1.
         21    1    1    2  504  501  0.45214166559E+02  0.35650295407E+02  0.40870701484E+03  0.41274288413E+03  0.00000000000E+00 0. -1.
         21    1    1    2  505  503 -0.71121306515E+02  0.20769837591E+02  0.51705970635E+02  0.90350062497E+02  0.00000000000E+00 0. -1.
          1    1    1    2  501    0  0.25545313742E+01  0.49893628635E+02  0.37864104412E+03  0.38192268865E+03  0.00000000000E+00 0. -1.
<scales pt_clust_3="108.33628" pt_clust_4="41.41504" pt_clust_5="74.09201" pt_clust_6="41.41504"></scales>
<clustering>
<clus scale="   41.415">  4  6 -1 -1</clus>
<clus scale="   74.092">  1  5  2 -1</clus>
<clus scale="  108.336">  2  3  1 -1</clus>
<clus scale="  108.336">  2  3  1 -1</clus>
</clustering>
</event>
<event>
 6    0  0.1849053E+002  0.8990223E+02  0.7546771E-02  0.1303089E+00
          1   -1    0    0  504    0 -0.00000000000E+00  0.00000000000E+00  0.24052308073E+04  0.24052308073E+04  0.00000000000E+00 0.  1.
         21   -1    0    0  503  502  0.00000000000E+00 -0.00000000000E+00 -0.92402869856E+02  0.92402869856E+02  0.00000000000E+00 0. -1.
         21    1    1    2  503  501  0.79692979355E+01 -0.95343091917E+02 -0.42614838673E+01  0.95770429312E+02  0.00000000000E+00 0. -1.
         21    1    1    2  504  505 -0.27393946714E+02  0.19204220770E+02  0.34910220453E+03  0.35070155349E+03  0.00000000000E+00 0. -1.
         21    1    1    2  505  502  0.68846649628E+02  0.43862958519E+02 -0.65488160697E+00  0.81634852636E+02  0.00000000000E+00 0. -1.
          1    1    1    2  501    0 -0.49422000850E+02  0.32275912628E+02  0.19686420984E+04  0.19695268417E+04  0.00000000000E+00 0.  1.
<scales pt_clust_3="14000.00000" pt_clust_4="33.45490" pt_clust_5="81.38265" pt_clust_6="89.90223"></scales>
<clustering>
<clus scale="   33.455">  1  4  2 -1</clus>
<clus scale="   81.383">  2  5  1 -1</clus>
<clus scale="   89.902">  1  6  2 -1</clus>
<clus scale="   81.383">  2  3  1 -1</clus>
</clustering>
</event>
<event>
 6    0  0.1849053E+002  0.8027858E+02  0.7546771E-02  0.1328263E+00
          2   -1    0    0  503    0 -0.00000000000E+00  0.00000000000E+00  0.78314919336E+03  0.78314919336E+03  0.00000000000E+00 0. -1.
         21   -1    0    0  501  502  0.00000000000E+00 -0.00000000000E+00 -0.43022096478E+02  0.43022096478E+02  0.00000000000E+00 0.  1.
         21    1    1    2  503  504  0.56693463054E+02  0.53295551566E+02  0.43388989677E+03  0.44081175924E+03  0.00000000000E+00 0. -1.
         21    1    1    2  504  505 -0.55596233956E+02 -0.79902463825E+02  0.88857499673E+02  0.13179909030E+03  0.00000000000E+00 0.  1.
         21    1    1    2  505  502 -0.64129159628E+02  0.80387243742E+01  0.11467283366E+03  0.13163217306E+03  0.00000000000E+00 0.  1.
          2    1    1    2  501    0  0.63031930530E+02  0.18568187885E+02  0.10270686678E+03  0.12192826724E+03  0.00000000000E+00 0. -1.
<scales pt_clust_3="80.27858" pt_clust_4="14000.00000" pt_clust_5="64.63103" pt_clust_6="49.74853"></scales>
<clustering>
<clus scale="   64.631">  2  5  1 -1</clus>
<clus scale="   49.749">  2  6  1 -1</clus>
<clus scale="   80.279">  1  3  2 -1</clus>
<clus scale="   64.631">  2  3  1 -1</clus>
</clustering>
</event>
<event>
 6    0  0.1849053E+002  0.1288276E+03  0.7546771E-02  0.1229206E+00
          1   -1    0    0  504    0 -0.00000000000E+00  0.00000000000E+00  0.10858882431E+04  0.10858882431E+04  0.00000000000E+00 0. -1.
         21   -1    0    0  505  502  0.00000000000E+00 -0.00000000000E+00 -0.18292757958E+03  0.18292757958E+03  0.00000000000E+00 0.  1.
         21    1    1    2  503  501 -0.58534984328E+02  0.27219455608E+02 -0.51169677250E+02  0.82374626091E+02  0.00000000000E+00 0.  1.
         21    1    1    2  504  502  0.86905005609E+02 -0.12262680374E+02  0.28053019130E+03  0.29393883983E+03  0.00000000000E+00 0. -1.
         21    1    1    2  505  503 -0.42121212367E+02  0.48317295875E+02 -0.98593522082E+02  0.11759864033E+03  0.00000000000E+00 0.  1.
          1    1    1    2  501    0  0.13751191085E+02 -0.63274071110E+02  0.77219367158E+03  0.77490371645E+03  0.00000000000E+00 0. -1.
<scales pt_clust_3="41.36047" pt_clust_4="121.95786" pt_clust_5="41.36047" pt_clust_6="64.75109"></scales>
<clustering>
<clus scale="   41.360">  3  5 -1 -1</clus>
<clus scale="   64.751">  1  6  2 -1</clus>
<clus scale="  121.958">  1  4  2 -1</clus>
<clus scale="  128.828">  2  3  1 -1</clus>
</clustering>
</event>
<event>
 6    0  0.1849053E+002  0.2601059E+03  0.7546771E-02  0.1107080E+00
          2   -1    0    0  505    0 -0.00000000000E+00  0.00000000000E+00  0.48130037140E+03  0.48130037140E+03  0.00000000000E+00 0.  1.
         21   -1    0    0  504  502  0.00000000000E+00 -0.00000000000E+00 -0.15105855380E+03  0.15105855380E+03  0.00000000000E+00 0.  1.
         21    1    1    2  503  501 -0.18002324742E+03 -0.98002821412E+02  0.88070737203E+02  0.22309051385E+03  0.00000000000E+00 0.  1.
         21    1    1    2  504  503 -0.39060780166E+02  0.68547760148E+01  0.56391307769E+02  0.68939916546E+02  0.00000000000E+00 0.  1.
         21    1    1    2  505  502  0.21947869261E+03  0.12413024754E+03  0.16536813237E+03  0.30153910868E+03  0.00000000000E+00 0.  1.
          2    1    1    2  501    0 -0.39466501929E+00 -0.32982202139E+02  0.20411640259E+02  0.38789386132E+02  0.00000000000E+00 0.  1.
<scales pt_clust_3="38.82185" pt_clust_4="38.82185" pt_clust_5="244.02535" pt_clust_6="32.98456"></scales>
<clustering>
<clus scale="   32.985">  1  6  2 -1</clus>
<clus scale="   38.822">  3  4 -1 -1</clus>
<clus scale="  244.025">  1  5  2 -1</clus>
<clus scale="  260.106">  2  3  1 -1</clus>
</clustering>
</event>
<event>
 6    0  0.1849053E+002  0.1755360E+03  0.7546771E-02  0.1172195E+00
         21   -1    0    0  503  502  0.00000000000E+00  0.00000000000E+00  0.44347045241E+03  0.44347045241E+03  0.00000000000E+00 0. -1.
          1   -1    0    0  505    0 -0.00000000000E+00 -0.00000000000E+00 -0.69683053168E+03  0.69683053168E+03  0.00000000000E+00 0. -1.
         21    1    1    2  503  504 -0.70544142482E+02  0.31884464492E+02 -0.59085590897E+02  0.97386868550E+02  0.00000000000E+00 0.  1.
         21    1    1    2  504  501 -0.50755791681E+02 -0.56014939686E+01 -0.10657816633E+03  0.11817966264E+03  0.00000000000E+00 0.  1.
         21    1    1    2  505  502  0.16852303584E+03  0.12751457667E+02  0.39945998786E+03  0.43374058512E+03  0.00000000000E+00 0. -1.
          1    1    1    2  501    0 -0.47223101675E+02 -0.39034428190E+02 -0.48715630991E+03  0.49099386778E+03  0.00000000000E+00 0. -1.
<scales pt_clust_3="48.86496" pt_clust_4="48.86496" pt_clust_5="164.90269" pt_clust_6="61.26751"></scales>
<clustering>
<clus scale="   48.865">  3  4 -1 -1</clus>
<clus scale="   61.268">  2  6  1 -1</clus>
<clus scale="  164.903">  1  5  2 -1</clus>
<clus scale="  164.903">  1  3  2 -1</clus>
</clustering>
</event>
<event>
 6    0  0.1849053E+002  0.9793799E+02  0.7546771E-02  0.1284693E+00
         21   -1    0    0  505  502  0.00000000000E+00  0.00000000000E+00  0.19214847210E+03  0.19214847210E+03  0.00000000000E+00 0.  1.
         -4   -1    0    0    0  501 -0.00000000000E+00 -0.00000000000E+00 -0.14979570867E+03  0.14979570867E+03  0.00000000000E+00 0.  1.
         21    1    1    2  503  502 -0.32085552192E+02 -0.14336647403E+02  0.13276462342E+02  0.37567094252E+02  0.00000000000E+00 0.  1.
         21    1    1    2  504  501 -0.20873877679E+02  0.27869138396E+02  0.35539845870E+01  0.35000549292E+02  0.00000000000E+00 0.  1.
         21    1    1    2  505  504  0.62906962295E+02  0.95441273011E+02  0.87193926572E+02  0.14376753225E+03  0.00000000000E+00 0.  1.
         -4    1    1    2    0  503 -0.99475324241E+01 -0.10897376400E+03 -0.61671610068E+02  0.12560900498E+03  0.00000000000E+00 0.  1.
<scales pt_clust_3="35.97117" pt_clust_4="34.81964" pt_clust_5="14000.00000" pt_clust_6="97.93799"></scales>
<clustering>
<clus scale="   34.820">  2  4  1 -1</clus>
<clus scale="   35.971">  1  3  2 -1</clus>
<clus scale="   97.938">  2  6  1 -1</clus>
<clus scale="   35.971">  1  3  2 -1</clus>
</clustering>
</event>
<event>
 6    0  0.1849053E+002  0.1065699E+03  0.7546771E-02  0.1267057E+00
         21   -1    0    0  505  502  0.00000000000E+00  0.00000000000E+00  0.95915226364E+02  0.95915226364E+02  0.00000000000E+00 0. -1.
         -4   -1    0    0    0  501 -0.00000000000E+00 -0.00000000000E+00 -0.12427596084E+04  0.12427596084E+04  0.00000000000E+00 0.  1.
         21    1    1    2  503  502 -0.63789523029E+02 -0.11560108050E+03  0.16136731394E+02  0.13301543956E+03  0.00000000000E+00 0. -1.
         21    1    1    2  504  501  0.27325023496E+02 -0.24947827917E+02 -0.10331139684E+03  0.10973739446E+03  0.00000000000E+00 0. -1.
         21    1    1    2  505  504  0.59227829758E+02  0.12750629230E+02 -0.51751104461E+02  0.79678674540E+02  0.00000000000E+00 0. -1.
         -4    1    1    2    0  503 -0.22763330225E+02  0.12779827919E+03 -0.10079186122E+04  0.10162433262E+04  0.00000000000E+00 0.  1.
<scales pt_clust_3="106.56989" pt_clust_4="37.00069" pt_clust_5="61.85064" pt_clust_6="14000.00000"></scales>
<clustering>
<clus scale="   37.001">  2  4  1 -1</clus>
<clus scale="   61.851">  1  5  2 -1</clus>
<clus scale="  106.570">  1  3  2 -1</clus>
<clus scale="   61.851">  1  3  2 -1</clus>
</clustering>
</event>
<event>
 6    0  0.1849053E+002  0.1521904E+03  0.7546771E-02  0.1197807E+00
          2   -1    0    0  503    0 -0.00000000000E+00  0.00000000000E+00  0.97143587101E+03  0.97143587101E+03  0.00000000000E+00 0. -1.
         21   -1    0    0  501  502  0.00000000000E+00 -0.00000000000E+00 -0.33218436345E+03  0.33218436345E+03  0.00000000000E+00 0. -1.
         21    1    1    2  503  505  0.85286659775E+02 -0.16174611572E+02  0.62722142911E+02  0.10709574971E+03  0.00000000000E+00 0.  1.
         21    1    1    2  504  502  0.16924951641E+02  0.59823560058E+02 -0.12838344748E+03  0.14264509074E+03  0.00000000000E+00 0.  1.
         21    1    1    2  505  504  0.63165781522E+02  0.62398962530E+02 -0.15129360594E+03  0.17542320736E+03  0.00000000000E+00 0. -1.
          2    1    1    2  501    0 -0.16537739294E+03 -0.10604791102E+03  0.85620641807E+03  0.87845618665E+03  0.00000000000E+00 0. -1.
<scales pt_clust_3="86.80687" pt_clust_4="33.42253" pt_clust_5="33.42253" pt_clust_6="146.85570"></scales>
<clustering>
<clus scale="   33.423">  4  5 -1 -1</clus>
<clus scale="   86.807">  1  3  2 -1</clus>
<clus scale="  146.856">  1  6  2 -1</clus>
<clus scale="  152.190">  2  3  1 -1</clus>
</clustering>
</event>
<event>
 6    0  0.1849053E+002  0.1385033E+03  0.7546771E-02  0.1215357E+00
         21   -1    0    0  501  502  0.00000000000E+00  0.00000000000E+00  0.16520647335E+03  0.16520647335E+03  0.00000000000E+00 0.  1.
         -1   -1    0    0    0  501 -0.00000000000E+00 -0.00000000000E+00 -0.59240669114E+03  0.59240669114E+03  0.00000000000E+00 0. -1.
         21    1    1    2  503  502 -0.40859587551E+02 -0.30177541338E+02  0.45988562556E+02  0.68521075459E+02  0.00000000000E+00 0.  1.
         21    1    1    2  504  503  0.86710082885E+00  0.85835071006E+02  0.42448726110E+02  0.95761712740E+02  0.00000000000E+00 0.  1.
         21    1    1    2  505  504  0.88639336544E+02  0.88386946604E+02 -0.13841974407E+03  0.18662585528E+03  0.00000000000E+00 0.  1.
         -1    1    1    2    0  505 -0.48646849822E+02 -0.14404447627E+03 -0.37721776239E+03  0.40670452101E+03  0.00000000000E+00 0. -1.
<scales pt_clust_3="50.79557" pt_clust_4="71.16209" pt_clust_5="138.50334" pt_clust_6="14000.00000"></scales>
<clustering>
<clus scale="   50.796">  1  3  2 -1</clus>
<clus scale="   71.162">  1  4  2 -1</clus>
<clus scale="  138.503">  1  5  2 -1</clus>
<clus scale="   50.796">  1  3  2 -1</clus>
</clustering>
</event>
<event>
 6    0  0.1849053E+002  0.1358047E+03  0.7546771E-02  0.1219088E+00
         21   -1    0    0  503  502  0.00000000000E+00  0.00000000000E+00  0.29921864550E+03  0.29921864550E+03  0.00000000000E+00 0.  1.
          2   -1    0    0  502    0 -0.00000000000E+00 -0.00000000000E+00 -0.10465417586E+03  0.10465417586E+03  0.00000000000E+00 0.  1.
         21    1    1    2  503  505  0.34760277336E+02  0.87396147646E+02  0.19420268968E+03  0.21578009218E+03  0.00000000000E+00 0.  1.
         21    1    1    2  504  501 -0.40542151244E+02 -0.27924373198E+02 -0.14428081622E+01  0.49249551687E+02  0.00000000000E+00 0.  1.
         21    1    1    2  505  504  0.34434529235E+02  0.13797380264E+02  0.37235700601E+02  0.52560459520E+02  0.00000000000E+00 0.  1.
          2    1    1    2  501    0 -0.28652655327E+02 -0.73269154712E+02 -0.35431112477E+02  0.86282717973E+02  0.00000000000E+00 0.  1.
<scales pt_clust_3="36.69939" pt_clust_4="35.21011" pt_clust_5="36.69939" pt_clust_6="130.41975"></scales>
<clustering>
<clus scale="   35.210">  4  6 -1 -1</clus>
<clus scale="   36.699">  3  5 -1 -1</clus>
<clus scale="  130.420">  2  4  1 -1</clus>
<clus scale="  135.805">  1  3  2 -1</clus>
</clustering>
</event>
<event>
 6    0  0.1849053E+002  0.1305339E+03  0.7546771E-02  0.1226666E+00
         21   -1    0    0  501  502  0.00000000000E+00  0.00000000000E+00  0.25043067065E+03  0.25043067065E+03  0.00000000000E+00 0. -1.
          2   -1    0    0  505    0 -0.00000000000E+00 -0.00000000000E+00 -0.12848076174E+04  0.12848076174E+04  0.00000000000E+00 0. -1.
         21    1    1    2  503  504 -0.99787541514E+02  0.46555228406E+02  0.16884554805E+03  0.20157817796E+03  0.00000000000E+00 0. -1.
         21    1    1    2  504  502 -0.30726569170E+02 -0.22105619302E+02  0.51677889334E+02  0.64057667017E+02  0.00000000000E+00 0. -1.
         21    1    1    2  505  503  0.35750671250E+02 -0.51643093866E+02 -0.18923794455E+03  0.19938936605E+03  0.00000000000E+00 0.  1.
          2    1    1    2  501    0  0.94763439434E+02  0.27193484762E+02 -0.10656624396E+04  0.10702130771E+04  0.00000000000E+00 0. -1.
<scales pt_clust_3="14000.00000" pt_clust_4="37.85209" pt_clust_5="62.83620" pt_clust_6="130.53393"></scales>
<clustering>
<clus scale="   37.852">  1  4  2 -1</clus>
<clus scale="   62.836">  2  5  1 -1</clus>
<clus scale="  130.534">  2  6  1 -1</clus>
<clus scale="   37.852">  1  3  2 -1</clus>
</clustering>
</event>
<event>
 6    0  0.1849053E+002  0.2337233E+03  0.7546771E-02  0.1124046E+00
         21   -1    0    0  504  502  0.00000000000E+00  0.00000000000E+00  0.85946395841E+03  0.85946395841E+03  0.00000000000E+00 0. -1.
         -2   -1    0    0    0  501 -0.00000000000E+00 -0.00000000000E+00 -0.81616734641E+03  0.81616734641E+03  0.00000000000E+00 0.  1.
         21    1    1    2  503  501 -0.61035062205E+02 -0.46805024498E+02 -0.12235549207E+03  0.14452285486E+03  0.00000000000E+00 0.  1.
         21    1    1    2  504  503  0.20288024331E+03  0.12264001725E+02  0.73806763999E+03  0.76554205637E+03  0.00000000000E+00 0. -1.
         21    1    1    2  505  502  0.32616943135E+02 -0.39298343634E+02  0.75148659241E+02  0.90860033995E+02  0.00000000000E+00 0.  1.
         -2    1    1    2    0  505 -0.17446212424E+03  0.73839366407E+02 -0.64756419517E+03  0.67470635961E+03  0.00000000000E+00 0.  1.
<scales pt_clust_3="76.89082" pt_clust_4="14000.00000" pt_clust_5="51.07078" pt_clust_6="233.72328"></scales>
<clustering>
<clus scale="   51.071">  1  5  2 -1</clus>
<clus scale="   76.891">  2  3  1 -1</clus>
<clus scale="  233.723">  2  6  1 -1</clus>
<clus scale="   51.071">  1  3  2 -1</clus>
</clustering>
</event>
<event>
 6    0  0.1849053E+002  0.1325335E+03  0.7546771E-02  0.1223744E+00
          3   -1    0    0  502    0 -0.00000000000E+00  0.00000000000E+00  0.39642841255E+03  0.39642841255E+03  0.00000000000E+00 0. -1.
         21   -1    0    0  505  502  0.00000000000E+00 -0.00000000000E+00 -0.21239863932E+04  0.21239863932E+04  0.00000000000E+00 0.  1.
         21    1    1    2  503  504  0.14938274706E+01  0.84541371138E+02 -0.24726856035E+03  0.26132588064E+03  0.00000000000E+00 0. -1.
         21    1    1    2  504  501 -0.44307568501E+01 -0.30838377560E+02  0.40753961916E+02  0.51298367895E+02  0.00000000000E+00 0. -1.
         21    1    1    2  505  503  0.41248821396E+02  0.31107833211E+02 -0.18577456645E+04  0.18584639132E+04  0.00000000000E+00 0.  1.
          3    1    1    2  501    0 -0.38311892016E+02 -0.84810826789E+02  0.33670228225E+03  0.34932664410E+03  0.00000000000E+00 0. -1.
<scales pt_clust_3="121.40681" pt_clust_4="30.75564" pt_clust_5="51.66394" pt_clust_6="30.75564"></scales>
<clustering>
<clus scale="   30.756">  4  6 -1 -1</clus>
<clus scale="   51.664">  2  5  1 -1</clus>
<clus scale="  121.407">  2  3  1 -1</clus>
<clus scale="   51.664">  2  3  1 -1</clus>
</clustering>
</event>
<event>
 6    0  0.1849053E+002  0.1269247E+03  0.7546771E-02  0.1232092E+00
         21   -1    0    0  503  502  0.00000000000E+00  0.00000000000E+00  0.20987408773E+03  0.20987408773E+03  0.00000000000E+00 0. -1.
          2   -1    0    0  504    0 -0.00000000000E+00 -0.00000000000E+00 -0.18450117942E+04  0.18450117942E+04  0.00000000000E+00 0.  1.
         21    1    1    2  503  501 -0.19940551928E+02 -0.23328514489E+02  0.12272342113E+03  0.12650250311E+03  0.00000000000E+00 0. -1.
         21    1    1    2  504  505 -0.82930800334E+02 -0.67952774670E+02 -0.24997626338E+03  0.27199858361E+03  0.00000000000E+00 0. -1.
         21    1    1    2  505  502  0.36390117041E+02 -0.24464213142E+02  0.64692488496E+02  0.78152776090E+02  0.00000000000E+00 0.  1.
          2    1    1    2  501    0  0.66481235222E+02  0.11574550230E+03 -0.15725773527E+04  0.15782320191E+04  0.00000000000E+00 0.  1.
<scales pt_clust_3="30.68950" pt_clust_4="126.92471" pt_clust_5="48.20891" pt_clust_6="14000.00000"></scales>
<clustering>
<clus scale="   30.689">  1  3  2 -1</clus>
<clus scale="   48.209">  1  5  2 -1</clus>
<clus scale="  126.925">  1  4  2 -1</clus>
<clus scale="   30.689">  1  3  2 -1</clus>
</clustering>
</event>
<event>
 6    0  0.1849053E+002  0.8972236E+02  0.7546771E-02  0.1303525E+00
          2   -1    0    0  504    0 -0.00000000000E+00  0.00000000000E+00  0.16608593867E+04  0.16608593867E+04  0.00000000000E+00 0.  1.
         21   -1    0    0  503  502  0.00000000000E+00 -0.00000000000E+00 -0.17016668219E+02  0.17016668219E+02  0.00000000000E+00 0.  1.
         21    1    1    2  503  501  0.28529016710E+02  0.14766173243E+02  0.83716700474E+02  0.89668448213E+02  0.00000000000E+00 0.  1.
         21    1    1    2  504  505 -0.34960394547E+02  0.70020331081E+02  0.70233805918E+03  0.70668509630E+03  0.00000000000E+00 0.  1.
         21    1    1    2  505  502  0.57104149767E+01  0.34605766883E+02  0.33065844678E+02  0.48202883991E+02  0.00000000000E+00 0.  1.
          2    1    1    2  501    0  0.72096286094E+00 -0.11939227121E+03  0.82472211410E+03  0.83331962638E+03  0.00000000000E+00 0.  1.
<scales pt_clust_3="32.12390" pt_clust_4="89.72236" pt_clust_5="47.50300" pt_clust_6="14000.00000"></scales>
<clustering>
<clus scale="   32.124">  2  3  1 -1</clus>
<clus scale="   47.503">  2  5  1 -1</clus>
<clus scale="   89.722">  1  4  2 -1</clus>
<clus scale="   32.124">  2  3  1 -1</clus>
</clustering>
</event>
<event>
 6    0  0.1849053E+002  0.7750290E+02  0.7546771E-02  0.1336291E+00
         -1   -1    0    0    0  501 -0.00000000000E+00  0.00000000000E+00  0.11570409570E+04  0.11570409570E+04  0.00000000000E+00 0. -1.
         21   -1    0    0  505  502  0.00000000000E+00 -0.00000000000E+00 -0.35120258944E+03  0.35120258944E+03  0.00000000000E+00 0. -1.
         21    1    1    2  503  504 -0.71597668515E+02  0.75888650395E+01 -0.10663874467E+03  0.12866871755E+03  0.00000000000E+00 0. -1.
         21    1    1    2  504  501  0.93816772218E+02 -0.63603888912E+01  0.72344554177E+03  0.72953100908E+03  0.00000000000E+00 0. -1.
         21    1    1    2  505  503  0.94361629179E+01  0.39637489976E+02 -0.22709378355E+03  0.23072008648E+03  0.00000000000E+00 0. -1.
         -1    1    1    2    0  502 -0.31655266621E+02 -0.40865966124E+02  0.41612535398E+03  0.41932373331E+03  0.00000000000E+00 0. -1.
<scales pt_clust_3="14000.00000" pt_clust_4="77.50290" pt_clust_5="40.74521" pt_clust_6="51.20734"></scales>
<clustering>
<clus scale="   40.745">  2  5  1 -1</clus>
<clus scale="   51.207">  1  6  2 -1</clus>
<clus scale="   77.503">  1  4  2 -1</clus>
<clus scale="   40.745">  2  3  1 -1</clus>
</clustering>
</event>
<event>
 6    0  0.1849053E+002  0.6248557E+02  0.7546771E-02  0.1387687E+00
          3   -1    0    0  503    0 -0.00000000000E+00  0.00000000000E+00  0.35352936433E+03  0.35352936433E+03  0.00000000000E+00 0. -1.
         21   -1    0    0  504  502  0.00000000000E+00 -0.00000000000E+00 -0.11800241360E+03  0.11800241360E+03  0.00000000000E+00 0. -1.
         21    1    1    2  503  505 -0.34498934995E+02 -0.14348303579E+02  0.23051451797E+02  0.43902389016E+02  0.00000000000E+00 0. -1.
         21    1    1    2  504  501 -0.56169940011E+02  0.44978875099E+02 -0.59631604944E+02  0.93456351706E+02  0.00000000000E+00 0. -1.
         21    1    1    2  505  502 -0.24157173476E+01 -0.48957659292E+02  0.33146469812E+01  0.49129166268E+02  0.00000000000E+00 0. -1.
          3    1    1    2  501    0  0.93084592353E+02  0.18327087772E+02  0.26879245689E+03  0.28504387094E+03  0.00000000000E+00 0. -1.
<scales pt_clust_3="37.36376" pt_clust_4="14000.00000" pt_clust_5="50.40655" pt_clust_6="62.48557"></scales>
<clustering>
<clus scale="   37.364">  1  3  2 -1</clus>
<clus scale="   50.407">  2  5  1 -1</clus>
<clus scale="   62.486">  1  6  2 -1</clus>
<clus scale="   50.407">  2  3  1 -1</clus>
</clustering>
</event>
<event>
 6    0  0.1849053E+002  0.7305369E+02  0.7546771E-02  0.1350006E+00
          1   -1    0    0  503    0 -0.00000000000E+00  0.00000000000E+00  0.14835732906E+04  0.14835732906E+04  0.00000000000E+00 0.  1.
         21   -1    0    0  504  502  0.00000000000E+00 -0.00000000000E+00 -0.31540124690E+03  0.31540124690E+03  0.00000000000E+00 0. -1.
         21    1    1    2  503  502 -0.56180301746E+02  0.45062848012E+02  0.10378226385E+03  0.12632357209E+03  0.00000000000E+00 0. -1.
         21    1    1    2  504  505  0.24411801516E+02 -0.27037932024E+02 -0.20921319665E+03  0.21236088970E+03  0.00000000000E+00 0. -1.
         21    1    1    2  505  501  0.97534391295E+02 -0.48935353315E+02 -0.60120968781E+02  0.12458794956E+03  0.00000000000E+00 0. -1.
          1    1    1    2  501    0 -0.65765891066E+02  0.30910437326E+02  0.13337239453E+04  0.13357021262E+04  0.00000000000E+00 0.  1.
<scales pt_clust_3="68.14872" pt_clust_4="36.42782" pt_clust_5="14000.00000" pt_clust_6="73.05369"></scales>
<clustering>
<clus scale="   36.428">  2  4  1 -1</clus>
<clus scale="   68.149">  2  3  1 -1</clus>
<clus scale="   73.054">  1  6  2 -1</clus>
<clus scale="   36.428">  2  3  1 -1</clus>
</clustering>
</event>
<event>
 6    0  0.1849053E+002  0.1040974E+03  0.7546771E-02  0.1271908E+00
         21   -1    0    0  501  502  0.00000000000E+00  0.00000000000E+00  0.52050089574E+02  0.52050089574E+02  0.00000000000E+00 0.  1.
          1   -1    0    0  504    0 -0.00000000000E+00 -0.00000000000E+00 -0.60322168808E+03  0.60322168808E+03  0.00000000000E+00 0.  1.
         21    1    1    2  503  502  0.10815381431E+02 -0.50429078350E+02 -0.27774440587E+02  0.58578869643E+02  0.00000000000E+00 0.  1.
         21    1    1    2  504  505  0.10480568838E+03  0.82912880291E+01 -0.32876041414E+03  0.34516139367E+03  0.00000000000E+00 0.  1.
         21    1    1    2  505  503 -0.10090822017E+03 -0.12899346040E+02 -0.11385764127E+03  0.15268406761E+03  0.00000000000E+00 0.  1.
          1    1    1    2  501    0 -0.14712849648E+02  0.55037136361E+02 -0.80779102512E+02  0.98847446736E+02  0.00000000000E+00 0.  1.
<scales pt_clust_3="51.57581" pt_clust_4="104.09741" pt_clust_5="14000.00000" pt_clust_6="44.27608"></scales>
<clustering>
<clus scale="   51.576">  1  3  2 -1</clus>
<clus scale="   44.276">  1  6  2 -1</clus>
<clus scale="  104.097">  2  4  1 -1</clus>
<clus scale="   51.576">  1  3  2 -1</clus>
</clustering>
</event>
<event>
 6    0  0.1849053E+002  0.2222486E+03  0.7546771E-02  0.1132218E+00
          2   -1    0    0  502    0 -0.00000000000E+00  0.00000000000E+00  0.34681933813E+04  0.34681933813E+04  0.00000000000E+00 0.  1.
         21   -1    0    0  505  502  0.00000000000E+00 -0.00000000000E+00 -0.64646466963E+02  0.64646466963E+02  0.00000000000E+00 0. -1.
         21    1    1    2  503  501 -0.51562061163E+02 -0.18794806757E+03  0.25764551435E+04  0.25838158271E+04  0.00000000000E+00 0.  1.
         21    1    1    2  504  503  0.34377728172E+02  0.11410856684E+03  0.10704739079E+03  0.16019281225E+03  0.00000000000E+00 0. -1.
         21    1    1    2  505  504  0.56316476855E+02  0.82794110780E+02  0.40356032765E+02  0.10795841665E+03  0.00000000000E+00 0. -1.
          2    1    1    2  501    0 -0.39132143863E+02 -0.89546100530E+01  0.67968834727E+03  0.68087279219E+03  0.00000000000E+00 0.  1.
<scales pt_clust_3="214.97263" pt_clust_4="51.70266" pt_clust_5="51.70266" pt_clust_6="40.14361"></scales>
<clustering>
<clus scale="   40.144">  1  6  2 -1</clus>
<clus scale="   51.703">  4  5 -1 -1</clus>
<clus scale="  214.973">  1  3  2 -1</clus>
<clus scale="  222.249">  2  3  1 -1</clus>
</clustering>
</event>
<event>
 6    0  0.1849053E+002  0.1641577E+03  0.7546771E-02  0.1184081E+00
         21   -1    0    0  505  502  0.00000000000E+00  0.00000000000E+00  0.28670006483E+04  0.28670006483E+04  0.00000000000E+00 0. -1.
         -1   -1    0    0    0  501 -0.00000000000E+00 -0.00000000000E+00 -0.76026168399E+02  0.76026168399E+02  0.00000000000E+00 0. -1.
         21    1    1    2  503  502  0.60000434484E+02 -0.89033359246E+02  0.19266316402E+04  0.19296208095E+04  0.00000000000E+00 0. -1.
         21    1    1    2  504  503  0.11583633171E+03 -0.20354070196E+02  0.69441702334E+03  0.70430628723E+03  0.00000000000E+00 0. -1.
         21    1    1    2  505  501 -0.87938170832E+02  0.49533563578E+02  0.17567309414E+03  0.20260239834E+03  0.00000000000E+00 0.  1.
         -1    1    1    2    0  504 -0.87898595364E+02  0.59853865864E+02 -0.57472777796E+01  0.10649732169E+03  0.00000000000E+00 0. -1.
<scales pt_clust_3="105.21401" pt_clust_4="14000.00000" pt_clust_5="100.92916" pt_clust_6="164.15768"></scales>
<clustering>
<clus scale="  100.929">  2  5  1 -1</clus>
<clus scale="  105.214">  1  3  2 -1</clus>
<clus scale="  164.158">  2  6  1 -1</clus>
<clus scale="  105.214">  1  3  2 -1</clus>
</clustering>
</event>
<event>
 6    0  0.1849053E+002  0.1762815E+03  0.7546771E-02  0.1171451E+00
         -2   -1    0    0    0  501 -0.00000000000E+00  0.00000000000E+00  0.82677522847E+03  0.82677522847E+03  0.00000000000E+00 0.  1.
         21   -1    0    0  504  502  0.00000000000E+00 -0.00000000000E+00 -0.31613971565E+03  0.31613971565E+03  0.00000000000E+00 0. -1.
         21    1    1    2  503  501  0.47877263084E+02  0.87609510099E+01  0.57304320748E+02  0.75184917101E+02  0.00000000000E+00 0. -1.
         21    1    1    2  504  505  0.10583684693E+03  0.17553319280E+02 -0.20045039664E+03  0.22735417018E+03  0.00000000000E+00 0. -1.
         21    1    1    2  505  503  0.58432846458E+02  0.22819679814E+02 -0.64401867260E+02  0.89904036831E+02  0.00000000000E+00 0.  1.
         -2    1    1    2    0  502 -0.21214695647E+03 -0.49133950104E+02  0.71818345597E+03  0.75047182001E+03  0.00000000000E+00 0.  1.
<scales pt_clust_3="48.67224" pt_clust_4="33.25697" pt_clust_5="33.25697" pt_clust_6="170.83218"></scales>
<clustering>
<clus scale="   33.257">  4  5 -1 -1</clus>
<clus scale="   48.672">  1  3  2 -1</clus>
<clus scale="  170.832">  1  6  2 -1</clus>
<clus scale="  176.282">  2  3  1 -1</clus>
</clustering>
</event>
<event>
 6    0  0.1849053E+002  0.9182446E+02  0.7546771E-02  0.1298493E+00
          2   -1    0    0  505    0 -0.00000000000E+00  0.00000000000E+00  0.11427898374E+04  0.11427898374E+04  0.00000000000E+00 0.  1.
         21   -1    0    0  504  502  0.00000000000E+00 -0.00000000000E+00 -0.45507863685E+02  0.45507863685E+02  0.00000000000E+00 0.  1.
         21    1    1    2  503  501  0.29357108777E+02  0.50485828455E+02  0.12296202906E+02  0.59681281123E+02  0.00000000000E+00 0.  1.
         21    1    1    2  504  503 -0.33105858102E+02  0.22740969271E+02  0.24678350786E+02  0.47139903707E+02  0.00000000000E+00 0.  1.
         21    1    1    2  505  502  0.80417197453E+02 -0.23069779914E+01  0.21177987543E+03  0.22654572040E+03  0.00000000000E+00 0.  1.
          2    1    1    2  501    0 -0.76668448127E+02 -0.70919819734E+02  0.84852754458E+03  0.85493079584E+03  0.00000000000E+00 0.  1.
<scales pt_clust_3="66.52033" pt_clust_4="40.16403" pt_clust_5="91.82446" pt_clust_6="14000.00000"></scales>
<clustering>
<clus scale="   40.164">  2  4  1 -1</clus>
<clus scale="   66.520">  2  3  1 -1</clus>
<clus scale="   91.824">  2  5  1 -1</clus>
<clus scale="   40.164">  2  3  1 -1</clus>
</clustering>
</event>
<event>
 6    0  0.1849053E+002  0.1536003E+03  0.7546771E-02  0.1196117E+00
          2   -1    0    0  503    0 -0.00000000000E+00  0.00000000000E+00  0.42591665724E+04  0.42591665724E+04  0.00000000000E+00 0.  1.
         21   -1    0    0  504  502  0.00000000000E+00 -0.00000000000E+00 -0.27653797397E+02  0.27653797397E+02  0.00000000000E+00 0.  1.
         21    1    1    2  503  505 -0.63870626096E+02 -0.30596976716E+02  0.13766220847E+03  0.15481122537E+03  0.00000000000E+00 0.  1.
         21    1    1    2  504  501  0.10324100837E+03  0.33378576745E+02  0.14116756974E+04  0.14158393658E+04  0.00000000000E+00 0.  1.
         21    1    1    2  505  502 -0.84148753909E+02 -0.29841779522E+01  0.88674282745E+02  0.12228265013E+03  0.00000000000E+00 0.  1.
          2    1    1    2  501    0  0.44778371632E+02  0.20257792352E+00  0.25935005863E+04  0.25938871284E+04  0.00000000000E+00 0.  1.
<scales pt_clust_3="45.60872" pt_clust_4="145.18154" pt_clust_5="45.60872" pt_clust_6="44.77883"></scales>
<clustering>
<clus scale="   44.779">  1  6  2 -1</clus>
<clus scale="   45.609">  3  5 -1 -1</clus>
<clus scale="  145.182">  1  4  2 -1</clus>
<clus scale="  153.600">  2  3  1 -1</clus>
</clustering>
</event>
<event>
 6    0  0.1849053E+002  0.2097499E+03  0.7546771E-02  0.1141764E+00
          2   -1    0    0  504    0 -0.00000000000E+00  0.00000000000E+00  0.37665130678E+04  0.37665130678E+04  0.00000000000E+00 0.  1.
         21   -1    0    0  501  502  0.00000000000E+00 -0.00000000000E+00 -0.45973073932E+02  0.45973073932E+02  0.00000000000E+00 0. -1.
         21    1    1    2  503  505  0.10000521446E+03  0.76228886308E+01  0.62856192854E+03  0.63651335364E+03  0.00000000000E+00 0. -1.
         21    1    1    2  504  503  0.29001818089E+02 -0.55216829631E+02  0.49419061950E+03  0.49811080306E+03  0.00000000000E+00 0. -1.
         21    1    1    2  505  502 -0.18874694648E+03  0.12499054879E+03  0.28949016247E+03  0.36749503569E+03  0.00000000000E+00 0. -1.
          2    1    1    2  501    0  0.59739913941E+02 -0.77396607792E+02  0.23082972834E+04  0.23103669494E+04  0.00000000000E+00 0.  1.
<scales pt_clust_3="105.65884" pt_clust_4="62.36989" pt_clust_5="14000.00000" pt_clust_6="209.74994"></scales>
<clustering>
<clus scale="   62.370">  1  4  2 -1</clus>
<clus scale="  105.659">  1  3  2 -1</clus>
<clus scale="  209.750">  1  6  2 -1</clus>
<clus scale="  209.750">  2  3  1 -1</clus>
</clustering>
</event>
<event>
 6    0  0.1849053E+002  0.1411473E+03  0.7546771E-02  0.1211794E+00
          2   -1    0    0  504    0 -0.00000000000E+00  0.00000000000E+00  0.22568942293E+04  0.22568942293E+04  0.00000000000E+00 0.  1.
         21   -1    0    0  501  502  0.00000000000E+00 -0.00000000000E+00 -0.46753037200E+02  0.46753037200E+02  0.00000000000E+00 0. -1.
         21    1    1    2  503  505 -0.49925474021E+02 -0.22988726653E+01  0.86145226041E+01  0.50715360311E+02  0.00000000000E+00 0. -1.
         21    1    1    2  504  503 -0.99706680130E+02  0.20492302879E+02  0.31473448764E+03  0.33078566210E+03  0.00000000000E+00 0.  1.
         21    1    1    2  505  502  0.15695976184E+01  0.36156797499E+02  0.84116164579E+01  0.37155523594E+02  0.00000000000E+00 0. -1.
          2    1    1    2  501    0  0.14806255653E+03 -0.54350227713E+02  0.18783805654E+04  0.18849907205E+04  0.00000000000E+00 0.  1.
<scales pt_clust_3="53.30485" pt_clust_4="141.14727" pt_clust_5="36.19085" pt_clust_6="14000.00000"></scales>
<clustering>
<clus scale="   36.191">  2  5  1 -1</clus>
<clus scale="   53.305">  2  3  1 -1</clus>
<clus scale="  141.147">  2  4  1 -1</clus>
<clus scale="   36.191">  2  3  1 -1</clus>
</clustering>
</event>
<event>
 6    0  0.1849053E+002  0.1520393E+03  0.7546771E-02  0.1197989E+00
          2   -1    0    0  503    0 -0.00000000000E+00  0.00000000000E+00  0.29449850006E+04  0.29449850006E+04  0.00000000000E+00 0.  1.
         21   -1    0    0  501  502  0.00000000000E+00 -0.00000000000E+00 -0.10196000145E+03  0.10196000145E+03  0.00000000000E+00 0.  1.
         21    1    1    2  503  505 -0.57446200296E+01 -0.32188482743E+02  0.94422056551E+02  0.99923089644E+02  0.00000000000E+00 0.  1.
         21    1    1    2  504  502  0.14183855915E+02  0.44951498643E+02  0.81395735422E+01  0.47833791991E+02  0.00000000000E+00 0. -1.
         21    1    1    2  505  504  0.25394465615E+02  0.95894104695E+02 -0.46742103358E+02  0.10966030469E+03  0.00000000000E+00 0.  1.
          2    1    1    2  501    0 -0.33833701501E+02 -0.10865712059E+03  0.27872054724E+04  0.27895278157E+04  0.00000000000E+00 0.  1.
<scales pt_clust_3="32.69708" pt_clust_4="30.12825" pt_clust_5="30.12825" pt_clust_6="145.62153"></scales>
<clustering>
<clus scale="   30.128">  4  5 -1 -1</clus>
<clus scale="   32.697">  1  3  2 -1</clus>
<clus scale="  145.622">  1  6  2 -1</clus>
<clus scale="  152.039">  2  3  1 -1</clus>
</clustering>
</event>
<event>
 6    0  0.1849053E+002  0.1751665E+03  0.7546771E-02  0.1172565E+00
         21   -1    0    0  505  502  0.00000000000E+00  0.00000000000E+00  0.18091688844E+03  0.18091688844E+03  0.00000000000E+00 0. -1.
          1   -1    0    0  504    0 -0.00000000000E+00 -0.00000000000E+00 -0.14963239206E+04  0.14963239206E+04  0.00000000000E+00 0.  1.
         21    1    1    2  503  502 -0.10984107410E+03  0.67941690309E+02  0.12652416107E+03  0.18080237326E+03  0.00000000000E+00 0. -1.
         21    1    1    2  504  503  0.12988895784E+03  0.23585978345E+02 -0.59099048372E+03  0.60555527542E+03  0.00000000000E+00 0.  1.
         21    1    1    2  505  501 -0.76822681073E+02 -0.13493300297E+02 -0.72519405301E+02  0.10650285266E+03  0.00000000000E+00 0.  1.
          1    1    1    2  501    0  0.56774797336E+02 -0.78034368357E+02 -0.77842130417E+03  0.78438030766E+03  0.00000000000E+00 0.  1.
<scales pt_clust_3="175.16649" pt_clust_4="14000.00000" pt_clust_5="77.99868" pt_clust_6="95.88782"></scales>
<clustering>
<clus scale="   77.999">  1  5  2 -1</clus>
<clus scale="   95.888">  2  6  1 -1</clus>
<clus scale="  175.166">  1  3  2 -1</clus>
<clus scale="   77.999">  1  3  2 -1</clus>
</clustering>
</event>
<event>
 6    0  0.1849053E+002  0.2252093E+03  0.7546771E-02  0.1130058E+00
         21   -1    0    0  503  502  0.00000000000E+00  0.00000000000E+00  0.89504125122E+03  0.89504125122E+03  0.00000000000E+00 0. -1.
         -3   -1    0    0    0  501 -0.00000000000E+00 -0.00000000000E+00 -0.85148398287E+02  0.85148398287E+02  0.00000000000E+00 0. -1.
         21    1    1    2  503  505 -0.12164292691E+03  0.11162481248E+03  0.40998411530E+03  0.44197746009E+03  0.00000000000E+00 0. -1.
         21    1    1    2  504  502  0.11040816475E+03 -0.12818696528E+03  0.59585432739E+02  0.17936634218E+03  0.00000000000E+00 0. -1.
         21    1    1    2  505  501 -0.27534701333E+02  0.36190933891E+02  0.28445567213E+03  0.28806765330E+03  0.00000000000E+00 0. -1.
         -3    1    1    2    0  504  0.38769463486E+02 -0.19628781094E+02  0.55867632762E+02  0.70778193935E+02  0.00000000000E+00 0. -1.
<scales pt_clust_3="42.68798" pt_clust_4="36.33321" pt_clust_5="42.68798" pt_clust_6="221.90736"></scales>
<clustering>
<clus scale="   36.333">  4  6 -1 -1</clus>
<clus scale="   42.688">  3  5 -1 -1</clus>
<clus scale="  221.907">  2  4  1 -1</clus>
<clus scale="  225.209">  1  3  2 -1</clus>
</clustering>
</event>
<event>
 6    0  0.1849053E+002  0.2357208E+03  0.7546771E-02  0.1122677E+00
          1   -1    0    0  504    0 -0.00000000000E+00  0.00000000000E+00  0.39710184036E+03  0.39710184036E+03  0.00000000000E+00 0. -1.
         21   -1    0    0  503  502  0.00000000000E+00 -0.00000000000E+00 -0.91614680083E+03  0.91614680083E+03  0.00000000000E+00 0. -1.
         21    1    1    2  503  505 -0.15118194603E+02  0.57922339839E+02 -0.39217238973E+03  0.39671493610E+03  0.00000000000E+00 0. -1.
         21    1    1    2  504  502 -0.16385443212E+02 -0.48753551937E+02 -0.17506911999E+02  0.54331239112E+02  0.00000000000E+00 0.  1.
         21    1    1    2  505  501 -0.49373155701E+02  0.15423567558E+03 -0.44867692432E+03  0.47700873633E+03  0.00000000000E+00 0. -1.
          1    1    1    2  501    0  0.80876793516E+02 -0.16340446348E+03  0.33931126557E+03  0.38519372964E+03  0.00000000000E+00 0. -1.
<scales pt_clust_3="51.70886" pt_clust_4="51.43337" pt_clust_5="51.70886" pt_clust_6="219.92943"></scales>
<clustering>
<clus scale="   51.433">  1  4  2 -1</clus>
<clus scale="   51.709">  3  5 -1 -1</clus>
<clus scale="  219.929">  1  6  2 -1</clus>
<clus scale="  235.721">  2  3  1 -1</clus>
</clustering>
</event>
<event>
 6    0  0.1849053E+002  0.5781143E+02  0.7546771E-02  0.1407253E+00
          2   -1    0    0  505    0 -0.00000000000E+00  0.00000000000E+00  0.11178982478E+04  0.11178982478E+04  0.00000000000E+00 0. -1.
         21   -1    0    0  504  502  0.00000000000E+00 -0.00000000000E+00 -0.34808239066E+03  0.34808239066E+03  0.00000000000E+00 0. -1.
         21    1    1    2  503  502  0.16142706238E+02  0.57350924668E+02 -0.23556460594E+03  0.24298230202E+03  0.00000000000E+00 0. -1.
         21    1    1    2  504  501  0.59024212825E+02 -0.61242370195E+02  0.18418158009E+03  0.20287271884E+03  0.00000000000E+00 0. -1.
         21    1    1    2  505  503 -0.59758505465E+02 -0.32250958523E+02 -0.87398931276E+02  0.11067870838E+03  0.00000000000E+00 0. -1.
          2    1    1    2  501    0 -0.15408413598E+02  0.36142404050E+02  0.90859781423E+03  0.90944690917E+03  0.00000000000E+00 0. -1.
<scales pt_clust_3="57.81143" pt_clust_4="52.65712" pt_clust_5="14000.00000" pt_clust_6="39.28985"></scales>
<clustering>
<clus scale="   39.290">  1  6  2 -1</clus>
<clus scale="   52.657">  1  4  2 -1</clus>
<clus scale="   57.811">  2  3  1 -1</clus>
<clus scale="   57.811">  2  3  1 -1</clus>
</clustering>
</event>
<event>
 6    0  0.1849053E+002  0.2008251E+03  0.7546771E-02  0.1149045E+00
         21   -1    0    0  503  502  0.00000000000E+00  0.00000000000E+00  0.28612136022E+03  0.28612136022E+03  0.00000000000E+00 0. -1.
          2   -1    0    0  504    0 -0.00000000000E+00 -0.00000000000E+00 -0.60114803326E+03  0.60114803326E+03  0.00000000000E+00 0. -1.
         21    1    1    2  503  501 -0.23528248185E+02  0.10035321812E+03 -0.24210712851E+03  0.26313534260E+03  0.00000000000E+00 0. -1.
         21    1    1    2  504  505  0.34990702693E+02 -0.42214917054E+02  0.28320270610E+02  0.61712934011E+02  0.00000000000E+00 0. -1.
         21    1    1    2  505  502  0.63042057032E+02 -0.11827490560E+03  0.20312160461E+03  0.24335496812E+03  0.00000000000E+00 0. -1.
          2    1    1    2  501    0 -0.74504511540E+02  0.60136604529E+02 -0.30436141976E+03  0.31906614875E+03  0.00000000000E+00 0. -1.
<scales pt_clust_3="67.90009" pt_clust_4="41.12307" pt_clust_5="198.74879" pt_clust_6="67.90009"></scales>
<clustering>
<clus scale="   41.123">  4  5 -1 -1</clus>
<clus scale="   67.900">  3  6 -1 -1</clus>
<clus scale="  198.749">  1  4  2 -1</clus>
<clus scale="  198.749">  1  3  2 -1</clus>
</clustering>
</event>
<event>
 6    0  0.1849053E+002  0.2621606E+03  0.7546771E-02  0.1105852E+00
         21   -1    0    0  504  502  0.00000000000E+00  0.00000000000E+00  0.20431083951E+03  0.20431083951E+03  0.00000000000E+00 0.  1.
          2   -1    0    0  503    0 -0.00000000000E+00 -0.00000000000E+00 -0.63372065172E+03  0.63372065172E+03  0.00000000000E+00 0.  1.
         21    1    1    2  503  502  0.20375859391E+03  0.12849117338E+03  0.57410629639E+02  0.24763587507E+03  0.00000000000E+00 0.  1.
         21    1    1    2  504  505  0.28272930404E+02 -0.16356723947E+02  0.35391786011E+01  0.32854631289E+02  0.00000000000E+00 0.  1.
         21    1    1    2  505  501 -0.14403741817E+03 -0.96267592651E+02 -0.28444300902E+03  0.33304962484E+03  0.00000000000E+00 0.  1.
          2    1    1    2  501    0 -0.87994106141E+02 -0.15866856779E+02 -0.20591661144E+03  0.22449136002E+03  0.00000000000E+00 0.  1.
<scales pt_clust_3="254.44362" pt_clust_4="32.66345" pt_clust_5="45.28606" pt_clust_6="45.28606"></scales>
<clustering>
<clus scale="   32.663">  1  4  2 -1</clus>
<clus scale="   45.286">  5  6 -1 -1</clus>
<clus scale="  254.444">  1  3  2 -1</clus>
<clus scale="   32.663">  1  3  2 -1</clus>
</clustering>
</event>
<event>
 6    0  0.1849053E+002  0.9636653E+02  0.7546771E-02  0.1288128E+00
          2   -1    0    0  505    0 -0.00000000000E+00  0.00000000000E+00  0.19647733381E+04  0.19647733381E+04  0.00000000000E+00 0.  1.
         21   -1    0    0  504  502  0.00000000000E+00 -0.00000000000E+00 -0.47810899779E+02  0.47810899779E+02  0.00000000000E+00 0.  1.
         21    1    1    2  503  501  0.53575027346E+02 -0.53479436575E+02  0.43845963518E+03  0.44494627246E+03  0.00000000000E+00 0.  1.
         21    1    1    2  504  503  0.62041450686E+02  0.29594650946E+01  0.20282019947E+02  0.65339577364E+02  0.00000000000E+00 0.  1.
         21    1    1    2  505  502 -0.66328171670E+02 -0.51194840734E+02  0.69151615679E+02  0.10863831748E+03  0.00000000000E+00 0.  1.
          2    1    1    2  501    0 -0.49288306362E+02  0.10171481221E+03  0.13890691675E+04  0.13936600706E+04  0.00000000000E+00 0.  1.
<scales pt_clust_3="96.36653" pt_clust_4="62.11200" pt_clust_5="52.05061" pt_clust_6="14000.00000"></scales>
<clustering>
<clus scale="   62.112">  2  4  1 -1</clus>
<clus scale="   52.051">  2  5  1 -1</clus>
<clus scale="   96.367">  2  3  1 -1</clus>
<clus scale="   62.112">  2  3  1 -1</clus>
</clustering>
</event>
<event>
 6    0  0.1849053E+002  0.1577560E+03  0.7546771E-02  0.1191254E+00
         21   -1    0    0  505  502  0.00000000000E+00  0.00000000000E+00  0.87249422924E+02  0.87249422924E+02  0.00000000000E+00 0.  1.
          2   -1    0    0  502    0 -0.00000000000E+00 -0.00000000000E+00 -0.17473472309E+04  0.17473472309E+04  0.00000000000E+00 0. -1.
         21    1    1    2  503  501  0.18532792957E+02 -0.52206565384E+02 -0.35963944723E+03  0.36388119199E+03  0.00000000000E+00 0. -1.
         21    1    1    2  504  503  0.93523501193E+01  0.92123054367E+02  0.35881572698E+02  0.99305643636E+02  0.00000000000E+00 0.  1.
         21    1    1    2  505  504 -0.68165859877E+01  0.49053721503E+02 -0.22507135911E+02  0.54399490850E+02  0.00000000000E+00 0.  1.
          2    1    1    2  501    0 -0.21068557089E+02 -0.88970210486E+02 -0.13138327975E+04  0.13170103273E+04  0.00000000000E+00 0. -1.
<scales pt_clust_3="54.76325" pt_clust_4="153.12215" pt_clust_5="43.32233" pt_clust_6="54.76325"></scales>
<clustering>
<clus scale="   43.322">  4  5 -1 -1</clus>
<clus scale="   54.763">  3  6 -1 -1</clus>
<clus scale="  153.122">  1  4  2 -1</clus>
<clus scale="  153.122">  1  3  2 -1</clus>
</clustering>
</event>
<event>
 6    0  0.1849053E+002  0.1775169E+03  0.7546771E-02  0.1170228E+00
          2   -1    0    0  504    0 -0.00000000000E+00  0.00000000000E+00  0.67741825188E+02  0.67741825188E+02  0.00000000000E+00 0. -1.
         21   -1    0    0  503  502  0.00000000000E+00 -0.00000000000E+00 -0.20002460835E+04  0.20002460835E+04  0.00000000000E+00 0. -1.
         21    1    1    2  503  501  0.89523186561E+02 -0.15598057258E+02  0.23121045270E+01  0.90901298943E+02  0.00000000000E+00 0. -1.
         21    1    1    2  504  505 -0.34271860297E+02  0.17370056833E+02 -0.23724831518E+03  0.24033943151E+03  0.00000000000E+00 0. -1.
         21    1    1    2  505  502 -0.11953439012E+03  0.34555209970E+02 -0.16356731001E+04  0.16403990439E+04  0.00000000000E+00 0. -1.
          2    1    1    2  501    0  0.64283063853E+02 -0.36327209546E+02 -0.61894947594E+02  0.96348134333E+02  0.00000000000E+00 0. -1.
<scales pt_clust_3="64.74905" pt_clust_4="30.38550" pt_clust_5="171.29678" pt_clust_6="64.74905"></scales>
<clustering>
<clus scale="   30.386">  4  5 -1 -1</clus>
<clus scale="   64.749">  3  6 -1 -1</clus>
<clus scale="  171.297">  2  4  1 -1</clus>
<clus scale="  171.297">  2  3  1 -1</clus>
</clustering>
</event>
<event>
 6    0  0.1849053E+002  0.1978284E+03  0.7546771E-02  0.1151584E+00
         21   -1    0    0  501  502  0.00000000000E+00  0.00000000000E+00  0.11282312344E+04  0.11282312344E+04  0.00000000000E+00 0.  1.
          1   -1    0    0  504    0 -0.00000000000E+00 -0.00000000000E+00 -0.53985412791E+03  0.53985412791E+03  0.00000000000E+00 0. -1.
         21    1    1    2  503  502  0.18303000369E+02 -0.14266240219E+03  0.68231590397E+03  0.69731094473E+03  0.00000000000E+00 0.  1.
         21    1    1    2  504  505  0.40006903659E+02  0.22909914230E+01 -0.70578818048E+01  0.40689245233E+02  0.00000000000E+00 0.  1.
         21    1    1    2  505  503 -0.77983181123E+01 -0.47816310227E+02  0.40142566808E+03  0.40433869501E+03  0.00000000000E+00 0. -1.
          1    1    1    2  501    0 -0.50511585915E+02  0.18818772100E+03 -0.48830658378E+03  0.52574647732E+03  0.00000000000E+00 0. -1.
<scales pt_clust_3="30.40009" pt_clust_4="40.07245" pt_clust_5="30.40009" pt_clust_6="190.76795"></scales>
<clustering>
<clus scale="   30.400">  3  5 -1 -1</clus>
<clus scale="   40.072">  2  4  1 -1</clus>
<clus scale="  190.768">  2  6  1 -1</clus>
<clus scale="  197.828">  1  3  2 -1</clus>
</clustering>
</event>
<event>
 6    0  0.1849053E+002  0.1467628E+03  0.7546771E-02  0.1204508E+00
         -4   -1    0    0    0  501 -0.00000000000E+00  0.00000000000E+00  0.15459996823E+03  0.15459996823E+03  0.00000000000E+00 0. -1.
         21   -1    0    0  503  502  0.00000000000E+00 -0.00000000000E+00 -0.26100699322E+03  0.26100699322E+03  0.00000000000E+00 0. -1.
         21    1    1    2  503  504  0.64310885870E+02 -0.18339632315E+02 -0.99527478730E+02  0.11990809471E+03  0.00000000000E+00 0. -1.
         21    1    1    2  504  501  0.68826270842E+02  0.39621297971E+02 -0.96676240295E+02  0.12511274215E+03  0.00000000000E+00 0. -1.
         21    1    1    2  505  502 -0.51950672744E+02  0.12700846288E+02  0.16263798327E+02  0.55898971646E+02  0.00000000000E+00 0. -1.
         -4    1    1    2    0  505 -0.81186483968E+02 -0.33982511944E+02  0.73532895707E+02  0.11468715293E+03  0.00000000000E+00 0. -1.
<scales pt_clust_3="53.19916" pt_clust_4="53.19916" pt_clust_5="41.67176" pt_clust_6="145.03855"></scales>
<clustering>
<clus scale="   41.672">  5  6 -1 -1</clus>
<clus scale="   53.199">  3  4 -1 -1</clus>
<clus scale="  145.039">  1  5  2 -1</clus>
<clus scale="  146.763">  2  3  1 -1</clus>
</clustering>
</event>
<event>
 6    0  0.1849053E+002  0.1315362E+03  0.7546771E-02  0.1225194E+00
         -3   -1    0    0    0  501 -0.00000000000E+00  0.00000000000E+00  0.30163754971E+02  0.30163754971E+02  0.00000000000E+00 0. -1.
         21   -1    0    0  503  502  0.00000000000E+00 -0.00000000000E+00 -0.25997568743E+04  0.25997568743E+04  0.00000000000E+00 0. -1.
         21    1    1    2  503  501 -0.55873560271E+01  0.54672508038E+02 -0.35153508963E+03  0.35580503218E+03  0.00000000000E+00 0.  1.
         21    1    1    2  504  502 -0.24784313175E+02  0.71796327405E+02 -0.20776293501E+04  0.20790172417E+04  0.00000000000E+00 0. -1.
         21    1    1    2  505  504  0.29155707095E+01 -0.69648157179E+02 -0.92647578316E+02  0.11594369374E+03  0.00000000000E+00 0.  1.
         -3    1    1    2    0  505  0.27456098492E+02 -0.56820678263E+02 -0.47781101259E+02  0.79154661646E+02  0.00000000000E+00 0. -1.
<scales pt_clust_3="54.95727" pt_clust_4="125.99768" pt_clust_5="35.93396" pt_clust_6="35.93396"></scales>
<clustering>
<clus scale="   35.934">  5  6 -1 -1</clus>
<clus scale="   54.957">  2  3  1 -1</clus>
<clus scale="  125.998">  2  4  1 -1</clus>
<clus scale="   54.957">  2  3  1 -1</clus>
</clustering>
</event>
<event>
 6    0  0.1849053E+002  0.1017937E+03  0.7546771E-02  0.1276569E+00
         21   -1    0    0  503  502  0.00000000000E+00  0.00000000000E+00  0.38458282966E+02  0.38458282966E+02  0.00000000000E+00 0.  1.
          1   -1    0    0  504    0 -0.00000000000E+00 -0.00000000000E+00 -0.19242664690E+04  0.19242664690E+04  0.00000000000E+00 0. -1.
         21    1    1    2  503  501 -0.64693426893E+02 -0.65442923564E+01 -0.11555278947E+02  0.66042347907E+02  0.00000000000E+00 0.  1.
         21    1    1    2  504  505  0.42425839782E+02  0.29187690906E+02 -0.85353885776E+03  0.85509090446E+03  0.00000000000E+00 0. -1.
         21    1    1    2  505  502 -0.46252890722E+02  0.24948186216E+02 -0.71590487932E+02  0.88808444745E+02  0.00000000000E+00 0. -1.
          1    1    1    2  501    0  0.68520477832E+02 -0.47591584766E+02 -0.94912356138E+03  0.95278305484E+03  0.00000000000E+00 0. -1.
<scales pt_clust_3="101.79369" pt_clust_4="51.49634" pt_clust_5="50.90804" pt_clust_6="14000.00000"></scales>
<clustering>
<clus scale="   51.496">  2  4  1 -1</clus>
<clus scale="   50.908">  1  5  2 -1</clus>
<clus scale="  101.794">  1  3  2 -1</clus>
<clus scale="   50.908">  1  3  2 -1</clus>
</clustering>
</event>
<event>
 6    0  0.1849053E+002  0.8768548E+02  0.7546771E-02  0.1308555E+00
         -3   -1    0    0    0  501 -0.00000000000E+00  0.00000000000E+00  0.54543834294E+03  0.54543834294E+03  0.00000000000E+00 0. -1.
         21   -1    0    0  505  502  0.00000000000E+00 -0.00000000000E+00 -0.11214034695E+03  0.11214034695E+03  0.00000000000E+00 0. -1.
         21    1    1    2  503  502 -0.71831612425E+02  0.10955387305E+02 -0.16677087826E+02  0.74551501078E+02  0.00000000000E+00 0. -1.
         21    1    1    2  504  501 -0.40741920450E+02 -0.97607243167E+00  0.10553596942E+03  0.11313132917E+03  0.00000000000E+00 0. -1.
         21    1    1    2  505  504  0.11051641153E+03 -0.64545980719E+02  0.71167373587E+01  0.12818232637E+03  0.00000000000E+00 0. -1.
         -3    1    1    2    0  503  0.20571213490E+01  0.54566665846E+02  0.33732237704E+03  0.34171353327E+03  0.00000000000E+00 0. -1.
<scales pt_clust_3="14000.00000" pt_clust_4="40.75361" pt_clust_5="87.68548" pt_clust_6="61.44078"></scales>
<clustering>
<clus scale="   40.754">  1  4  2 -1</clus>
<clus scale="   61.441">  1  6  2 -1</clus>
<clus scale="   87.685">  1  5  2 -1</clus>
<clus scale="   87.685">  2  3  1 -1</clus>
</clustering>
</event>
<event>
 6    0  0.1849053E+002  0.1134665E+03  0.7546771E-02  0.1254282E+00
         -3   -1    0    0    0  501 -0.00000000000E+00  0.00000000000E+00  0.16060497459E+03  0.16060497459E+03  0.00000000000E+00 0. -1.
         21   -1    0    0  503  502  0.00000000000E+00 -0.00000000000E+00 -0.64322395183E+03  0.64322395183E+03  0.00000000000E+00 0.  1.
         21    1    1    2  503  501 -0.90740347809E+02  0.20400869121E+02 -0.34813933029E+03  0.36034844175E+03  0.00000000000E+00 0.  1.
         21    1    1    2  504  505  0.15430522978E+03 -0.48862682080E+02 -0.16978804977E+02  0.16274503205E+03  0.00000000000E+00 0. -1.
         21    1    1    2  505  502  0.12352449527E+01  0.48770969272E+02 -0.18118463097E+03  0.18763795931E+03  0.00000000000E+00 0.  1.
         -3    1    1    2    0  504 -0.64800126925E+02 -0.20309156313E+02  0.63683788995E+02  0.93097493308E+02  0.00000000000E+00 0. -1.
<scales pt_clust_3="113.46645" pt_clust_4="14000.00000" pt_clust_5="48.78661" pt_clust_6="67.41909"></scales>
<clustering>
<clus scale="   48.787">  2  5  1 -1</clus>
<clus scale="   67.419">  1  6  2 -1</clus>
<clus scale="  113.466">  2  3  1 -1</clus>
<clus scale="   48.787">  2  3  1 -1</clus>
</clustering>
</event>
<event>
 6    0  0.1849053E+002  0.3900411E+03  0.7546771E-02  0.1047284E+00
          2   -1    0    0  505    0 -0.00000000000E+00  0.00000000000E+00  0.99982199158E+03  0.99982199158E+03  0.00000000000E+00 0. -1.
         21   -1    0    0  503  502  0.00000000000E+00 -0.00000000000E+00 -0.40440307920E+03  0.40440307920E+03  0.00000000000E+00 0.  1.
         21    1    1    2  503  501  0.88684560340E+02  0.95334939080E+02  0.37041569625E+03  0.39263404065E+03  0.00000000000E+00 0. -1.
         21    1    1    2  504  502 -0.23516639628E+03 -0.13867294982E+03 -0.15509215947E+03  0.31398566669E+03  0.00000000000E+00 0.  1.
         21    1    1    2  505  504 -0.10431496176E+03  0.23970852947E+01 -0.10622229501E+03  0.14889772739E+03  0.00000000000E+00 0.  1.
          2    1    1    2  501    0  0.25079679770E+03  0.40940925448E+02  0.48631767062E+03  0.54870763606E+03  0.00000000000E+00 0. -1.
<scales pt_clust_3="96.86883" pt_clust_4="382.06779" pt_clust_5="68.16440" pt_clust_6="96.86883"></scales>
<clustering>
<clus scale="   68.164">  4  5 -1 -1</clus>
<clus scale="   96.869">  3  6 -1 -1</clus>
<clus scale="  382.068">  2  4  1 -1</clus>
<clus scale="  382.068">  2  3  1 -1</clus>
</clustering>
</event>
<event>
 6    0  0.1849053E+002  0.1720064E+03  0.7546771E-02  0.1175772E+00
         -1   -1    0    0    0  501 -0.00000000000E+00  0.00000000000E+00  0.25052199561E+03  0.25052199561E+03  0.00000000000E+00 0. -1.
         21   -1    0    0  501  502  0.00000000000E+00 -0.00000000000E+00 -0.43923513410E+03  0.43923513410E+03  0.00000000000E+00 0.  1.
         21    1    1    2  503  504 -0.34053180696E+01 -0.55343238140E+02  0.46639271634E+02  0.72454757315E+02  0.00000000000E+00 0.  1.
         21    1    1    2  504  505 -0.39965072793E+02  0.53492290928E+02 -0.14452807085E+03  0.15920739775E+03  0.00000000000E+00 0.  1.
         21    1    1    2  505  502 -0.18802229517E+01  0.10512079303E+03 -0.24528090629E+03  0.26686445877E+03  0.00000000000E+00 0.  1.
         -1    1    1    2    0  503  0.45250613814E+02 -0.10326984581E+03  0.15445656702E+03  0.19123051587E+03  0.00000000000E+00 0. -1.
<scales pt_clust_3="32.75211" pt_clust_4="41.23344" pt_clust_5="41.23344" pt_clust_6="170.55904"></scales>
<clustering>
<clus scale="   32.752">  3  6 -1 -1</clus>
<clus scale="   41.233">  4  5 -1 -1</clus>
<clus scale="  170.559">  1  3  2 -1</clus>
<clus scale="  172.006">  2  3  1 -1</clus>
</clustering>
</event>
<event>
 6    0  0.1849053E+002  0.1561334E+03  0.7546771E-02  0.1193133E+00
          1   -1    0    0  503    0 -0.00000000000E+00  0.00000000000E+00  0.36901451565E+03  0.36901451565E+03  0.00000000000E+00 0. -1.
         21   -1    0    0  504  502  0.00000000000E+00 -0.00000000000E+00 -0.22949882627E+03  0.22949882627E+03  0.00000000000E+00 0. -1.
         21    1    1    2  503  505  0.11510787456E+03  0.24878849813E+02 -0.70808447126E+02  0.13741403181E+03  0.00000000000E+00 0. -1.
         21    1    1    2  504  501 -0.34383069697E+02 -0.24772272360E+02  0.48851619208E+02  0.64671026426E+02  0.00000000000E+00 0. -1.
         21    1    1    2  505  502  0.31460495375E+02 -0.62734592734E+01 -0.10363950989E+03  0.10849086169E+03  0.00000000000E+00 0. -1.
          1    1    1    2  501    0 -0.11218530024E+03  0.61668818207E+01  0.26511202718E+03  0.28793742198E+03  0.00000000000E+00 0. -1.
<scales pt_clust_3="142.99145" pt_clust_4="38.38187" pt_clust_5="32.07989" pt_clust_6="38.38187"></scales>
<clustering>
<clus scale="   32.080">  2  5  1 -1</clus>
<clus scale="   38.382">  4  6 -1 -1</clus>
<clus scale="  142.991">  2  3  1 -1</clus>
<clus scale="   32.080">  2  3  1 -1</clus>
</clustering>
</event>
<event>
 6    0  0.1849053E+002  0.2770382E+03  0.7546771E-02  0.1097318E+00
         21   -1    0    0  503  502  0.00000000000E+00  0.00000000000E+00  0.41088857674E+02  0.41088857674E+02  0.00000000000E+00 0. -1.
          1   -1    0    0  504    0 -0.00000000000E+00 -0.00000000000E+00 -0.38653791597E+04  0.38653791597E+04  0.00000000000E+00 0.  1.
         21    1    1    2  503  505 -0.63262075174E+02 -0.11385760251E+03 -0.30205465240E+03  0.32894172256E+03  0.00000000000E+00 0. -1.
         21    1    1    2  504  502  0.34906744066E+02  0.16196740147E+02 -0.19815898681E+03  0.20186084124E+03  0.00000000000E+00 0.  1.
         21    1    1    2  505  501  0.14857225105E+02 -0.14548128243E+03 -0.23352528725E+03  0.27553511656E+03  0.00000000000E+00 0. -1.
          1    1    1    2  501    0  0.13498106002E+02  0.24314214479E+03 -0.30905513755E+04  0.31001303370E+04  0.00000000000E+00 0.  1.
<scales pt_clust_3="88.60840" pt_clust_4="38.48136" pt_clust_5="88.60840" pt_clust_6="260.39101"></scales>
<clustering>
<clus scale="   38.481">  2  4  1 -1</clus>
<clus scale="   88.608">  3  5 -1 -1</clus>
<clus scale="  260.391">  2  6  1 -1</clus>
<clus scale="  277.038">  1  3  2 -1</clus>
</clustering>
</event>
<event>
 6    0  0.1849053E+002  0.1318540E+03  0.7546771E-02  0.1224730E+00
          2   -1    0    0  505    0 -0.00000000000E+00  0.00000000000E+00  0.25074114225E+04  0.25074114225E+04  0.00000000000E+00 0. -1.
         21   -1    0    0  504  502  0.00000000000E+00 -0.00000000000E+00 -0.62087002185E+02  0.62087002185E+02  0.00000000000E+00 0.  1.
         21    1    1    2  503  502  0.88025590511E+02 -0.47632418888E+02 -0.13994837304E+01  0.10009650578E+03  0.00000000000E+00 0.  1.
         21    1    1    2  504  501  0.39064126922E+02 -0.14107012740E+01  0.39407882285E+02  0.55506551653E+02  0.00000000000E+00 0.  1.
         21    1    1    2  505  503 -0.46856232511E+02 -0.26055999607E+02  0.40051039840E+03  0.40408291336E+03  0.00000000000E+00 0. -1.
          2    1    1    2  501    0 -0.80233484922E+02  0.75099119770E+02  0.20068056234E+04  0.20098124539E+04  0.00000000000E+00 0. -1.
<scales pt_clust_3="131.85396" pt_clust_4="39.08959" pt_clust_5="52.51201" pt_clust_6="14000.00000"></scales>
<clustering>
<clus scale="   39.090">  2  4  1 -1</clus>
<clus scale="   52.512">  1  5  2 -1</clus>
<clus scale="  131.854">  2  3  1 -1</clus>
<clus scale="   39.090">  2  3  1 -1</clus>
</clustering>
</event>
<event>
 6    0  0.1849053E+002  0.7834093E+02  0.7546771E-02  0.1333827E+00
          1   -1    0    0  504    0 -0.00000000000E+00  0.00000000000E+00  0.95040646528E+03  0.95040646528E+03  0.00000000000E+00 0.  1.
         21   -1    0    0  505  502  0.00000000000E+00 -0.00000000000E+00 -0.34761865810E+02  0.34761865810E+02  0.00000000000E+00 0.  1.
         21    1    1    2  503  502 -0.86894360419E+02  0.35402479316E+02  0.14520373700E+03  0.17288172446E+03  0.00000000000E+00 0.  1.
         21    1    1    2  504  503 -0.36222833131E+02 -0.28355808167E+02  0.47254161896E+03  0.47477544919E+03  0.00000000000E+00 0.  1.
         21    1    1    2  505  501  0.73160159467E+02  0.24068045240E+01  0.61200554081E+02  0.95413361020E+02  0.00000000000E+00 0.  1.
          1    1    1    2  501    0  0.49957034083E+02 -0.94534756725E+01  0.23669868943E+03  0.24209779643E+03  0.00000000000E+00 0.  1.
<scales pt_clust_3="14000.00000" pt_clust_4="46.00158" pt_clust_5="78.34093" pt_clust_6="39.62976"></scales>
<clustering>
<clus scale="   46.002">  1  4  2 -1</clus>
<clus scale="   39.630">  1  6  2 -1</clus>
<clus scale="   78.341">  2  5  1 -1</clus>
<clus scale="   78.341">  2  3  1 -1</clus>
</clustering>
</event>
<event>
 6    0  0.1849053E+002  0.2079633E+03  0.7546771E-02  0.1143189E+00
          1   -1    0    0  504    0 -0.00000000000E+00  0.00000000000E+00  0.20399410928E+03  0.20399410928E+03  0.00000000000E+00 0. -1.
         21   -1    0    0  503  502  0.00000000000E+00 -0.00000000000E+00 -0.21298843673E+04  0.21298843673E+04  0.00000000000E+00 0.  1.
         21    1    1    2  503  505  0.15697091556E+02  0.40127817617E+02 -0.35010541944E+03  0.35274699879E+03  0.00000000000E+00 0.  1.
         21    1    1    2  504  502 -0.47601656535E+01 -0.10058710602E+03 -0.25496686493E+01  0.10073195066E+03  0.00000000000E+00 0. -1.
         21    1    1    2  505  501 -0.75169806663E+02  0.14924332596E+03 -0.17026449345E+04  0.17108254859E+04  0.00000000000E+00 0.  1.
          1    1    1    2  501    0  0.64232880760E+02 -0.88784037556E+02  0.12940976458E+03  0.16957404124E+03  0.00000000000E+00 0. -1.
<scales pt_clust_3="36.43734" pt_clust_4="100.69968" pt_clust_5="36.43734" pt_clust_6="195.19169"></scales>
<clustering>
<clus scale="   36.437">  3  5 -1 -1</clus>
<clus scale="  100.700">  1  4  2 -1</clus>
<clus scale="  195.192">  1  6  2 -1</clus>
<clus scale="  207.963">  2  3  1 -1</clus>
</clustering>
</event>
<event>
 6    0  0.1849053E+002  0.1391845E+03  0.7546771E-02  0.1214431E+00
         21   -1    0    0  505  502  0.00000000000E+00  0.00000000000E+00  0.12839356813E+04  0.12839356813E+04  0.00000000000E+00 0.  1.
          2   -1    0    0  504    0 -0.00000000000E+00 -0.00000000000E+00 -0.19236025703E+04  0.19236025703E+04  0.00000000000E+00 0.  1.
         21    1    1    2  503  502 -0.31756740031E+02  0.17368720006E+03  0.10954355668E+04  0.11095741593E+04  0.00000000000E+00 0.  1.
         21    1    1    2  504  503  0.15949414203E+02 -0.74781395839E+02 -0.25376746025E+02  0.80564385530E+02  0.00000000000E+00 0. -1.
         21    1    1    2  505  501 -0.28763185627E+02 -0.37621248532E+02  0.14940218967E+03  0.15672808767E+03  0.00000000000E+00 0.  1.
          2    1    1    2  501    0  0.44570511456E+02 -0.61284555685E+02 -0.18591278994E+04  0.18606716190E+04  0.00000000000E+00 0.  1.
<scales pt_clust_3="14000.00000" pt_clust_4="139.18447" pt_clust_5="47.35693" pt_clust_6="75.78737"></scales>
<clustering>
<clus scale="   47.357">  1  5  2 -1</clus>
<clus scale="   75.787">  2  6  1 -1</clus>
<clus scale="  139.184">  2  4  1 -1</clus>
<clus scale="   47.357">  1  3  2 -1</clus>
</clustering>
</event>
<event>
 6    0  0.1849053E+002  0.1543433E+03  0.7546771E-02  0.1195235E+00
         21   -1    0    0  503  502  0.00000000000E+00  0.00000000000E+00  0.20948402179E+02  0.20948402179E+02  0.00000000000E+00 0.  1.
          2   -1    0    0  502    0 -0.00000000000E+00 -0.00000000000E+00 -0.17990196043E+04  0.17990196043E+04  0.00000000000E+00 0. -1.
         21    1    1    2  503  504 -0.45130794499E+02  0.63927127941E+02 -0.16544656007E+03  0.18301920811E+03  0.00000000000E+00 0.  1.
         21    1    1    2  504  505  0.31908108489E+01  0.75985456237E+02 -0.16888711451E+03  0.18522102548E+03  0.00000000000E+00 0.  1.
         21    1    1    2  505  501  0.32600358055E+02 -0.65837232375E+02 -0.55148572188E+03  0.55635764213E+03  0.00000000000E+00 0. -1.
          2    1    1    2  501    0  0.93396255956E+01 -0.74075351803E+02 -0.89225180571E+03  0.89537013080E+03  0.00000000000E+00 0. -1.
<scales pt_clust_3="49.16742" pt_clust_4="49.16742" pt_clust_5="42.09693" pt_clust_6="152.10351"></scales>
<clustering>
<clus scale="   42.097">  5  6 -1 -1</clus>
<clus scale="   49.167">  3  4 -1 -1</clus>
<clus scale="  152.104">  2  5  1 -1</clus>
<clus scale="  154.343">  1  3  2 -1</clus>
</clustering>
</event>
<event>
 6    0  0.1849053E+002  0.1994122E+03  0.7546771E-02  0.1150236E+00
         -3   -1    0    0    0  501 -0.00000000000E+00  0.00000000000E+00  0.49201818235E+03  0.49201818235E+03  0.00000000000E+00 0. -1.
         21   -1    0    0  505  502  0.00000000000E+00 -0.00000000000E+00 -0.38886678914E+03  0.38886678914E+03  0.00000000000E+00 0.  1.
         21    1    1    2  503  504 -0.99051555613E+02 -0.46871439954E+02 -0.16367383916E+03  0.19697022155E+03  0.00000000000E+00 0.  1.
         21    1    1    2  504  501 -0.56193574248E+02 -0.38306821247E+02  0.60936489342E+02  0.91314763725E+02  0.00000000000E+00 0.  1.
         21    1    1    2  505  503 -0.85110783634E+02 -0.59873144786E+01 -0.13860764695E+03  0.16276293564E+03  0.00000000000E+00 0.  1.
         -3    1    1    2    0  502  0.24035591350E+03  0.91165575680E+02  0.34449638997E+03  0.42983705057E+03  0.00000000000E+00 0. -1.
<scales pt_clust_3="32.10766" pt_clust_4="68.00831" pt_clust_5="32.10766" pt_clust_6="196.06421"></scales>
<clustering>
<clus scale="   32.108">  3  5 -1 -1</clus>
<clus scale="   68.008">  1  4  2 -1</clus>
<clus scale="  196.064">  1  6  2 -1</clus>
<clus scale="  199.412">  2  3  1 -1</clus>
</clustering>
</event>
<event>
 6    0  0.1849053E+002  0.1529702E+03  0.7546771E-02  0.1196870E+00
          2   -1    0    0  504    0 -0.00000000000E+00  0.00000000000E+00  0.24078731038E+04  0.24078731038E+04  0.00000000000E+00 0. -1.
         21   -1    0    0  505  502  0.00000000000E+00 -0.00000000000E+00 -0.28667894979E+02  0.28667894979E+02  0.00000000000E+00 0. -1.
         21    1    1    2  503  502  0.47650922972E+02 -0.33336923808E+02  0.11377920355E+03  0.12777976409E+03  0.00000000000E+00 0.  1.
         21    1    1    2  504  503 -0.36098338784E+02 -0.20715304482E+01  0.19436942565E+03  0.19770395780E+03  0.00000000000E+00 0. -1.
         21    1    1    2  505  501 -0.13466717952E+03  0.13508432403E+03  0.55736918589E+03  0.58910392395E+03  0.00000000000E+00 0. -1.
          2    1    1    2  501    0  0.12311459533E+03 -0.99675869773E+02  0.15136873937E+04  0.15219533529E+04  0.00000000000E+00 0. -1.
<scales pt_clust_3="56.61752" pt_clust_4="36.15773" pt_clust_5="14000.00000" pt_clust_6="152.97019"></scales>
<clustering>
<clus scale="   36.158">  1  4  2 -1</clus>
<clus scale="   56.618">  2  3  1 -1</clus>
<clus scale="  152.970">  1  6  2 -1</clus>
<clus scale="   56.618">  2  3  1 -1</clus>
</clustering>
</event>
<event>
 6    0  0.1849053E+002  0.1903876E+03  0.7546771E-02  0.1158112E+00
         -2   -1    0    0    0  501 -0.00000000000E+00  0.00000000000E+00  0.93206199144E+03  0.93206199144E+03  0.00000000000E+00 0.  1.
         21   -1    0    0  503  502  0.00000000000E+00 -0.00000000000E+00 -0.21583104956E+03  0.21583104956E+03  0.00000000000E+00 0.  1.
         21    1    1    2  503  501  0.30025882287E+02 -0.24419309333E+01  0.43520911394E+03  0.43625048939E+03  0.00000000000E+00 0.  1.
         21    1    1    2  504  505 -0.13468638768E+03 -0.53289810111E+02 -0.85265595573E+02  0.16807869786E+03  0.00000000000E+00 0.  1.
         21    1    1    2  505  502 -0.30701508856E+02 -0.20769169092E+02 -0.70651706080E+02  0.79784739160E+02  0.00000000000E+00 0.  1.
         -2    1    1    2    0  504  0.13536201424E+03  0.76500910137E+02  0.43693912960E+03  0.46377911458E+03  0.00000000000E+00 0.  1.
<scales pt_clust_3="30.12502" pt_clust_4="33.28955" pt_clust_5="33.28955" pt_clust_6="178.77146"></scales>
<clustering>
<clus scale="   30.125">  1  3  2 -1</clus>
<clus scale="   33.290">  4  5 -1 -1</clus>
<clus scale="  178.771">  1  6  2 -1</clus>
<clus scale="  190.388">  2  3  1 -1</clus>
</clustering>
</event>
<event>
 6    0  0.1849053E+002  0.1130128E+03  0.7546771E-02  0.1255090E+00
          2   -1    0    0  503    0 -0.00000000000E+00  0.00000000000E+00  0.38177844405E+04  0.38177844405E+04  0.00000000000E+00 0.  1.
         21   -1    0    0  505  502  0.00000000000E+00 -0.00000000000E+00 -0.10330251841E+02  0.10330251841E+02  0.00000000000E+00 0.  1.
         21    1    1    2  503  502  0.12639003489E+02  0.59980905666E+02  0.20443238538E+04  0.20452426440E+04  0.00000000000E+00 0.  1.
         21    1    1    2  504  501  0.35644241363E+02 -0.72753965319E+02  0.23727158073E+03  0.25072186668E+03  0.00000000000E+00 0.  1.
         21    1    1    2  505  504  0.32434902871E+02 -0.17153572792E+02  0.18937754688E+03  0.19289925673E+03  0.00000000000E+00 0.  1.
          2    1    1    2  501    0 -0.80718147723E+02  0.29926632445E+02  0.13364812072E+04  0.13392509249E+04  0.00000000000E+00 0.  1.
<scales pt_clust_3="61.29807" pt_clust_4="30.48558" pt_clust_5="30.48558" pt_clust_6="103.53648"></scales>
<clustering>
<clus scale="   30.486">  4  5 -1 -1</clus>
<clus scale="   61.298">  1  3  2 -1</clus>
<clus scale="  103.536">  1  6  2 -1</clus>
<clus scale="  113.013">  2  3  1 -1</clus>
</clustering>
</event>
<event>
 6    0  0.1849053E+002  0.1034077E+03  0.7546771E-02  0.1273289E+00
         21   -1    0    0  504  502  0.00000000000E+00  0.00000000000E+00  0.35679735958E+03  0.35679735958E+03  0.00000000000E+00 0. -1.
         -1   -1    0    0    0  501 -0.00000000000E+00 -0.00000000000E+00 -0.13787844852E+03  0.13787844852E+03  0.00000000000E+00 0.  1.
         21    1    1    2  503  502  0.46794435238E+02 -0.12159358667E+03  0.25513982043E+03  0.28648044865E+03  0.00000000000E+00 0. -1.
         21    1    1    2  504  501 -0.29753084083E+02  0.95502601212E+01  0.41862587244E+02  0.52239158603E+02  0.00000000000E+00 0. -1.
         21    1    1    2  505  503 -0.46262587821E+01  0.72533978606E+02 -0.61349318192E+01  0.72939822533E+02  0.00000000000E+00 0. -1.
         -1    1    1    2    0  505 -0.12415092373E+02  0.39509347942E+02 -0.71948564796E+02  0.83016378322E+02  0.00000000000E+00 0.  1.
<scales pt_clust_3="103.40769" pt_clust_4="31.24826" pt_clust_5="14000.00000" pt_clust_6="41.73867"></scales>
<clustering>
<clus scale="   31.248">  1  4  2 -1</clus>
<clus scale="   41.739">  2  6  1 -1</clus>
<clus scale="  103.408">  1  3  2 -1</clus>
<clus scale="   31.248">  1  3  2 -1</clus>
</clustering>
</event>
<event>
 6    0  0.1849053E+002  0.1248924E+03  0.7546771E-02  0.1235237E+00
         21   -1    0    0  505  502  0.00000000000E+00  0.00000000000E+00  0.86460413462E+02  0.86460413462E+02  0.00000000000E+00 0.  1.
          1   -1    0    0  503    0 -0.00000000000E+00 -0.00000000000E+00 -0.20635015736E+04  0.20635015736E+04  0.00000000000E+00 0. -1.
         21    1    1    2  503  504  0.16248142509E+03 -0.10921829674E+01 -0.11095647619E+04  0.11213988440E+04  0.00000000000E+00 0. -1.
         21    1    1    2  504  502 -0.84433737132E+02 -0.50753857701E+01  0.43040824770E+02  0.94906944444E+02  0.00000000000E+00 0.  1.
         21    1    1    2  505  501 -0.40844594606E+02  0.51881185312E+01 -0.26736271953E+02  0.49092012796E+02  0.00000000000E+00 0. -1.
          1    1    1    2  501    0 -0.37203093357E+02  0.97945020640E+00 -0.88378095107E+03  0.88456418588E+03  0.00000000000E+00 0. -1.
<scales pt_clust_3="124.89244" pt_clust_4="14000.00000" pt_clust_5="42.36342" pt_clust_6="37.21598"></scales>
<clustering>
<clus scale="   37.216">  2  6  1 -1</clus>
<clus scale="   42.363">  1  5  2 -1</clus>
<clus scale="  124.892">  2  3  1 -1</clus>
<clus scale="   42.363">  1  3  2 -1</clus>
</clustering>
</event>
<event>
 6    0  0.1849053E+002  0.1857527E+03  0.7546771E-02  0.1162349E+00
         21   -1    0    0  505  502  0.00000000000E+00  0.00000000000E+00  0.67031244471E+03  0.67031244471E+03  0.00000000000E+00 0.  1.
          1   -1    0    0  504    0 -0.00000000000E+00 -0.00000000000E+00 -0.35273846701E+03  0.35273846701E+03  0.00000000000E+00 0. -1.
         21    1    1    2  503  501  0.83077517825E+01 -0.56602960938E+02 -0.98334401480E+02  0.11376540969E+03  0.00000000000E+00 0. -1.
         21    1    1    2  504  502 -0.27712112344E+02 -0.12217824537E+02  0.40973038898E+02  0.50951215133E+02  0.00000000000E+00 0. -1.
         21    1    1    2  505  503  0.68716893993E+02  0.18667960597E+03  0.58198349840E+03  0.61504152642E+03  0.00000000000E+00 0.  1.
          1    1    1    2  501    0 -0.49312533432E+02 -0.11785882049E+03 -0.20704815812E+03  0.24329276048E+03  0.00000000000E+00 0. -1.
<scales pt_clust_3="30.71570" pt_clust_4="30.28591" pt_clust_5="179.97319" pt_clust_6="30.71570"></scales>
<clustering>
<clus scale="   30.286">  1  4  2 -1</clus>
<clus scale="   30.716">  3  6 -1 -1</clus>
<clus scale="  179.973">  1  5  2 -1</clus>
<clus scale="   30.286">  1  3  2 -1</clus>
</clustering>
</event>
<event>
 6    0  0.1849053E+002  0.1926459E+03  0.7546771E-02  0.1156096E+00
         21   -1    0    0  504  502  0.00000000000E+00  0.00000000000E+00  0.15281019503E+03  0.15281019503E+03  0.00000000000E+00 0.  1.
          1   -1    0    0  503    0 -0.00000000000E+00 -0.00000000000E+00 -0.35674504325E+04  0.35674504325E+04  0.00000000000E+00 0. -1.
         21    1    1    2  503  502 -0.20175756563E+02 -0.83472719519E+02 -0.93858940412E+02  0.12721736026E+03  0.00000000000E+00 0.  1.
         21    1    1    2  504  505 -0.14144401891E+03 -0.18391946863E+01  0.95884041214E+02  0.17089044000E+03  0.00000000000E+00 0.  1.
         21    1    1    2  505  501  0.47875851142E+02 -0.71708716930E+00 -0.61558390134E+03  0.61744323701E+03  0.00000000000E+00 0.  1.
          1    1    1    2  501    0  0.11374392433E+03  0.86029001375E+02 -0.28010814370E+04  0.28047095903E+04  0.00000000000E+00 0. -1.
<scales pt_clust_3="85.87640" pt_clust_4="181.61379" pt_clust_5="37.23208" pt_clust_6="37.23208"></scales>
<clustering>
<clus scale="   37.232">  5  6 -1 -1</clus>
<clus scale="   85.876">  1  3  2 -1</clus>
<clus scale="  181.614">  1  4  2 -1</clus>
<clus scale="   85.876">  1  3  2 -1</clus>
</clustering>
</event>
<event>
 6    0  0.1849053E+002  0.3141813E+03  0.7546771E-02  0.1078359E+00
         21   -1    0    0  505  502  0.00000000000E+00  0.00000000000E+00  0.17821794707E+03  0.17821794707E+03  0.00000000000E+00 0. -1.
         -2   -1    0    0    0  501 -0.00000000000E+00 -0.00000000000E+00 -0.12036269891E+04  0.12036269891E+04  0.00000000000E+00 0.  1.
         21    1    1    2  503  504  0.24313784374E+03  0.66622649239E+02 -0.81257328091E+02  0.26487231229E+03  0.00000000000E+00 0. -1.
         21    1    1    2  504  501 -0.18045434997E+01 -0.65518189965E+02 -0.14794299659E+03  0.16181168015E+03  0.00000000000E+00 0. -1.
         21    1    1    2  505  503  0.49574376376E+02  0.15876964198E+03 -0.13097302407E+03  0.21170581249E+03  0.00000000000E+00 0. -1.
         -2    1    1    2    0  502 -0.29090767662E+03 -0.15987410125E+03 -0.66523569331E+03  0.74345513128E+03  0.00000000000E+00 0.  1.
<scales pt_clust_3="314.18128" pt_clust_4="65.54304" pt_clust_5="156.05095" pt_clust_6="14000.00000"></scales>
<clustering>
<clus scale="   65.543">  2  4  1 -1</clus>
<clus scale="  156.051">  1  5  2 -1</clus>
<clus scale="  314.181">  1  3  2 -1</clus>
<clus scale="  156.051">  1  3  2 -1</clus>
</clustering>
</event>
<event>
 6    0  0.1849053E+002  0.1428763E+03  0.7546771E-02  0.1209510E+00
          1   -1    0    0  504    0 -0.00000000000E+00  0.00000000000E+00  0.23342563804E+04  0.23342563804E+04  0.00000000000E+00 0.  1.
         21   -1    0    0  503  502  0.00000000000E+00 -0.00000000000E+00 -0.20810716058E+04  0.20810716058E+04  0.00000000000E+00 0. -1.
         21    1    1    2  503  501  0.47934485951E+02  0.13202230510E+03 -0.45107769328E+03  0.47243908535E+03  0.00000000000E+00 0. -1.
         21    1    1    2  504  505  0.27673070659E+01 -0.45841825043E+02  0.20505561246E+03  0.21013551607E+03  0.00000000000E+00 0. -1.
         21    1    1    2  505  502 -0.89968315433E+02 -0.11409628321E+03 -0.16132334782E+04  0.16197637219E+04  0.00000000000E+00 0. -1.
          1    1    1    2  501    0  0.39266522416E+02  0.27915803155E+02  0.21124403336E+04  0.21129896628E+04  0.00000000000E+00 0.  1.
<scales pt_clust_3="142.87629" pt_clust_4="45.92528" pt_clust_5="14000.00000" pt_clust_6="45.56284"></scales>
<clustering>
<clus scale="   45.925">  1  4  2 -1</clus>
<clus scale="   45.563">  1  6  2 -1</clus>
<clus scale="  142.876">  1  3  2 -1</clus>
<clus scale="  142.876">  2  3  1 -1</clus>
</clustering>
</event>
<event>
 6    0  0.1849053E+002  0.1658078E+03  0.7546771E-02  0.1182291E+00
          1   -1    0    0  505    0 -0.00000000000E+00  0.00000000000E+00  0.61568377781E+03  0.61568377781E+03  0.00000000000E+00 0.  1.
         21   -1    0    0  504  502  0.00000000000E+00 -0.00000000000E+00 -0.22464338133E+03  0.22464338133E+03  0.00000000000E+00 0.  1.
         21    1    1    2  503  501 -0.10568555839E+03  0.16526670425E+03  0.23768437105E+03  0.30818238273E+03  0.00000000000E+00 0.  1.
         21    1    1    2  504  503  0.38759668611E+02 -0.15828551314E+03 -0.14540342792E+03  0.21840048634E+03  0.00000000000E+00 0.  1.
         21    1    1    2  505  502  0.24178065981E+02 -0.21970152392E+02  0.42991101212E+02  0.53995381785E+02  0.00000000000E+00 0. -1.
          1    1    1    2  501    0  0.42747823794E+02  0.14988961285E+02  0.25576835214E+03  0.25974890829E+03  0.00000000000E+00 0.  1.
<scales pt_clust_3="165.80784" pt_clust_4="14000.00000" pt_clust_5="32.66904" pt_clust_6="53.96805"></scales>
<clustering>
<clus scale="   32.669">  1  5  2 -1</clus>
<clus scale="   53.968">  1  6  2 -1</clus>
<clus scale="  165.808">  1  3  2 -1</clus>
<clus scale="  165.808">  2  3  1 -1</clus>
</clustering>
</event>
<event>
 6    0  0.1849053E+002  0.8062537E+02  0.7546771E-02  0.1327286E+00
         21   -1    0    0  503  502  0.00000000000E+00  0.00000000000E+00  0.71919907784E+02  0.71919907784E+02  0.00000000000E+00 0. -1.
          2   -1    0    0  504    0 -0.00000000000E+00 -0.00000000000E+00 -0.57924377992E+03  0.57924377992E+03  0.00000000000E+00 0.  1.
         21    1    1    2  503  501 -0.25120794907E+02  0.23700952454E+02 -0.29058929694E+02  0.45135472513E+02  0.00000000000E+00 0. -1.
         21    1    1    2  504  505 -0.66451367181E+02 -0.31664264122E+02 -0.33560422672E+03  0.34358202342E+03  0.00000000000E+00 0.  1.
         21    1    1    2  505  502  0.37800637409E+02  0.71570278069E+02  0.16688894785E+02  0.82642072218E+02  0.00000000000E+00 0. -1.
          2    1    1    2  501    0  0.53771524679E+02 -0.63606966401E+02 -0.15934961050E+03  0.17980411955E+03  0.00000000000E+00 0.  1.
<scales pt_clust_3="34.53678" pt_clust_4="74.41645" pt_clust_5="14000.00000" pt_clust_6="80.62537"></scales>
<clustering>
<clus scale="   34.537">  1  3  2 -1</clus>
<clus scale="   74.416">  2  4  1 -1</clus>
<clus scale="   80.625">  2  6  1 -1</clus>
<clus scale="   34.537">  1  3  2 -1</clus>
</clustering>
</event>
<event>
 6    0  0.1849053E+002  0.1079503E+03  0.7546771E-02  0.1264413E+00
         -2   -1    0    0    0  501 -0.00000000000E+00  0.00000000000E+00  0.34043181504E+03  0.34043181504E+03  0.00000000000E+00 0.  1.
         21   -1    0    0  505  502  0.00000000000E+00 -0.00000000000E+00 -0.85526472522E+03  0.85526472522E+03  0.00000000000E+00 0.  1.
         21    1    1    2  503  501  0.88399560668E+02 -0.16278348734E+02  0.23591728490E+03  0.25246075394E+03  0.00000000000E+00 0.  1.
         21    1    1    2  504  502 -0.51648069184E+02  0.22026103404E+02 -0.24416920140E+03  0.25054195496E+03  0.00000000000E+00 0. -1.
         21    1    1    2  505  503 -0.44140690734E+02 -0.77670239398E+02 -0.58164903698E+03  0.58846976888E+03  0.00000000000E+00 0.  1.
         -2    1    1    2    0  504  0.73891992489E+01  0.71922484728E+02  0.75068043296E+02  0.10422406248E+03  0.00000000000E+00 0.  1.
<scales pt_clust_3="107.95034" pt_clust_4="56.14866" pt_clust_5="14000.00000" pt_clust_6="72.71129"></scales>
<clustering>
<clus scale="   56.149">  2  4  1 -1</clus>
<clus scale="   72.711">  1  6  2 -1</clus>
<clus scale="  107.950">  1  3  2 -1</clus>
<clus scale="   56.149">  2  3  1 -1</clus>
</clustering>
</event>
<event>
 6    0  0.1849053E+002  0.6268989E+02  0.7546771E-02  0.1386878E+00
         21   -1    0    0  504  502  0.00000000000E+00  0.00000000000E+00  0.53648530006E+03  0.53648530006E+03  0.00000000000E+00 0. -1.
          1   -1    0    0  505    0 -0.00000000000E+00 -0.00000000000E+00 -0.33787917840E+04  0.33787917840E+04  0.00000000000E+00 0.  1.
         21    1    1    2  503  502 -0.45616571146E+02  0.19741098057E+02  0.72630434249E+02  0.88010013605E+02  0.00000000000E+00 0.  1.
         21    1    1    2  504  501 -0.65959521069E+01 -0.54474263784E+02  0.45159737720E+03  0.45491883133E+03  0.00000000000E+00 0. -1.
         21    1    1    2  505  503 -0.34989944931E+02 -0.24585477479E+02 -0.22404576365E+03  0.22809043417E+03  0.00000000000E+00 0.  1.
          1    1    1    2  501    0  0.87202468184E+02  0.59318643207E+02 -0.31424885318E+04  0.31442578050E+04  0.00000000000E+00 0.  1.
<scales pt_clust_3="49.75954" pt_clust_4="62.68989" pt_clust_5="42.76379" pt_clust_6="14000.00000"></scales>
<clustering>
<clus scale="   42.764">  2  5  1 -1</clus>
<clus scale="   49.760">  1  3  2 -1</clus>
<clus scale="   62.690">  1  4  2 -1</clus>
<clus scale="   49.760">  1  3  2 -1</clus>
</clustering>
</event>
<event>
 6    0  0.1849053E+002  0.1490511E+03  0.7546771E-02  0.1201644E+00
         21   -1    0    0  503  502  0.00000000000E+00  0.00000000000E+00  0.45992324161E+03  0.45992324161E+03  0.00000000000E+00 0.  1.
          2   -1    0    0  505    0 -0.00000000000E+00 -0.00000000000E+00 -0.70404509115E+03  0.70404509115E+03  0.00000000000E+00 0. -1.
         21    1    1    2  503  504 -0.20848308212E+02 -0.22912348463E+02  0.10571284787E+03  0.11015822199E+03  0.00000000000E+00 0. -1.
         21    1    1    2  504  501  0.35616860127E+02 -0.26592179223E+02  0.46572554324E+01  0.44692222470E+02  0.00000000000E+00 0. -1.
         21    1    1    2  505  502  0.13386052275E+03  0.63661698141E+02  0.30170469752E+03  0.33615052560E+03  0.00000000000E+00 0.  1.
          2    1    1    2  501    0 -0.14862907466E+03 -0.14157170455E+02 -0.65619665035E+03  0.67296736269E+03  0.00000000000E+00 0. -1.
<scales pt_clust_3="30.97786" pt_clust_4="44.29150" pt_clust_5="149.05107" pt_clust_6="14000.00000"></scales>
<clustering>
<clus scale="   30.978">  1  3  2 -1</clus>
<clus scale="   44.291">  1  4  2 -1</clus>
<clus scale="  149.051">  1  5  2 -1</clus>
<clus scale="   30.978">  1  3  2 -1</clus>
</clustering>
</event>
<event>
 6    0  0.1849053E+002  0.1678414E+03  0.7546771E-02  0.1180118E+00
          2   -1    0    0  505    0 -0.00000000000E+00  0.00000000000E+00  0.72037629457E+03  0.72037629457E+03  0.00000000000E+00 0.  1.
         21   -1    0    0  503  502  0.00000000000E+00 -0.00000000000E+00 -0.11507999683E+03  0.11507999683E+03  0.00000000000E+00 0.  1.
         21    1    1    2  503  501 -0.70499348759E+02 -0.17604454406E+00  0.46829001986E+02  0.84635362551E+02  0.00000000000E+00 0.  1.
         21    1    1    2  504  502  0.41688864865E+02 -0.17864932218E+03  0.39005909200E+02  0.18755000059E+03  0.00000000000E+00 0.  1.
         21    1    1    2  505  504  0.55441883970E+02  0.41056101971E+02  0.10442481401E+03  0.12515569419E+03  0.00000000000E+00 0. -1.
          2    1    1    2  501    0 -0.26631400075E+02  0.13776926475E+03  0.41503657255E+03  0.43811523408E+03  0.00000000000E+00 0.  1.
<scales pt_clust_3="64.62342" pt_clust_4="167.84139" pt_clust_5="68.98845" pt_clust_6="14000.00000"></scales>
<clustering>
<clus scale="   68.988">  1  5  2 -1</clus>
<clus scale="   64.623">  2  3  1 -1</clus>
<clus scale="  167.841">  2  4  1 -1</clus>
<clus scale="   64.623">  2  3  1 -1</clus>
</clustering>
</event>
<event>
 6    0  0.1849053E+002  0.1617455E+03  0.7546771E-02  0.1186740E+00
          1   -1    0    0  503    0 -0.00000000000E+00  0.00000000000E+00  0.99909646202E+03  0.99909646202E+03  0.00000000000E+00 0.  1.
         21   -1    0    0  504  502  0.00000000000E+00 -0.00000000000E+00 -0.14029435459E+03  0.14029435459E+03  0.00000000000E+00 0.  1.
         21    1    1    2  503  502 -0.28655932961E+02 -0.13633407137E+02  0.37386786552E+02  0.49038801909E+02  0.00000000000E+00 0.  1.
         21    1    1    2  504  505  0.45939613755E+02  0.92633246664E+01 -0.17654846590E+02  0.50079445923E+02  0.00000000000E+00 0.  1.
         21    1    1    2  505  501  0.70429098676E+02  0.92309424100E+02 -0.61353876482E+02  0.13132245001E+03  0.00000000000E+00 0.  1.
          1    1    1    2  501    0 -0.87712779469E+02 -0.87939341630E+02  0.90042404395E+03  0.90895011877E+03  0.00000000000E+00 0.  1.
<scales pt_clust_3="31.73377" pt_clust_4="33.61277" pt_clust_5="33.61277" pt_clust_6="152.82686"></scales>
<clustering>
<clus scale="   31.734">  1  3  2 -1</clus>
<clus scale="   33.613">  4  5 -1 -1</clus>
<clus scale="  152.827">  1  6  2 -1</clus>
<clus scale="  161.746">  2  3  1 -1</clus>
</clustering>
</event>
<event>
 6    0  0.1849053E+002  0.8382592E+02  0.7546771E-02  0.1318532E+00
         21   -1    0    0  505  502  0.00000000000E+00  0.00000000000E+00  0.24130324801E+03  0.24130324801E+03  0.00000000000E+00 0.  1.
          4   -1    0    0  504    0 -0.00000000000E+00 -0.00000000000E+00 -0.26052826808E+04  0.26052826808E+04  0.00000000000E+00 0. -1.
         21    1    1    2  503  502 -0.48921918780E+02  0.42736635289E+02 -0.73431180007E+02  0.98040360721E+02  0.00000000000E+00 0.  1.
         21    1    1    2  504  503 -0.70709137578E+02 -0.18452622826E+02 -0.66876346036E+03  0.67274426593E+03  0.00000000000E+00 0. -1.
         21    1    1    2  505  501  0.92897344589E+02 -0.11429890160E+03  0.20178105662E+03  0.24981943549E+03  0.00000000000E+00 0.  1.
          4    1    1    2  501    0  0.26733711769E+02  0.90014889135E+02 -0.18235658491E+04  0.18259818667E+04  0.00000000000E+00 0. -1.
<scales pt_clust_3="64.95979" pt_clust_4="73.39636" pt_clust_5="14000.00000" pt_clust_6="83.82592"></scales>
<clustering>
<clus scale="   64.960">  1  3  2 -1</clus>
<clus scale="   73.396">  2  4  1 -1</clus>
<clus scale="   83.826">  2  6  1 -1</clus>
<clus scale="   64.960">  1  3  2 -1</clus>
</clustering>
</event>
<event>
 6    0  0.1849053E+002  0.1510151E+03  0.7546771E-02  0.1199231E+00
         21   -1    0    0  501  502  0.00000000000E+00  0.00000000000E+00  0.71993184519E+03  0.71993184519E+03  0.00000000000E+00 0. -1.
          2   -1    0    0  505    0 -0.00000000000E+00 -0.00000000000E+00 -0.18954216337E+04  0.18954216337E+04  0.00000000000E+00 0.  1.
         21    1    1    2  503  504  0.85477839292E+02 -0.30232235033E+02  0.32685562477E+03  0.33919765401E+03  0.00000000000E+00 0. -1.
         21    1    1    2  504  502  0.32779324111E+02 -0.41899642431E+02  0.37648713450E+03  0.38022707238E+03  0.00000000000E+00 0. -1.
         21    1    1    2  505  503 -0.48271287565E+02  0.36342092064E+02 -0.11125213041E+03  0.12660134825E+03  0.00000000000E+00 0.  1.
          2    1    1    2  501    0 -0.69985875839E+02  0.35789785400E+02 -0.17675804174E+04  0.17693274043E+04  0.00000000000E+00 0.  1.
<scales pt_clust_3="46.55033" pt_clust_4="46.55033" pt_clust_5="60.42239" pt_clust_6="138.24772"></scales>
<clustering>
<clus scale="   46.550">  3  4 -1 -1</clus>
<clus scale="   60.422">  2  5  1 -1</clus>
<clus scale="  138.248">  2  6  1 -1</clus>
<clus scale="  151.015">  1  3  2 -1</clus>
</clustering>
</event>
<event>
 6    0  0.1849053E+002  0.1058839E+03  0.7546771E-02  0.1268388E+00
          1   -1    0    0  503    0 -0.00000000000E+00  0.00000000000E+00  0.27536608956E+03  0.27536608956E+03  0.00000000000E+00 0.  1.
         21   -1    0    0  504  502  0.00000000000E+00 -0.00000000000E+00 -0.31217508270E+03  0.31217508270E+03  0.00000000000E+00 0.  1.
         21    1    1    2  503  505 -0.12650963773E+03 -0.71485278866E+02  0.15344485815E+03  0.21132950108E+03  0.00000000000E+00 0.  1.
         21    1    1    2  504  501  0.10642053006E+03  0.26740599775E+02 -0.70851461847E+02  0.13061515433E+03  0.00000000000E+00 0.  1.
         21    1    1    2  505  502 -0.76576487071E+01 -0.33932381803E+02 -0.15207327005E+03  0.15600104353E+03  0.00000000000E+00 0.  1.
          1    1    1    2  501    0  0.27746756377E+02  0.78677060894E+02  0.32670880616E+02  0.89595473327E+02  0.00000000000E+00 0.  1.
<scales pt_clust_3="105.88392" pt_clust_4="14000.00000" pt_clust_5="34.78572" pt_clust_6="77.21185"></scales>
<clustering>
<clus scale="   34.786">  2  5  1 -1</clus>
<clus scale="   77.212">  1  6  2 -1</clus>
<clus scale="  105.884">  1  3  2 -1</clus>
<clus scale="   34.786">  2  3  1 -1</clus>
</clustering>
</event>
<event>
 6    0  0.1849053E+002  0.9436098E+02  0.7546771E-02  0.1292622E+00
          2   -1    0    0  505    0 -0.00000000000E+00  0.00000000000E+00  0.61692149139E+03  0.61692149139E+03  0.00000000000E+00 0. -1.
         21   -1    0    0  503  502  0.00000000000E+00 -0.00000000000E+00 -0.27381613359E+02  0.27381613359E+02  0.00000000000E+00 0. -1.
         21    1    1    2  503  501 -0.26881705591E+02  0.27896772619E+02  0.13450303528E+03  0.13997114888E+03  0.00000000000E+00 0. -1.
         21    1    1    2  504  502  0.71723616862E+02  0.22386201777E+02  0.12211164663E+03  0.14337598644E+03  0.00000000000E+00 0. -1.
         21    1    1    2  505  504  0.34124675554E+02 -0.49859396381E+02  0.13840550986E+03  0.15101833680E+03  0.00000000000E+00 0. -1.
          2    1    1    2  501    0 -0.78966586825E+02 -0.42357801494E+00  0.19451968625E+03  0.20993763263E+03  0.00000000000E+00 0. -1.
<scales pt_clust_3="33.01335" pt_clust_4="81.74612" pt_clust_5="60.41898" pt_clust_6="33.01335"></scales>
<clustering>
<clus scale="   33.013">  3  6 -1 -1</clus>
<clus scale="   60.419">  1  5  2 -1</clus>
<clus scale="   81.746">  2  4  1 -1</clus>
<clus scale="   81.746">  2  3  1 -1</clus>
</clustering>
</event>
<event>
 6    0  0.1849053E+002  0.8954657E+02  0.7546771E-02  0.1303953E+00
         21   -1    0    0  503  502  0.00000000000E+00  0.00000000000E+00  0.28396442807E+03  0.28396442807E+03  0.00000000000E+00 0. -1.
         -2   -1    0    0    0  501 -0.00000000000E+00 -0.00000000000E+00 -0.46578115679E+03  0.46578115679E+03  0.00000000000E+00 0. -1.
         21    1    1    2  503  504  0.20975634235E+02  0.55869084716E+02  0.21799599979E+03  0.22601678651E+03  0.00000000000E+00 0. -1.
         21    1    1    2  504  501 -0.70718673884E+02 -0.40846415968E+02 -0.45771388172E+02  0.93619338326E+02  0.00000000000E+00 0. -1.
         21    1    1    2  505  502 -0.27936974419E+02  0.40743699831E+02  0.12780888526E+02  0.51028175816E+02  0.00000000000E+00 0. -1.
         -2    1    1    2    0  505  0.77680014068E+02 -0.55766368580E+02 -0.36682222886E+03  0.37908128421E+03  0.00000000000E+00 0. -1.
<scales pt_clust_3="14000.00000" pt_clust_4="82.16243" pt_clust_5="49.40166" pt_clust_6="89.54657"></scales>
<clustering>
<clus scale="   49.402">  1  5  2 -1</clus>
<clus scale="   82.162">  2  4  1 -1</clus>
<clus scale="   89.547">  2  6  1 -1</clus>
<clus scale="   49.402">  1  3  2 -1</clus>
</clustering>
</event>
<event>
 6    0  0.1849053E+002  0.1345086E+03  0.7546771E-02  0.1220915E+00
          1   -1    0    0  502    0 -0.00000000000E+00  0.00000000000E+00  0.22145795325E+04  0.22145795325E+04  0.00000000000E+00 0. -1.
         21   -1    0    0  505  502  0.00000000000E+00 -0.00000000000E+00 -0.13051516359E+02  0.13051516359E+02  0.00000000000E+00 0. -1.
         21    1    1    2  503  501  0.57369903609E+02 -0.41399754947E+02  0.67562717331E+03  0.67932122215E+03  0.00000000000E+00 0.  1.
         21    1    1    2  504  503 -0.92130892387E+02  0.67424809037E+02  0.74454298785E+03  0.75324529004E+03  0.00000000000E+00 0. -1.
         21    1    1    2  505  504  0.15455109986E+02  0.47728868120E+02  0.13141614104E+03  0.14066665348E+03  0.00000000000E+00 0.  1.
          1    1    1    2  501    0  0.19305878792E+02 -0.73753922209E+02  0.64994171390E+03  0.65439788314E+03  0.00000000000E+00 0. -1.
<scales pt_clust_3="48.49438" pt_clust_4="124.73303" pt_clust_5="50.16877" pt_clust_6="48.49438"></scales>
<clustering>
<clus scale="   48.494">  3  6 -1 -1</clus>
<clus scale="   50.169">  2  5  1 -1</clus>
<clus scale="  124.733">  2  4  1 -1</clus>
<clus scale="   50.169">  2  3  1 -1</clus>
</clustering>
</event>
<event>
 6    0  0.1849053E+002  0.1050551E+03  0.7546771E-02  0.1270011E+00
         21   -1    0    0  505  502  0.00000000000E+00  0.00000000000E+00  0.10557330816E+03  0.10557330816E+03  0.00000000000E+00 0. -1.
         -3   -1    0    0    0  501 -0.00000000000E+00 -0.00000000000E+00 -0.30027131876E+04  0.30027131876E+04  0.00000000000E+00 0. -1.
         21    1    1    2  503  501 -0.16070293290E+02 -0.27842771256E+02 -0.21244680823E+03  0.21486535450E+03  0.00000000000E+00 0. -1.
         21    1    1    2  504  502  0.63360175660E+02  0.14925363373E+02  0.75265959714E+02  0.99510014688E+02  0.00000000000E+00 0. -1.
         21    1    1    2  505  503  0.38973402450E+02 -0.59527769232E+02 -0.64304382137E+02  0.95903779750E+02  0.00000000000E+00 0.  1.
         -3    1    1    2    0  504 -0.86263284819E+02  0.72445177115E+02 -0.26956546488E+04  0.26980073468E+04  0.00000000000E+00 0. -1.
<scales pt_clust_3="32.14769" pt_clust_4="64.99873" pt_clust_5="14000.00000" pt_clust_6="105.05506"></scales>
<clustering>
<clus scale="   32.148">  2  3  1 -1</clus>
<clus scale="   64.999">  1  4  2 -1</clus>
<clus scale="  105.055">  2  6  1 -1</clus>
<clus scale="   64.999">  1  3  2 -1</clus>
</clustering>
</event>
<event>
 6    0  0.1849053E+002  0.1985818E+03  0.7546771E-02  0.1150941E+00
          1   -1    0    0  502    0 -0.00000000000E+00  0.00000000000E+00  0.66652278658E+03  0.66652278658E+03  0.00000000000E+00 0.  1.
         21   -1    0    0  503  502  0.00000000000E+00 -0.00000000000E+00 -0.13124933762E+03  0.13124933762E+03  0.00000000000E+00 0.  1.
         21    1    1    2  503  505 -0.29439229107E+02  0.44721854228E+02 -0.42863921101E+01  0.53712992965E+02  0.00000000000E+00 0. -1.
         21    1    1    2  504  501 -0.19342452409E+02 -0.11363339211E+03  0.28118170132E+03  0.30389114403E+03  0.00000000000E+00 0.  1.
         21    1    1    2  505  504  0.30431221014E+02  0.14164310116E+03 -0.25012081799E+02  0.14701847352E+03  0.00000000000E+00 0.  1.
          1    1    1    2  501    0  0.18350460501E+02 -0.72731563281E+02  0.28339022155E+03  0.29314951368E+03  0.00000000000E+00 0.  1.
<scales pt_clust_3="41.68530" pt_clust_4="44.06053" pt_clust_5="41.68530" pt_clust_6="194.20631"></scales>
<clustering>
<clus scale="   41.685">  3  5 -1 -1</clus>
<clus scale="   44.061">  4  6 -1 -1</clus>
<clus scale="  194.206">  1  4  2 -1</clus>
<clus scale="  198.582">  2  3  1 -1</clus>
</clustering>
</event>
<event>
 6    0  0.1849053E+002  0.1294073E+03  0.7546771E-02  0.1228338E+00
         21   -1    0    0  503  502  0.00000000000E+00  0.00000000000E+00  0.50975945054E+02  0.50975945054E+02  0.00000000000E+00 0. -1.
          1   -1    0    0  504    0 -0.00000000000E+00 -0.00000000000E+00 -0.19199274213E+04  0.19199274213E+04  0.00000000000E+00 0. -1.
         21    1    1    2  503  501 -0.31551882073E+02 -0.63872619764E+01 -0.88252940619E+02  0.93940938391E+02  0.00000000000E+00 0.  1.
         21    1    1    2  504  505  0.95598238358E+02 -0.54546770169E+02 -0.17372427542E+03  0.20565625978E+03  0.00000000000E+00 0. -1.
         21    1    1    2  505  502  0.16607896908E+02 -0.46265726825E+02  0.88294861050E+01  0.49942962900E+02  0.00000000000E+00 0. -1.
          1    1    1    2  501    0 -0.80654253193E+02  0.10719975897E+03 -0.16158037463E+04  0.16213632053E+04  0.00000000000E+00 0. -1.
<scales pt_clust_3="32.19190" pt_clust_4="14000.00000" pt_clust_5="50.23561" pt_clust_6="129.40733"></scales>
<clustering>
<clus scale="   32.192">  1  3  2 -1</clus>
<clus scale="   50.236">  1  5  2 -1</clus>
<clus scale="  129.407">  2  6  1 -1</clus>
<clus scale="   32.192">  1  3  2 -1</clus>
</clustering>
</event>
<event>
 6    0  0.1849053E+002  0.2133344E+03  0.7546771E-02  0.1138952E+00
          2   -1    0    0  503    0 -0.00000000000E+00  0.00000000000E+00  0.26998790897E+04  0.26998790897E+04  0.00000000000E+00 0. -1.
         21   -1    0    0  504  502  0.00000000000E+00 -0.00000000000E+00 -0.21194093247E+03  0.21194093247E+03  0.00000000000E+00 0. -1.
         21    1    1    2  503  505 -0.75695151364E+02 -0.60914577820E+02  0.10417006165E+03  0.14244909082E+03  0.00000000000E+00 0.  1.
         21    1    1    2  504  501  0.87938508480E+01 -0.14347804913E+03 -0.13846342247E+03  0.19958808020E+03  0.00000000000E+00 0. -1.
         21    1    1    2  505  502  0.95505432445E+02 -0.90113447667E+01  0.10211389275E+03  0.14010617065E+03  0.00000000000E+00 0. -1.
          2    1    1    2  501    0 -0.28604131929E+02  0.21340397172E+03  0.24201176253E+04  0.24296766805E+04  0.00000000000E+00 0. -1.
<scales pt_clust_3="90.58449" pt_clust_4="213.33440" pt_clust_5="95.92962" pt_clust_6="14000.00000"></scales>
<clustering>
<clus scale="   95.930">  2  5  1 -1</clus>
<clus scale="   90.584">  2  3  1 -1</clus>
<clus scale="  213.334">  2  4  1 -1</clus>
<clus scale="   95.930">  2  3  1 -1</clus>
</clustering>
</event>
<event>
 6    0  0.1849053E+002  0.1273969E+03  0.7546771E-02  0.1231370E+00
         21   -1    0    0  505  502  0.00000000000E+00  0.00000000000E+00  0.51867392679E+02  0.51867392679E+02  0.00000000000E+00 0.  1.
          1   -1    0    0  504    0 -0.00000000000E+00 -0.00000000000E+00 -0.39231092732E+04  0.39231092732E+04  0.00000000000E+00 0. -1.
         21    1    1    2  503  502  0.52913585812E+02 -0.60658858026E+00 -0.22859028097E+03  0.23463531718E+03  0.00000000000E+00 0.  1.
         21    1    1    2  504  503  0.25324234039E+02 -0.20105327820E+02 -0.31131313974E+03  0.31298787838E+03  0.00000000000E+00 0.  1.
         21    1    1    2  505  501 -0.11084185424E+03  0.66792888453E+02 -0.39887768103E+02  0.13541876031E+03  0.00000000000E+00 0.  1.
          1    1    1    2  501    0  0.32604034392E+02 -0.46080972052E+02 -0.32914506917E+04  0.32919347100E+04  0.00000000000E+00 0. -1.
<scales pt_clust_3="54.57088" pt_clust_4="32.33483" pt_clust_5="14000.00000" pt_clust_6="127.39693"></scales>
<clustering>
<clus scale="   32.335">  2  4  1 -1</clus>
<clus scale="   54.571">  2  3  1 -1</clus>
<clus scale="  127.397">  2  6  1 -1</clus>
<clus scale="  127.397">  1  3  2 -1</clus>
</clustering>
</event>
<event>
 6    0  0.1849053E+002  0.1318192E+03  0.7546771E-02  0.1224781E+00
         21   -1    0    0  503  502  0.00000000000E+00  0.00000000000E+00  0.27956307756E+04  0.27956307756E+04  0.00000000000E+00 0. -1.
          3   -1    0    0  504    0 -0.00000000000E+00 -0.00000000000E+00 -0.11618972432E+03  0.11618972432E+03  0.00000000000E+00 0. -1.
         21    1    1    2  503  505  0.59736255319E+02  0.12389914528E+02  0.21626310672E+04  0.21634914058E+04  0.00000000000E+00 0. -1.
         21    1    1    2  504  502  0.11504178445E+02  0.32920549344E+02  0.43346564486E+03  0.43486615638E+03  0.00000000000E+00 0. -1.
         21    1    1    2  505  501 -0.18043392459E+02  0.95646913346E+02  0.12378383210E+03  0.15746851474E+03  0.00000000000E+00 0. -1.
          3    1    1    2  501    0 -0.53197041305E+02 -0.14095737722E+03 -0.40439492943E+02  0.15599442293E+03  0.00000000000E+00 0. -1.
<scales pt_clust_3="82.14901" pt_clust_4="34.87275" pt_clust_5="131.81922" pt_clust_6="14000.00000"></scales>
<clustering>
<clus scale="   34.873">  1  4  2 -1</clus>
<clus scale="   82.149">  1  3  2 -1</clus>
<clus scale="  131.819">  1  5  2 -1</clus>
<clus scale="   34.873">  1  3  2 -1</clus>
</clustering>
</event>
<event>
 6    0  0.1849053E+002  0.2402228E+03  0.7546771E-02  0.1119644E+00
         21   -1    0    0  505  502  0.00000000000E+00  0.00000000000E+00  0.14907194108E+03  0.14907194108E+03  0.00000000000E+00 0.  1.
          2   -1    0    0  504    0 -0.00000000000E+00 -0.00000000000E+00 -0.29539070845E+04  0.29539070845E+04  0.00000000000E+00 0.  1.
         21    1    1    2  503  501 -0.58697795835E+02  0.17230575567E+02  0.11171113164E+02  0.62186153922E+02  0.00000000000E+00 0.  1.
         21    1    1    2  504  502 -0.79432726702E+02  0.78697344669E+02 -0.14790717134E+03  0.18541672379E+03  0.00000000000E+00 0.  1.
         21    1    1    2  505  503 -0.71802526716E+02  0.20214408398E+02  0.72661830935E+02  0.10413436908E+03  0.00000000000E+00 0.  1.
          2    1    1    2  501    0  0.20993304925E+03 -0.11614232863E+03 -0.27407609162E+04  0.27512417788E+04  0.00000000000E+00 0.  1.
<scales pt_clust_3="42.49638" pt_clust_4="111.81605" pt_clust_5="42.49638" pt_clust_6="235.59478"></scales>
<clustering>
<clus scale="   42.496">  3  5 -1 -1</clus>
<clus scale="  111.816">  1  4  2 -1</clus>
<clus scale="  235.595">  2  6  1 -1</clus>
<clus scale="  111.816">  1  3  2 -1</clus>
</clustering>
</event>
<event>
 6    0  0.1849053E+002  0.1522063E+03  0.7546771E-02  0.1197788E+00
          4   -1    0    0  504    0 -0.00000000000E+00  0.00000000000E+00  0.48140032896E+03  0.48140032896E+03  0.00000000000E+00 0.  1.
         21   -1    0    0  505  502  0.00000000000E+00 -0.00000000000E+00 -0.57806182087E+03  0.57806182087E+03  0.00000000000E+00 0.  1.
         21    1    1    2  503  501 -0.10109469586E+03  0.91737407092E+02 -0.53839072717E+02  0.14674649959E+03  0.00000000000E+00 0. -1.
         21    1    1    2  504  502 -0.50619393479E+02  0.30734730262E+02  0.99967188948E+02  0.11619115933E+03  0.00000000000E+00 0. -1.
         21    1    1    2  505  503  0.15819043945E+03 -0.32885350481E+02 -0.44911901305E+03  0.47729817650E+03  0.00000000000E+00 0.  1.
          4    1    1    2  501    0 -0.64763501078E+01 -0.89586786873E+02  0.30632940491E+03  0.31922631440E+03  0.00000000000E+00 0.  1.
<scales pt_clust_3="14000.00000" pt_clust_4="59.21948" pt_clust_5="152.20628" pt_clust_6="80.40515"></scales>
<clustering>
<clus scale="   59.219">  1  4  2 -1</clus>
<clus scale="   80.405">  1  6  2 -1</clus>
<clus scale="  152.206">  2  5  1 -1</clus>
<clus scale="  152.206">  2  3  1 -1</clus>
</clustering>
</event>
<event>
 6    0  0.1849053E+002  0.1056631E+03  0.7546771E-02  0.1268819E+00
          2   -1    0    0  505    0 -0.00000000000E+00  0.00000000000E+00  0.88053886235E+03  0.88053886235E+03  0.00000000000E+00 0.  1.
         21   -1    0    0  503  502  0.00000000000E+00 -0.00000000000E+00 -0.10987423818E+04  0.10987423818E+04  0.00000000000E+00 0. -1.
         21    1    1    2  503  504  0.81605443769E+02  0.93139118643E+01 -0.14636820720E+03  0.16783876038E+03  0.00000000000E+00 0. -1.
         21    1    1    2  504  501 -0.33984886746E+02  0.44030800000E+02  0.46199973734E+03  0.46533583698E+03  0.00000000000E+00 0.  1.
         21    1    1    2  505  502 -0.50606799374E+02 -0.10333373828E+03 -0.93488667812E+03  0.94194055573E+03  0.00000000000E+00 0. -1.
          2    1    1    2  501    0  0.29862423513E+01  0.49989026418E+02  0.40105162854E+03  0.40416609105E+03  0.00000000000E+00 0.  1.
<scales pt_clust_3="82.13524" pt_clust_4="35.18874" pt_clust_5="98.94136" pt_clust_6="35.18874"></scales>
<clustering>
<clus scale="   35.189">  4  6 -1 -1</clus>
<clus scale="   82.135">  2  3  1 -1</clus>
<clus scale="   98.941">  2  5  1 -1</clus>
<clus scale="   82.135">  2  3  1 -1</clus>
</clustering>
</event>
<event>
 6    0  0.1849053E+002  0.1104533E+03  0.7546771E-02  0.1259733E+00
          1   -1    0    0  503    0 -0.00000000000E+00  0.00000000000E+00  0.15149932914E+04  0.15149932914E+04  0.00000000000E+00 0.  1.
         21   -1    0    0  504  502  0.00000000000E+00 -0.00000000000E+00 -0.15640552751E+03  0.15640552751E+03  0.00000000000E+00 0.  1.
         21    1    1    2  503  505  0.45286039221E+02  0.50580617556E+02  0.35664598211E+03  0.36305038325E+03  0.00000000000E+00 0.  1.
         21    1    1    2  504  501 -0.47598314131E+02 -0.76926526018E+02 -0.99332314352E+02  0.13435102749E+03  0.00000000000E+00 0.  1.
         21    1    1    2  505  502  0.44053734809E+02 -0.37285794630E+02 -0.11311233022E+02  0.58812464872E+02  0.00000000000E+00 0. -1.
          1    1    1    2  501    0 -0.41741459898E+02  0.63631703091E+02  0.11125853291E+04  0.11151849433E+04  0.00000000000E+00 0.  1.
<scales pt_clust_3="67.95073" pt_clust_4="110.45327" pt_clust_5="57.71449" pt_clust_6="14000.00000"></scales>
<clustering>
<clus scale="   57.714">  2  5  1 -1</clus>
<clus scale="   67.951">  1  3  2 -1</clus>
<clus scale="  110.453">  2  4  1 -1</clus>
<clus scale="   57.714">  2  3  1 -1</clus>
</clustering>
</event>
<event>
 6    0  0.1849053E+002  0.1011489E+03  0.7546771E-02  0.1277898E+00
          1   -1    0    0  504    0 -0.00000000000E+00  0.00000000000E+00  0.16503593790E+04  0.16503593790E+04  0.00000000000E+00 0. -1.
         21   -1    0    0  503  502  0.00000000000E+00 -0.00000000000E+00 -0.12720995502E+03  0.12720995502E+03  0.00000000000E+00 0.  1.
         21    1    1    2  503  505 -0.31640780276E+01 -0.32492528253E+02 -0.24157635612E+02  0.40612401312E+02  0.00000000000E+00 0.  1.
         21    1    1    2  504  502 -0.10779193652E+03  0.25574466351E+02 -0.56289352141E+02  0.12426441998E+03  0.00000000000E+00 0.  1.
         21    1    1    2  505  501  0.56377218735E+02  0.88749934640E+00  0.19401774400E+03  0.20204470653E+03  0.00000000000E+00 0. -1.
          1    1    1    2  501    0  0.54578795817E+02  0.60305625556E+01  0.14095786677E+04  0.14106478062E+04  0.00000000000E+00 0. -1.
<scales pt_clust_3="32.64622" pt_clust_4="101.14891" pt_clust_5="14000.00000" pt_clust_6="54.87340"></scales>
<clustering>
<clus scale="   32.646">  2  3  1 -1</clus>
<clus scale="   54.873">  1  6  2 -1</clus>
<clus scale="  101.149">  2  4  1 -1</clus>
<clus scale="   32.646">  2  3  1 -1</clus>
</clustering>
</event>
<event>
 6    0  0.1849053E+002  0.1346885E+03  0.7546771E-02  0.1220660E+00
          2   -1    0    0  503    0 -0.00000000000E+00  0.00000000000E+00  0.13780121106E+04  0.13780121106E+04  0.00000000000E+00 0. -1.
         21   -1    0    0  504  502  0.00000000000E+00 -0.00000000000E+00 -0.31396124307E+03  0.31396124307E+03  0.00000000000E+00 0.  1.
         21    1    1    2  503  502  0.10083500022E+03 -0.15666018130E+03  0.40906104546E+03  0.44948976472E+03  0.00000000000E+00 0.  1.
         21    1    1    2  504  505  0.40853145359E+02  0.21803260175E+02 -0.11455615333E+03  0.12356161987E+03  0.00000000000E+00 0.  1.
         21    1    1    2  505  501 -0.35482390848E+02  0.66188623564E+02 -0.16214185573E+03  0.17868943821E+03  0.00000000000E+00 0.  1.
          2    1    1    2  501    0 -0.10620575473E+03  0.68668297560E+02  0.93168783117E+03  0.94023253091E+03  0.00000000000E+00 0. -1.
<scales pt_clust_3="14000.00000" pt_clust_4="46.30725" pt_clust_5="85.25295" pt_clust_6="134.68849"></scales>
<clustering>
<clus scale="   46.307">  2  4  1 -1</clus>
<clus scale="   85.253">  2  5  1 -1</clus>
<clus scale="  134.688">  1  6  2 -1</clus>
<clus scale="   46.307">  2  3  1 -1</clus>
</clustering>
</event>
<event>
 6    0  0.1849053E+002  0.3480619E+03  0.7546771E-02  0.1063413E+00
         21   -1    0    0  501  502  0.00000000000E+00  0.00000000000E+00  0.35582407323E+03  0.35582407323E+03  0.00000000000E+00 0. -1.
          1   -1    0    0  504    0 -0.00000000000E+00 -0.00000000000E+00 -0.86269884247E+03  0.86269884247E+03  0.00000000000E+00 0.  1.
         21    1    1    2  503  502  0.23590598653E+02 -0.56219083617E+02  0.90861931500E+02  0.10942116936E+03  0.00000000000E+00 0. -1.
         21    1    1    2  504  505 -0.47939858418E+02 -0.88154245576E+01 -0.18449060064E+03  0.19082118189E+03  0.00000000000E+00 0. -1.
         21    1    1    2  505  503  0.89722713970E+02 -0.25742726812E+03  0.11505541239E+03  0.29589983389E+03  0.00000000000E+00 0.  1.
          1    1    1    2  501    0 -0.65373454204E+02  0.32246177630E+03 -0.52830151249E+03  0.62238073057E+03  0.00000000000E+00 0.  1.
<scales pt_clust_3="48.87422" pt_clust_4="48.74363" pt_clust_5="48.87422" pt_clust_6="332.38211"></scales>
<clustering>
<clus scale="   48.744">  2  4  1 -1</clus>
<clus scale="   48.874">  3  5 -1 -1</clus>
<clus scale="  332.382">  2  6  1 -1</clus>
<clus scale="  348.062">  1  3  2 -1</clus>
</clustering>
</event>
<event>
 6    0  0.1849053E+002  0.1417469E+03  0.7546771E-02  0.1210998E+00
         21   -1    0    0  505  502  0.00000000000E+00  0.00000000000E+00  0.10634064306E+03  0.10634064306E+03  0.00000000000E+00 0. -1.
          2   -1    0    0  503    0 -0.00000000000E+00 -0.00000000000E+00 -0.14245070328E+04  0.14245070328E+04  0.00000000000E+00 0.  1.
         21    1    1    2  503  504  0.55348816107E+02  0.11732365547E+03 -0.11883801414E+04  0.11954395393E+04  0.00000000000E+00 0.  1.
         21    1    1    2  504  502 -0.50485274220E+02 -0.14261239263E+02 -0.31459692704E+02  0.61170729303E+02  0.00000000000E+00 0.  1.
         21    1    1    2  505  501  0.49943684467E+02 -0.13159938734E+03  0.18606069256E+02  0.14198223896E+03  0.00000000000E+00 0. -1.
          2    1    1    2  501    0 -0.54807226353E+02  0.28536971139E+02 -0.11693262489E+03  0.13225516832E+03  0.00000000000E+00 0.  1.
<scales pt_clust_3="141.74686" pt_clust_4="52.46090" pt_clust_5="14000.00000" pt_clust_6="65.05965"></scales>
<clustering>
<clus scale="   52.461">  1  4  2 -1</clus>
<clus scale="   65.060">  2  6  1 -1</clus>
<clus scale="  141.747">  2  3  1 -1</clus>
<clus scale="   52.461">  1  3  2 -1</clus>
</clustering>
</event>
<event>
 6    0  0.1849053E+002  0.8057349E+02  0.7546771E-02  0.1327432E+00
          1   -1    0    0  503    0 -0.00000000000E+00  0.00000000000E+00  0.21879408472E+03  0.21879408472E+03  0.00000000000E+00 0.  1.
         21   -1    0    0  505  502  0.00000000000E+00 -0.00000000000E+00 -0.49350710597E+03  0.49350710597E+03  0.00000000000E+00 0. -1.
         21    1    1    2  503  502  0.81319917280E+02  0.30352135104E+01 -0.41968924414E+03  0.42750579308E+03  0.00000000000E+00 0. -1.
         21    1    1    2  504  501  0.28639984602E+02 -0.56526318193E+02  0.54161048893E+01  0.63598801550E+02  0.00000000000E+00 0.  1.
         21    1    1    2  505  504 -0.38222385137E+02 -0.48614064191E+00 -0.16119971920E+02  0.41485425790E+02  0.00000000000E+00 0. -1.
          1    1    1    2  501    0 -0.71737516745E+02  0.53977245325E+02  0.15568008992E+03  0.17971117027E+03  0.00000000000E+00 0.  1.
<scales pt_clust_3="46.55084" pt_clust_4="14000.00000" pt_clust_5="38.22548" pt_clust_6="80.57349"></scales>
<clustering>
<clus scale="   38.225">  2  5  1 -1</clus>
<clus scale="   46.551">  2  3  1 -1</clus>
<clus scale="   80.573">  1  6  2 -1</clus>
<clus scale="   38.225">  2  3  1 -1</clus>
</clustering>
</event>
<event>
 6    0  0.1849053E+002  0.1390958E+03  0.7546771E-02  0.1214551E+00
         -2   -1    0    0    0  501 -0.00000000000E+00  0.00000000000E+00  0.17812859766E+03  0.17812859766E+03  0.00000000000E+00 0.  1.
         21   -1    0    0  505  502  0.00000000000E+00 -0.00000000000E+00 -0.84514693644E+03  0.84514693644E+03  0.00000000000E+00 0.  1.
         21    1    1    2  503  502 -0.17021308003E+02 -0.98178295320E+02 -0.70066053859E+03  0.70771031710E+03  0.00000000000E+00 0.  1.
         21    1    1    2  504  503  0.22324548931E+02  0.33061614183E+02  0.12499978068E+02  0.41805565049E+02  0.00000000000E+00 0. -1.
         21    1    1    2  505  501 -0.56672099642E+02 -0.10480120479E+02 -0.10393638020E+03  0.11884582842E+03  0.00000000000E+00 0. -1.
         -2    1    1    2    0  504  0.51368858713E+02  0.75596801616E+02  0.12507860194E+03  0.15491382354E+03  0.00000000000E+00 0.  1.
<scales pt_clust_3="129.67022" pt_clust_4="33.25229" pt_clust_5="57.63297" pt_clust_6="33.25229"></scales>
<clustering>
<clus scale="   33.252">  4  6 -1 -1</clus>
<clus scale="   57.633">  2  5  1 -1</clus>
<clus scale="  129.670">  2  3  1 -1</clus>
<clus scale="   57.633">  2  3  1 -1</clus>
</clustering>
</event>
<event>
 6    0  0.1849053E+002  0.8218334E+02  0.7546771E-02  0.1322967E+00
          1   -1    0    0  504    0 -0.00000000000E+00  0.00000000000E+00  0.10740411003E+04  0.10740411003E+04  0.00000000000E+00 0. -1.
         21   -1    0    0  505  502  0.00000000000E+00 -0.00000000000E+00 -0.16890976144E+03  0.16890976144E+03  0.00000000000E+00 0. -1.
         21    1    1    2  503  501 -0.38493478173E+02 -0.77673485808E+02  0.19180053149E+03  0.21048126316E+03  0.00000000000E+00 0. -1.
         21    1    1    2  504  502 -0.51412506378E+02  0.53217585111E+02 -0.98867480016E+02  0.12349144012E+03  0.00000000000E+00 0. -1.
         21    1    1    2  505  503  0.43119728941E+02  0.32878148728E+02 -0.32318119032E+02  0.63124832717E+02  0.00000000000E+00 0. -1.
          1    1    1    2  501    0  0.46786255611E+02 -0.84222480314E+01  0.84451640639E+03  0.84585332572E+03  0.00000000000E+00 0. -1.
<scales pt_clust_3="82.18334" pt_clust_4="14000.00000" pt_clust_5="56.43415" pt_clust_6="47.53828"></scales>
<clustering>
<clus scale="   47.538">  1  6  2 -1</clus>
<clus scale="   56.434">  2  5  1 -1</clus>
<clus scale="   82.183">  1  3  2 -1</clus>
<clus scale="   56.434">  2  3  1 -1</clus>
</clustering>
</event>
<event>
 6    0  0.1849053E+002  0.2384965E+03  0.7546771E-02  0.1120798E+00
         21   -1    0    0  504  502  0.00000000000E+00  0.00000000000E+00  0.10091528789E+03  0.10091528789E+03  0.00000000000E+00 0. -1.
          2   -1    0    0  505    0 -0.00000000000E+00 -0.00000000000E+00 -0.43597000984E+04  0.43597000984E+04  0.00000000000E+00 0.  1.
         21    1    1    2  503  502 -0.14750683943E+03 -0.57477203116E+02 -0.15901066970E+02  0.15910606678E+03  0.00000000000E+00 0. -1.
         21    1    1    2  504  501  0.11773451685E+03  0.71954151494E+02 -0.22639867795E+04  0.22681875924E+04  0.00000000000E+00 0.  1.
         21    1    1    2  505  503 -0.31905023368E+02 -0.71117760827E+02 -0.31413144692E+02  0.84038396467E+02  0.00000000000E+00 0. -1.
          2    1    1    2  501    0  0.61677345948E+02  0.56640812449E+02 -0.19474838193E+04  0.19492833307E+04  0.00000000000E+00 0.  1.
<scales pt_clust_3="63.36732" pt_clust_4="33.51736" pt_clust_5="63.36732" pt_clust_6="224.89193"></scales>
<clustering>
<clus scale="   33.517">  4  6 -1 -1</clus>
<clus scale="   63.367">  3  5 -1 -1</clus>
<clus scale="  224.892">  2  4  1 -1</clus>
<clus scale="  238.497">  1  3  2 -1</clus>
</clustering>
</event>
<event>
 6    0  0.1849053E+002  0.1814318E+03  0.7546771E-02  0.1166424E+00
         21   -1    0    0  501  502  0.00000000000E+00  0.00000000000E+00  0.39254463230E+02  0.39254463230E+02  0.00000000000E+00 0.  1.
          2   -1    0    0  505    0 -0.00000000000E+00 -0.00000000000E+00 -0.13702552197E+04  0.13702552197E+04  0.00000000000E+00 0. -1.
         21    1    1    2  503  504  0.75529039163E+00 -0.13962451437E+03 -0.20638316364E+03  0.24917781946E+03  0.00000000000E+00 0.  1.
         21    1    1    2  504  502 -0.33267713790E+02 -0.23250479326E+02 -0.60217462851E+02  0.72618650510E+02  0.00000000000E+00 0. -1.
         21    1    1    2  505  503 -0.47453222777E+02  0.59788496759E+01 -0.21682589676E+03  0.22203834016E+03  0.00000000000E+00 0. -1.
          2    1    1    2  501    0  0.79965646175E+02  0.15689614402E+03 -0.84757423322E+03  0.86567487279E+03  0.00000000000E+00 0. -1.
<scales pt_clust_3="37.70883" pt_clust_4="37.70883" pt_clust_5="47.82839" pt_clust_6="167.40892"></scales>
<clustering>
<clus scale="   37.709">  3  4 -1 -1</clus>
<clus scale="   47.828">  2  5  1 -1</clus>
<clus scale="  167.409">  2  6  1 -1</clus>
<clus scale="  181.432">  1  3  2 -1</clus>
</clustering>
</event>
<event>
 6    0  0.1849053E+002  0.1629964E+03  0.7546771E-02  0.1185355E+00
          1   -1    0    0  504    0 -0.00000000000E+00  0.00000000000E+00  0.74366693550E+03  0.74366693550E+03  0.00000000000E+00 0. -1.
         21   -1    0    0  503  502  0.00000000000E+00 -0.00000000000E+00 -0.31859317916E+03  0.31859317916E+03  0.00000000000E+00 0.  1.
         21    1    1    2  503  505  0.45979244471E+01 -0.56896202726E+02 -0.12040457916E+03  0.13325007121E+03  0.00000000000E+00 0.  1.
         21    1    1    2  504  502  0.55174267160E+02  0.54733426715E+02  0.19117611369E+03  0.20636921816E+03  0.00000000000E+00 0.  1.
         21    1    1    2  505  501 -0.85479483462E+02 -0.71068625928E+02 -0.16423935120E+03  0.19832311052E+03  0.00000000000E+00 0.  1.
          1    1    1    2  501    0  0.25707291855E+02  0.73231401939E+02  0.51854157302E+03  0.52431771478E+03  0.00000000000E+00 0. -1.
<scales pt_clust_3="55.51444" pt_clust_4="143.40868" pt_clust_5="55.51444" pt_clust_6="77.61252"></scales>
<clustering>
<clus scale="   55.514">  3  5 -1 -1</clus>
<clus scale="   77.613">  1  6  2 -1</clus>
<clus scale="  143.409">  1  4  2 -1</clus>
<clus scale="  162.996">  2  3  1 -1</clus>
</clustering>
</event>
<event>
 6    0  0.1849053E+002  0.1625504E+03  0.7546771E-02  0.1185847E+00
          1   -1    0    0  503    0 -0.00000000000E+00  0.00000000000E+00  0.24680685019E+04  0.24680685019E+04  0.00000000000E+00 0.  1.
         21   -1    0    0  504  502  0.00000000000E+00 -0.00000000000E+00 -0.24712809543E+03  0.24712809543E+03  0.00000000000E+00 0. -1.
         21    1    1    2  503  505 -0.14851416837E+01 -0.10418184251E+03  0.30212380385E+03  0.31958544211E+03  0.00000000000E+00 0.  1.
         21    1    1    2  504  501  0.83987499746E+02  0.11426304829E+03 -0.19208631349E+03  0.23876158851E+03  0.00000000000E+00 0. -1.
         21    1    1    2  505  502  0.34785900498E+02  0.64529407892E+00 -0.71546595116E+01  0.35519915972E+02  0.00000000000E+00 0. -1.
          1    1    1    2  501    0 -0.11728825856E+03 -0.10726499855E+02  0.21180575757E+04  0.21213296508E+04  0.00000000000E+00 0.  1.
<scales pt_clust_3="104.15698" pt_clust_4="162.55040" pt_clust_5="34.79189" pt_clust_6="14000.00000"></scales>
<clustering>
<clus scale="   34.792">  2  5  1 -1</clus>
<clus scale="  104.157">  1  3  2 -1</clus>
<clus scale="  162.550">  2  4  1 -1</clus>
<clus scale="   34.792">  2  3  1 -1</clus>
</clustering>
</event>
<event>
 6    0  0.1849053E+002  0.1126330E+03  0.7546771E-02  0.1255770E+00
          4   -1    0    0  505    0 -0.00000000000E+00  0.00000000000E+00  0.17512722240E+03  0.17512722240E+03  0.00000000000E+00 0. -1.
         21   -1    0    0  504  502  0.00000000000E+00 -0.00000000000E+00 -0.25354118777E+03  0.25354118777E+03  0.00000000000E+00 0. -1.
         21    1    1    2  503  501  0.46012841105E+02 -0.16110280182E+01 -0.76948220235E+02  0.89670538948E+02  0.00000000000E+00 0. -1.
         21    1    1    2  504  503  0.51960565719E+02  0.41410807754E+02 -0.11866106888E+03  0.13599707591E+03  0.00000000000E+00 0. -1.
         21    1    1    2  505  502 -0.16474813494E+02  0.40965562303E+02  0.85279733120E+01  0.44970246867E+02  0.00000000000E+00 0. -1.
          4    1    1    2  501    0 -0.81498593330E+02 -0.80765342038E+02  0.10866735044E+03  0.15803054844E+03  0.00000000000E+00 0. -1.
<scales pt_clust_3="32.02482" pt_clust_4="32.02482" pt_clust_5="44.15424" pt_clust_6="105.85896"></scales>
<clustering>
<clus scale="   32.025">  3  4 -1 -1</clus>
<clus scale="   44.154">  1  5  2 -1</clus>
<clus scale="  105.859">  1  6  2 -1</clus>
<clus scale="  112.633">  2  3  1 -1</clus>
</clustering>
</event>
<event>
 6    0  0.1849053E+002  0.9929780E+02  0.7546771E-02  0.1281780E+00
          2   -1    0    0  505    0 -0.00000000000E+00  0.00000000000E+00  0.29420759058E+04  0.29420759058E+04  0.00000000000E+00 0. -1.
         21   -1    0    0  504  502  0.00000000000E+00 -0.00000000000E+00 -0.27692254060E+02  0.27692254060E+02  0.00000000000E+00 0. -1.
         21    1    1    2  503  501  0.12374344058E+02  0.87050011513E+02  0.63030612054E+03  0.63640917222E+03  0.00000000000E+00 0. -1.
         21    1    1    2  504  503 -0.50998902762E+02 -0.41824179921E+02  0.12797639058E+03  0.14397258994E+03  0.00000000000E+00 0. -1.
         21    1    1    2  505  502  0.11888119607E+03  0.33574552179E+02  0.23944167460E+03  0.26942959167E+03  0.00000000000E+00 0. -1.
          2    1    1    2  501    0 -0.80256637365E+02 -0.78800383770E+02  0.19166594660E+04  0.19199568060E+04  0.00000000000E+00 0. -1.
<scales pt_clust_3="99.29780" pt_clust_4="65.95567" pt_clust_5="80.07240" pt_clust_6="14000.00000"></scales>
<clustering>
<clus scale="   65.956">  2  4  1 -1</clus>
<clus scale="   80.072">  2  5  1 -1</clus>
<clus scale="   99.298">  2  3  1 -1</clus>
<clus scale="   65.956">  2  3  1 -1</clus>
</clustering>
</event>
<event>
 6    0  0.1849053E+002  0.1727578E+03  0.7546771E-02  0.1175002E+00
         21   -1    0    0  505  502  0.00000000000E+00  0.00000000000E+00  0.23913991161E+03  0.23913991161E+03  0.00000000000E+00 0. -1.
          2   -1    0    0  503    0 -0.00000000000E+00 -0.00000000000E+00 -0.21446522452E+04  0.21446522452E+04  0.00000000000E+00 0. -1.
         21    1    1    2  503  504  0.48325591942E+02 -0.54904163278E+01 -0.65536394191E+02  0.81612048569E+02  0.00000000000E+00 0.  1.
         21    1    1    2  504  502 -0.49128339958E+02  0.44953841573E+02  0.31600143735E+02  0.73708959721E+02  0.00000000000E+00 0. -1.
         21    1    1    2  505  501 -0.12658399506E+03 -0.62972167050E+02  0.14803903475E+03  0.20470602687E+03  0.00000000000E+00 0. -1.
          2    1    1    2  501    0  0.12738674307E+03  0.23508741805E+02 -0.20196151179E+04  0.20237651217E+04  0.00000000000E+00 0. -1.
<scales pt_clust_3="48.63648" pt_clust_4="66.19212" pt_clust_5="172.75776" pt_clust_6="14000.00000"></scales>
<clustering>
<clus scale="   48.636">  2  3  1 -1</clus>
<clus scale="   66.192">  1  4  2 -1</clus>
<clus scale="  172.758">  1  5  2 -1</clus>
<clus scale="   66.192">  1  3  2 -1</clus>
</clustering>
</event>
<event>
 6    0  0.1849053E+002  0.1089216E+03  0.7546771E-02  0.1262580E+00
         -2   -1    0    0    0  501 -0.00000000000E+00  0.00000000000E+00  0.49881630738E+03  0.49881630738E+03  0.00000000000E+00 0.  1.
         21   -1    0    0  505  502  0.00000000000E+00 -0.00000000000E+00 -0.42849439345E+03  0.42849439345E+03  0.00000000000E+00 0. -1.
         21    1    1    2  503  502 -0.10336991743E+03 -0.64378138385E+02 -0.33107191417E+03  0.35275841150E+03  0.00000000000E+00 0. -1.
         21    1    1    2  504  503 -0.16094490726E+02  0.84257619028E+02  0.14780908529E+03  0.17089735133E+03  0.00000000000E+00 0. -1.
         21    1    1    2  505  501  0.87686297674E+02  0.16399154186E+01 -0.47768990342E+02  0.99867174590E+02  0.00000000000E+00 0. -1.
         -2    1    1    2    0  504  0.31778110479E+02 -0.21519396061E+02  0.30135373316E+03  0.30378776341E+03  0.00000000000E+00 0.  1.
<scales pt_clust_3="14000.00000" pt_clust_4="67.48582" pt_clust_5="108.92163" pt_clust_6="38.37881"></scales>
<clustering>
<clus scale="   38.379">  1  6  2 -1</clus>
<clus scale="   67.486">  1  4  2 -1</clus>
<clus scale="  108.922">  1  5  2 -1</clus>
<clus scale="  108.922">  2  3  1 -1</clus>
</clustering>
</event>
<event>
 6    0  0.1849053E+002  0.9380744E+02  0.7546771E-02  0.1293885E+00
          1   -1    0    0  504    0 -0.00000000000E+00  0.00000000000E+00  0.52432828864E+03  0.52432828864E+03  0.00000000000E+00 0. -1.
         21   -1    0    0  501  502  0.00000000000E+00 -0.00000000000E+00 -0.95105588412E+03  0.95105588412E+03  0.00000000000E+00 0.  1.
         21    1    1    2  503  502 -0.31939520779E+02 -0.76074260061E+01 -0.56675928880E+03  0.56770951847E+03  0.00000000000E+00 0.  1.
         21    1    1    2  504  505 -0.42276766538E+02 -0.27520784532E+02  0.39842384197E+02  0.64281678172E+02  0.00000000000E+00 0. -1.
         21    1    1    2  505  503 -0.55848603383E+02 -0.28743587625E+02 -0.35767433925E+03  0.36314761914E+03  0.00000000000E+00 0. -1.
          1    1    1    2  501    0  0.13006489070E+03  0.63871798163E+02  0.45786364838E+03  0.48024535698E+03  0.00000000000E+00 0. -1.
<scales pt_clust_3="32.83300" pt_clust_4="51.43074" pt_clust_5="14000.00000" pt_clust_6="93.80744"></scales>
<clustering>
<clus scale="   32.833">  2  3  1 -1</clus>
<clus scale="   51.431">  1  4  2 -1</clus>
<clus scale="   93.807">  1  6  2 -1</clus>
<clus scale="   32.833">  2  3  1 -1</clus>
</clustering>
</event>
<event>
 6    0  0.2298559E+002  0.9677922E+02  0.7546771E-02  0.1287218E+00
         21   -1    0    0  503  502  0.00000000000E+00  0.00000000000E+00  0.44209250510E+03  0.44209250510E+03  0.00000000000E+00 0. -1.
          1   -1    0    0  505    0 -0.00000000000E+00 -0.00000000000E+00 -0.85311002336E+03  0.85311002336E+03  0.00000000000E+00 0. -1.
         21    1    1    2  503  501  0.18040846679E+02  0.41195580212E+02  0.74811334119E+02  0.87288508353E+02  0.00000000000E+00 0. -1.
         21    1    1    2  504  502 -0.63875819132E+01  0.55843034229E+02  0.34789758417E+03  0.35240881763E+03  0.00000000000E+00 0. -1.
         21    1    1    2  505  504 -0.21427934248E+02  0.21582890955E+02 -0.28997577955E+02  0.42021864254E+02  0.00000000000E+00 0. -1.
          1    1    1    2  501    0  0.97746694817E+01 -0.11862150540E+03 -0.80472885859E+03  0.81348333822E+03  0.00000000000E+00 0. -1.
<scales pt_clust_3="45.05853" pt_clust_4="96.77922" pt_clust_5="30.41344" pt_clust_6="14000.00000"></scales>
<clustering>
<clus scale="   30.413">  2  5  1 -1</clus>
<clus scale="   45.059">  1  3  2 -1</clus>
<clus scale="   96.779">  1  4  2 -1</clus>
<clus scale="   45.059">  1  3  2 -1</clus>
</clustering>
</event>
<event>
 6    0  0.1849053E+002  0.1230584E+03  0.7546771E-02  0.1238135E+00
         21   -1    0    0  503  502  0.00000000000E+00  0.00000000000E+00  0.30010237571E+02  0.30010237571E+02  0.00000000000E+00 0.  1.
          2   -1    0    0  504    0 -0.00000000000E+00 -0.00000000000E+00 -0.13791693532E+04  0.13791693532E+04  0.00000000000E+00 0.  1.
         21    1    1    2  503  505  0.12914016888E+03  0.22039258930E+02 -0.15644100827E+03  0.20405073198E+03  0.00000000000E+00 0.  1.
         21    1    1    2  504  502 -0.16241562769E+02 -0.31663474518E+02 -0.10973958510E+03  0.11536524831E+03  0.00000000000E+00 0. -1.
         21    1    1    2  505  501 -0.53019011231E+02 -0.25467880370E+01 -0.32298079037E+03  0.32731344706E+03  0.00000000000E+00 0.  1.
          2    1    1    2  501    0 -0.59879594885E+02  0.12171003625E+02 -0.75999773185E+03  0.76245016337E+03  0.00000000000E+00 0.  1.
<scales pt_clust_3="115.06455" pt_clust_4="35.58601" pt_clust_5="41.07090" pt_clust_6="41.07090"></scales>
<clustering>
<clus scale="   35.586">  1  4  2 -1</clus>
<clus scale="   41.071">  5  6 -1 -1</clus>
<clus scale="  115.065">  1  3  2 -1</clus>
<clus scale="   35.586">  1  3  2 -1</clus>
</clustering>
</event>
<event>
 6    0  0.1849053E+002  0.1067750E+03  0.7546771E-02  0.1266661E+00
          1   -1    0    0  504    0 -0.00000000000E+00  0.00000000000E+00  0.15497390618E+04  0.15497390618E+04  0.00000000000E+00 0.  1.
         21   -1    0    0  505  502  0.00000000000E+00 -0.00000000000E+00 -0.26291405008E+03  0.26291405008E+03  0.00000000000E+00 0. -1.
         21    1    1    2  503  502  0.10464867591E+02  0.30914728589E+02  0.65246072552E+01  0.33283695667E+02  0.00000000000E+00 0.  1.
         21    1    1    2  504  503 -0.50409272370E+02  0.39061490203E+02  0.19879672293E+03  0.20877507467E+03  0.00000000000E+00 0. -1.
         21    1    1    2  505  501  0.68586663645E+02  0.42482137465E+02 -0.23526919242E+03  0.24871762168E+03  0.00000000000E+00 0. -1.
          1    1    1    2  501    0 -0.28642258866E+02 -0.11245835626E+03  0.13167728740E+04  0.13218767199E+04  0.00000000000E+00 0.  1.
<scales pt_clust_3="32.63792" pt_clust_4="63.98839" pt_clust_5="14000.00000" pt_clust_6="106.77502"></scales>
<clustering>
<clus scale="   32.638">  2  3  1 -1</clus>
<clus scale="   63.988">  1  4  2 -1</clus>
<clus scale="  106.775">  1  6  2 -1</clus>
<clus scale="   32.638">  2  3  1 -1</clus>
</clustering>
</event>
<event>
 6    0  0.1849053E+002  0.1102932E+03  0.7546771E-02  0.1260028E+00
         21   -1    0    0  505  502  0.00000000000E+00  0.00000000000E+00  0.58803356506E+03  0.58803356506E+03  0.00000000000E+00 0.  1.
         -3   -1    0    0    0  501 -0.00000000000E+00 -0.00000000000E+00 -0.17490498546E+03  0.17490498546E+03  0.00000000000E+00 0. -1.
         21    1    1    2  503  501  0.77417967749E+02  0.86879458396E+01 -0.35342812894E+01  0.77984057842E+02  0.00000000000E+00 0.  1.
         21    1    1    2  504  502  0.11034544411E+02  0.62530158205E+02  0.38621494856E+03  0.39139975517E+03  0.00000000000E+00 0.  1.
         21    1    1    2  505  503  0.52694194293E+02 -0.74161746110E+01  0.10794814913E+03  0.12035148798E+03  0.00000000000E+00 0.  1.
         -3    1    1    2    0  504 -0.14114670645E+03 -0.63801929433E+02 -0.77500236807E+02  0.17320324953E+03  0.00000000000E+00 0. -1.
<scales pt_clust_3="110.29322" pt_clust_4="78.30172" pt_clust_5="53.21351" pt_clust_6="14000.00000"></scales>
<clustering>
<clus scale="   53.214">  1  5  2 -1</clus>
<clus scale="   78.302">  1  4  2 -1</clus>
<clus scale="  110.293">  2  3  1 -1</clus>
<clus scale="   53.214">  1  3  2 -1</clus>
</clustering>
</event>
<event>
 6    0  0.1849053E+002  0.1182541E+03  0.7546771E-02  0.1246005E+00
          2   -1    0    0  503    0 -0.00000000000E+00  0.00000000000E+00  0.20852364344E+04  0.20852364344E+04  0.00000000000E+00 0. -1.
         21   -1    0    0  504  502  0.00000000000E+00 -0.00000000000E+00 -0.10038772517E+02  0.10038772517E+02  0.00000000000E+00 0.  1.
         21    1    1    2  503  505 -0.47351216748E+02  0.18560170412E+02  0.30266003387E+03  0.30690342741E+03  0.00000000000E+00 0.  1.
         21    1    1    2  504  501 -0.16792558394E+02 -0.27188051841E+02  0.19112171820E+03  0.19377484705E+03  0.00000000000E+00 0.  1.
         21    1    1    2  505  502 -0.45038318255E+02  0.44453098233E+02  0.23778789401E+03  0.24606424078E+03  0.00000000000E+00 0.  1.
          2    1    1    2  501    0  0.10918209340E+03 -0.35825216803E+02  0.13436280158E+04  0.13485326917E+04  0.00000000000E+00 0. -1.
<scales pt_clust_3="30.83170" pt_clust_4="31.95591" pt_clust_5="30.83170" pt_clust_6="113.14264"></scales>
<clustering>
<clus scale="   30.832">  3  5 -1 -1</clus>
<clus scale="   31.956">  2  4  1 -1</clus>
<clus scale="  113.143">  1  6  2 -1</clus>
<clus scale="   31.956">  2  3  1 -1</clus>
</clustering>
</event>
<event>
 6    0  0.1849053E+002  0.1810761E+03  0.7546771E-02  0.1166766E+00
          2   -1    0    0  505    0 -0.00000000000E+00  0.00000000000E+00  0.14113814084E+04  0.14113814084E+04  0.00000000000E+00 0. -1.
         21   -1    0    0  504  502  0.00000000000E+00 -0.00000000000E+00 -0.36765788200E+03  0.36765788200E+03  0.00000000000E+00 0. -1.
         21    1    1    2  503  502  0.62287322658E+02  0.80979412165E+02 -0.27432293735E+03  0.29272931134E+03  0.00000000000E+00 0. -1.
         21    1    1    2  504  501  0.35963180421E+02  0.75989855505E+02 -0.41073418730E+02  0.93567271051E+02  0.00000000000E+00 0. -1.
         21    1    1    2  505  503 -0.25580770020E+02  0.28334989792E+02  0.29334185116E+02  0.48142931545E+02  0.00000000000E+00 0.  1.
          2    1    1    2  501    0 -0.72669733058E+02 -0.18530425746E+03  0.13297856973E+04  0.13445997764E+04  0.00000000000E+00 0. -1.
<scales pt_clust_3="14000.00000" pt_clust_4="84.35344" pt_clust_5="38.17391" pt_clust_6="181.07607"></scales>
<clustering>
<clus scale="   38.174">  1  5  2 -1</clus>
<clus scale="   84.353">  2  4  1 -1</clus>
<clus scale="  181.076">  1  6  2 -1</clus>
<clus scale="   84.353">  2  3  1 -1</clus>
</clustering>
</event>
<event>
 6    0  0.1849053E+002  0.8606686E+02  0.7546771E-02  0.1312666E+00
         21   -1    0    0  504  502  0.00000000000E+00  0.00000000000E+00  0.42880652743E+03  0.42880652743E+03  0.00000000000E+00 0. -1.
          2   -1    0    0  503    0 -0.00000000000E+00 -0.00000000000E+00 -0.75597476349E+03  0.75597476349E+03  0.00000000000E+00 0.  1.
         21    1    1    2  503  505  0.82485035693E+02 -0.54418372929E+02 -0.11556734684E+03  0.15205575320E+03  0.00000000000E+00 0.  1.
         21    1    1    2  504  501 -0.46463456703E+02 -0.33012935998E+02  0.32711889347E+03  0.33204740206E+03  0.00000000000E+00 0. -1.
         21    1    1    2  505  502 -0.32784626533E+02 -0.27271250775E+01  0.74193930977E+02  0.81160386531E+02  0.00000000000E+00 0. -1.
          2    1    1    2  501    0 -0.32369524581E+01  0.90158434005E+02 -0.61291371366E+03  0.61951774912E+03  0.00000000000E+00 0.  1.
<scales pt_clust_3="14000.00000" pt_clust_4="85.03452" pt_clust_5="32.89786" pt_clust_6="86.06686"></scales>
<clustering>
<clus scale="   32.898">  1  5  2 -1</clus>
<clus scale="   85.035">  1  4  2 -1</clus>
<clus scale="   86.067">  2  6  1 -1</clus>
<clus scale="   32.898">  1  3  2 -1</clus>
</clustering>
</event>
<event>
 6    0  0.1849053E+002  0.2111451E+03  0.7546771E-02  0.1140662E+00
         21   -1    0    0  504  502  0.00000000000E+00  0.00000000000E+00  0.31976999480E+03  0.31976999480E+03  0.00000000000E+00 0.  1.
          2   -1    0    0  503    0 -0.00000000000E+00 -0.00000000000E+00 -0.10515076865E+04  0.10515076865E+04  0.00000000000E+00 0.  1.
         21    1    1    2  503  505  0.31874884109E+01  0.12205127830E+03 -0.60096020041E+02  0.13608161610E+03  0.00000000000E+00 0.  1.
         21    1    1    2  504  501 -0.11526410035E+03  0.76680887118E+02  0.19295909989E+03  0.23748470584E+03  0.00000000000E+00 0.  1.
         21    1    1    2  505  502 -0.22671404978E+02 -0.30212249971E+02  0.47356883516E+02  0.60575961143E+02  0.00000000000E+00 0.  1.
          2    1    1    2  501    0  0.13474801691E+03 -0.16851991544E+03 -0.91195765510E+03  0.93713539825E+03  0.00000000000E+00 0.  1.
<scales pt_clust_3="117.73288" pt_clust_4="211.14509" pt_clust_5="37.77264" pt_clust_6="14000.00000"></scales>
<clustering>
<clus scale="   37.773">  1  5  2 -1</clus>
<clus scale="  117.733">  1  3  2 -1</clus>
<clus scale="  211.145">  1  4  2 -1</clus>
<clus scale="   37.773">  1  3  2 -1</clus>
</clustering>
</event>
<event>
 6    0  0.1849053E+002  0.1843222E+03  0.7546771E-02  0.1163684E+00
         21   -1    0    0  501  502  0.00000000000E+00  0.00000000000E+00  0.27716443931E+03  0.27716443931E+03  0.00000000000E+00 0. -1.
          2   -1    0    0  503    0 -0.00000000000E+00 -0.00000000000E+00 -0.14437422728E+04  0.14437422728E+04  0.00000000000E+00 0. -1.
         21    1    1    2  503  504 -0.74032310145E+02 -0.17537852913E+02 -0.28864603721E+03  0.29850442883E+03  0.00000000000E+00 0. -1.
         21    1    1    2  504  505  0.35094568836E+02 -0.14777006555E+03  0.86307668271E+02  0.17469011030E+03  0.00000000000E+00 0. -1.
         21    1    1    2  505  502  0.47598747135E+02 -0.21953677983E+02  0.12862015853E+03  0.13889114402E+03  0.00000000000E+00 0. -1.
          2    1    1    2  501    0 -0.86610058261E+01  0.18726159645E+03 -0.10928596231E+04  0.11088210290E+04  0.00000000000E+00 0. -1.
<scales pt_clust_3="74.67149" pt_clust_4="184.32217" pt_clust_5="52.41760" pt_clust_6="14000.00000"></scales>
<clustering>
<clus scale="   52.418">  1  5  2 -1</clus>
<clus scale="   74.671">  2  3  1 -1</clus>
<clus scale="  184.322">  1  4  2 -1</clus>
<clus scale="   52.418">  1  3  2 -1</clus>
</clustering>
</event>
<event>
 6    0  0.1849053E+002  0.1183503E+03  0.7546771E-02  0.1245844E+00
          1   -1    0    0  504    0 -0.00000000000E+00  0.00000000000E+00  0.27583790161E+04  0.27583790161E+04  0.00000000000E+00 0.  1.
         21   -1    0    0  505  502  0.00000000000E+00 -0.00000000000E+00 -0.11056828258E+03  0.11056828258E+03  0.00000000000E+00 0. -1.
         21    1    1    2  503  501  0.31760198341E+02 -0.61644062125E+02 -0.29837462441E+02  0.75491554222E+02  0.00000000000E+00 0. -1.
         21    1    1    2  504  502  0.39127628811E+02  0.21769510012E+02  0.37180951410E+03  0.37449592478E+03  0.00000000000E+00 0.  1.
         21    1    1    2  505  503 -0.62918538617E+00 -0.46278397029E+02 -0.45554171822E+02  0.64940499507E+02  0.00000000000E+00 0.  1.
          1    1    1    2  501    0 -0.70258641766E+02  0.86152949142E+02  0.23513928537E+04  0.23540193202E+04  0.00000000000E+00 0.  1.
<scales pt_clust_3="30.79490" pt_clust_4="44.77592" pt_clust_5="30.79490" pt_clust_6="112.18699"></scales>
<clustering>
<clus scale="   30.795">  3  5 -1 -1</clus>
<clus scale="   44.776">  1  4  2 -1</clus>
<clus scale="  112.187">  1  6  2 -1</clus>
<clus scale="  118.350">  2  3  1 -1</clus>
</clustering>
</event>
<event>
 6    0  0.1849053E+002  0.1662055E+03  0.7546771E-02  0.1181864E+00
         21   -1    0    0  503  502  0.00000000000E+00  0.00000000000E+00  0.17037155950E+03  0.17037155950E+03  0.00000000000E+00 0. -1.
         -2   -1    0    0    0  501 -0.00000000000E+00 -0.00000000000E+00 -0.56903511372E+03  0.56903511372E+03  0.00000000000E+00 0. -1.
         21    1    1    2  503  501 -0.97432410236E+02 -0.13555286664E+03  0.94172274800E+02  0.19166656349E+03  0.00000000000E+00 0. -1.
         21    1    1    2  504  502 -0.12000032360E+02  0.28488526666E+02 -0.33369048748E+01  0.31092311949E+02  0.00000000000E+00 0.  1.
         21    1    1    2  505  504  0.34086951446E+02  0.45846063565E+01 -0.15526476483E+03  0.15902856999E+03  0.00000000000E+00 0.  1.
         -2    1    1    2    0  505  0.75345491150E+02  0.10247973362E+03 -0.33423415931E+03  0.35761922779E+03  0.00000000000E+00 0. -1.
<scales pt_clust_3="154.09979" pt_clust_4="30.91273" pt_clust_5="32.18386" pt_clust_6="32.18386"></scales>
<clustering>
<clus scale="   30.913">  1  4  2 -1</clus>
<clus scale="   32.184">  5  6 -1 -1</clus>
<clus scale="  154.100">  1  3  2 -1</clus>
<clus scale="   30.913">  1  3  2 -1</clus>
</clustering>
</event>
<event>
 6    0  0.1849053E+002  0.1347333E+03  0.7546771E-02  0.1220597E+00
         -2   -1    0    0    0  501 -0.00000000000E+00  0.00000000000E+00  0.75545950842E+03  0.75545950842E+03  0.00000000000E+00 0. -1.
         21   -1    0    0  504  502  0.00000000000E+00 -0.00000000000E+00 -0.59475291706E+03  0.59475291706E+03  0.00000000000E+00 0. -1.
         21    1    1    2  503  502 -0.23749799044E+02 -0.22823059563E+02 -0.62662975699E+02  0.70792609261E+02  0.00000000000E+00 0. -1.
         21    1    1    2  504  505  0.37007059226E+02 -0.11268390579E+03 -0.50109755749E+03  0.51494266397E+03  0.00000000000E+00 0. -1.
         21    1    1    2  505  501  0.46586261866E+02  0.39692529802E+02  0.45722538337E+02  0.76395858715E+02  0.00000000000E+00 0.  1.
         -2    1    1    2    0  503 -0.59843522048E+02  0.95814435555E+02  0.67874458622E+03  0.68808129353E+03  0.00000000000E+00 0. -1.
<scales pt_clust_3="32.93850" pt_clust_4="134.73331" pt_clust_5="60.24778" pt_clust_6="14000.00000"></scales>
<clustering>
<clus scale="   32.939">  2  3  1 -1</clus>
<clus scale="   60.248">  1  5  2 -1</clus>
<clus scale="  134.733">  2  4  1 -1</clus>
<clus scale="   32.939">  2  3  1 -1</clus>
</clustering>
</event>
<event>
 6    0  0.1849053E+002  0.1307059E+03  0.7546771E-02  0.1226412E+00
         21   -1    0    0  503  502  0.00000000000E+00  0.00000000000E+00  0.31646395176E+03  0.31646395176E+03  0.00000000000E+00 0. -1.
          2   -1    0    0  504    0 -0.00000000000E+00 -0.00000000000E+00 -0.47426709601E+03  0.47426709601E+03  0.00000000000E+00 0.  1.
         21    1    1    2  503  501  0.11856311862E+02 -0.11562947279E+03  0.23342666916E+03  0.26076571282E+03  0.00000000000E+00 0. -1.
         21    1    1    2  504  505 -0.15074330781E+02  0.11860577904E+03 -0.24637994708E+03  0.27385697835E+03  0.00000000000E+00 0.  1.
         21    1    1    2  505  502  0.35062379524E+02 -0.91485155916E+01  0.48228321554E+02  0.60324429507E+02  0.00000000000E+00 0. -1.
          2    1    1    2  501    0 -0.31844360604E+02  0.61722093351E+01 -0.19307818788E+03  0.19578392709E+03  0.00000000000E+00 0.  1.
<scales pt_clust_3="130.70590" pt_clust_4="14000.00000" pt_clust_5="35.53665" pt_clust_6="32.43701"></scales>
<clustering>
<clus scale="   32.437">  2  6  1 -1</clus>
<clus scale="   35.537">  1  5  2 -1</clus>
<clus scale="  130.706">  1  3  2 -1</clus>
<clus scale="   35.537">  1  3  2 -1</clus>
</clustering>
</event>
<event>
 6    0  0.1849053E+002  0.6985591E+02  0.7546771E-02  0.1360584E+00
         21   -1    0    0  504  502  0.00000000000E+00  0.00000000000E+00  0.12396425009E+03  0.12396425009E+03  0.00000000000E+00 0.  1.
          1   -1    0    0  505    0 -0.00000000000E+00 -0.00000000000E+00 -0.11934312446E+04  0.11934312446E+04  0.00000000000E+00 0. -1.
         21    1    1    2  503  502  0.35517730513E+02  0.12744921413E+01 -0.34720234436E+02  0.49685291488E+02  0.00000000000E+00 0. -1.
         21    1    1    2  504  501 -0.74908428278E+02  0.20599290439E+02  0.98236824889E+02  0.12524407035E+03  0.00000000000E+00 0.  1.
         21    1    1    2  505  503  0.36904803585E+02  0.56984456180E+02 -0.50275983380E+03  0.50732301668E+03  0.00000000000E+00 0. -1.
          1    1    1    2  501    0  0.24858941808E+01 -0.78858238761E+02 -0.63022375119E+03  0.63514311620E+03  0.00000000000E+00 0. -1.
<scales pt_clust_3="35.54059" pt_clust_4="46.30128" pt_clust_5="69.85591" pt_clust_6="14000.00000"></scales>
<clustering>
<clus scale="   35.541">  1  3  2 -1</clus>
<clus scale="   46.301">  1  4  2 -1</clus>
<clus scale="   69.856">  2  5  1 -1</clus>
<clus scale="   35.541">  1  3  2 -1</clus>
</clustering>
</event>
<event>
 6    0  0.1849053E+002  0.1854754E+03  0.7546771E-02  0.1162607E+00
         21   -1    0    0  505  502  0.00000000000E+00  0.00000000000E+00  0.27743236065E+03  0.27743236065E+03  0.00000000000E+00 0. -1.
         -2   -1    0    0    0  501 -0.00000000000E+00 -0.00000000000E+00 -0.54176039423E+03  0.54176039423E+03  0.00000000000E+00 0. -1.
         21    1    1    2  503  501 -0.19437933328E+02  0.46635267274E+02 -0.22551972885E+03  0.23110999438E+03  0.00000000000E+00 0. -1.
         21    1    1    2  504  502  0.15327747533E+03  0.10500250941E+03  0.73397410756E+02  0.19976659213E+03  0.00000000000E+00 0. -1.
         21    1    1    2  505  503 -0.19698838433E+03 -0.23282309005E+02  0.12205855455E+02  0.19873467836E+03  0.00000000000E+00 0. -1.
         -2    1    1    2    0  504  0.63148842327E+02 -0.12835546767E+03 -0.12441157095E+03  0.18958149001E+03  0.00000000000E+00 0. -1.
<scales pt_clust_3="50.52407" pt_clust_4="14000.00000" pt_clust_5="185.47543" pt_clust_6="117.80208"></scales>
<clustering>
<clus scale="   50.524">  2  3  1 -1</clus>
<clus scale="  117.802">  2  6  1 -1</clus>
<clus scale="  185.475">  2  5  1 -1</clus>
<clus scale="  185.475">  1  3  2 -1</clus>
</clustering>
</event>
<event>
 6    0  0.1849053E+002  0.2469798E+03  0.7546771E-02  0.1115228E+00
          2   -1    0    0  504    0 -0.00000000000E+00  0.00000000000E+00  0.56328453061E+03  0.56328453061E+03  0.00000000000E+00 0.  1.
         21   -1    0    0  503  502  0.00000000000E+00 -0.00000000000E+00 -0.13937474097E+04  0.13937474097E+04  0.00000000000E+00 0.  1.
         21    1    1    2  503  505 -0.10481542877E+03 -0.14991728126E+03 -0.11171842262E+04  0.11320609792E+04  0.00000000000E+00 0.  1.
         21    1    1    2  504  502  0.64848717673E+02 -0.15034178226E+02  0.11271895503E+03  0.13090815682E+03  0.00000000000E+00 0.  1.
         21    1    1    2  505  501 -0.16365092652E+02 -0.57293537730E+02 -0.22561238549E+03  0.23334805380E+03  0.00000000000E+00 0. -1.
          2    1    1    2  501    0  0.56331803753E+02  0.22224499721E+03  0.39961477755E+03  0.46071475051E+03  0.00000000000E+00 0.  1.
<scales pt_clust_3="34.32962" pt_clust_4="66.56863" pt_clust_5="34.32962" pt_clust_6="239.54332"></scales>
<clustering>
<clus scale="   34.330">  3  5 -1 -1</clus>
<clus scale="   66.569">  1  4  2 -1</clus>
<clus scale="  239.543">  1  6  2 -1</clus>
<clus scale="  246.980">  2  3  1 -1</clus>
</clustering>
</event>
<event>
 6    0  0.1849053E+002  0.2106531E+03  0.7546771E-02  0.1141050E+00
         21   -1    0    0  503  502  0.00000000000E+00  0.00000000000E+00  0.29117516925E+03  0.29117516925E+03  0.00000000000E+00 0. -1.
          1   -1    0    0  505    0 -0.00000000000E+00 -0.00000000000E+00 -0.10384373955E+04  0.10384373955E+04  0.00000000000E+00 0.  1.
         21    1    1    2  503  501 -0.62834005266E+02  0.16393950128E+03 -0.25254117181E+02  0.17737542877E+03  0.00000000000E+00 0. -1.
         21    1    1    2  504  502 -0.13092586571E+02 -0.24193281972E+03  0.13681492878E+03  0.27824670675E+03  0.00000000000E+00 0. -1.
         21    1    1    2  505  504 -0.25543744450E+02  0.20307293314E+02 -0.78905211040E+02  0.85386775156E+02  0.00000000000E+00 0.  1.
          1    1    1    2  501    0  0.10147033629E+03  0.57686025132E+02 -0.77991782677E+03  0.78860365404E+03  0.00000000000E+00 0.  1.
<scales pt_clust_3="210.65307" pt_clust_4="14000.00000" pt_clust_5="32.63233" pt_clust_6="109.59111"></scales>
<clustering>
<clus scale="   32.632">  2  5  1 -1</clus>
<clus scale="  109.591">  2  6  1 -1</clus>
<clus scale="  210.653">  2  3  1 -1</clus>
<clus scale="  210.653">  1  3  2 -1</clus>
</clustering>
</event>
<event>
 6    0  0.1849053E+002  0.1069784E+03  0.7546771E-02  0.1266270E+00
         21   -1    0    0  505  502  0.00000000000E+00  0.00000000000E+00  0.22239720369E+02  0.22239720369E+02  0.00000000000E+00 0.  1.
          2   -1    0    0  503    0 -0.00000000000E+00 -0.00000000000E+00 -0.24658147280E+04  0.24658147280E+04  0.00000000000E+00 0. -1.
         21    1    1    2  503  504 -0.72342365339E+02 -0.47871660756E+02 -0.47852841483E+03  0.48632762365E+03  0.00000000000E+00 0.  1.
         21    1    1    2  504  502 -0.83559504025E+02 -0.26852696922E+02 -0.13065491041E+03  0.15739747031E+03  0.00000000000E+00 0.  1.
         21    1    1    2  505  501  0.52212029542E+02  0.16752718019E+02 -0.27465030309E+03  0.28007059571E+03  0.00000000000E+00 0. -1.
          2    1    1    2  501    0  0.10368983982E+03  0.57971639659E+02 -0.15597413793E+04  0.15642587587E+04  0.00000000000E+00 0. -1.
<scales pt_clust_3="14000.00000" pt_clust_4="50.22522" pt_clust_5="54.83384" pt_clust_6="106.97843"></scales>
<clustering>
<clus scale="   54.834">  1  5  2 -1</clus>
<clus scale="   50.225">  1  4  2 -1</clus>
<clus scale="  106.978">  2  6  1 -1</clus>
<clus scale="   54.834">  1  3  2 -1</clus>
</clustering>
</event>
<event>
 6    0  0.1849053E+002  0.1495386E+03  0.7546771E-02  0.1201041E+00
          2   -1    0    0  505    0 -0.00000000000E+00  0.00000000000E+00  0.69547718654E+03  0.69547718654E+03  0.00000000000E+00 0.  1.
         21   -1    0    0  504  502  0.00000000000E+00 -0.00000000000E+00 -0.14733750882E+03  0.14733750882E+03  0.00000000000E+00 0.  1.
         21    1    1    2  503  502 -0.86936795861E+02  0.54960647725E+02 -0.69825587809E+02  0.12431529265E+03  0.00000000000E+00 0.  1.
         21    1    1    2  504  501 -0.60179709766E+02  0.16172641552E+01  0.26832012452E+02  0.65910317121E+02  0.00000000000E+00 0.  1.
         21    1    1    2  505  503 -0.27990449276E+01  0.63738330855E+02  0.59376866256E+02  0.87155158878E+02  0.00000000000E+00 0.  1.
          2    1    1    2  501    0  0.14991555055E+03 -0.12031624274E+03  0.53175638682E+03  0.56543392672E+03  0.00000000000E+00 0.  1.
<scales pt_clust_3="149.53861" pt_clust_4="60.20144" pt_clust_5="64.59285" pt_clust_6="14000.00000"></scales>
<clustering>
<clus scale="   60.201">  2  4  1 -1</clus>
<clus scale="   64.593">  1  5  2 -1</clus>
<clus scale="  149.539">  2  3  1 -1</clus>
<clus scale="   60.201">  2  3  1 -1</clus>
</clustering>
</event>
<event>
 6    0  0.1849053E+002  0.9853037E+02  0.7546771E-02  0.1283417E+00
          1   -1    0    0  504    0 -0.00000000000E+00  0.00000000000E+00  0.10339121736E+04  0.10339121736E+04  0.00000000000E+00 0.  1.
         21   -1    0    0  501  502  0.00000000000E+00 -0.00000000000E+00 -0.86689607412E+02  0.86689607412E+02  0.00000000000E+00 0. -1.
         21    1    1    2  503  502  0.40809316390E+02 -0.71398585111E+02  0.40605686428E+02  0.91716847037E+02  0.00000000000E+00 0. -1.
         21    1    1    2  504  505 -0.15319060775E+02  0.44804435394E+02  0.27739104029E+03  0.28140344754E+03  0.00000000000E+00 0.  1.
         21    1    1    2  505  503 -0.72019659930E+02 -0.32183895686E+02 -0.29711464458E+02  0.84293568427E+02  0.00000000000E+00 0. -1.
          1    1    1    2  501    0  0.46529404314E+02  0.58778045403E+02  0.65893730397E+03  0.66318791805E+03  0.00000000000E+00 0.  1.
<scales pt_clust_3="78.16485" pt_clust_4="47.35094" pt_clust_5="14000.00000" pt_clust_6="98.53037"></scales>
<clustering>
<clus scale="   47.351">  1  4  2 -1</clus>
<clus scale="   78.165">  2  3  1 -1</clus>
<clus scale="   98.530">  1  6  2 -1</clus>
<clus scale="   78.165">  2  3  1 -1</clus>
</clustering>
</event>
<event>
 6    0  0.1849053E+002  0.1125351E+03  0.7546771E-02  0.1255946E+00
         21   -1    0    0  505  502  0.00000000000E+00  0.00000000000E+00  0.46453911776E+03  0.46453911776E+03  0.00000000000E+00 0. -1.
          2   -1    0    0  503    0 -0.00000000000E+00 -0.00000000000E+00 -0.29384409600E+03  0.29384409600E+03  0.00000000000E+00 0. -1.
         21    1    1    2  503  502 -0.42998141291E+01  0.81833438633E+02  0.18995158777E+03  0.20687388858E+03  0.00000000000E+00 0. -1.
         21    1    1    2  504  501  0.83973057077E+02  0.70986275094E+02 -0.60846074209E+02  0.12566928946E+03  0.00000000000E+00 0. -1.
         21    1    1    2  505  504 -0.52709019901E+02 -0.32472471948E+02  0.20895977583E+03  0.21793781253E+03  0.00000000000E+00 0. -1.
          2    1    1    2  501    0 -0.26964223047E+02 -0.12034724178E+03 -0.16737026762E+03  0.20790222320E+03  0.00000000000E+00 0. -1.
<scales pt_clust_3="72.57366" pt_clust_4="14000.00000" pt_clust_5="61.90882" pt_clust_6="112.53513"></scales>
<clustering>
<clus scale="   61.909">  1  5  2 -1</clus>
<clus scale="   72.574">  1  3  2 -1</clus>
<clus scale="  112.535">  2  6  1 -1</clus>
<clus scale="   61.909">  1  3  2 -1</clus>
</clustering>
</event>
<event>
 6    0  0.1849053E+002  0.1151841E+03  0.7546771E-02  0.1251260E+00
         21   -1    0    0  503  502  0.00000000000E+00  0.00000000000E+00  0.31231320203E+03  0.31231320203E+03  0.00000000000E+00 0. -1.
          1   -1    0    0  505    0 -0.00000000000E+00 -0.00000000000E+00 -0.33707393393E+03  0.33707393393E+03  0.00000000000E+00 0.  1.
         21    1    1    2  503  501 -0.31352134702E+02  0.14612815106E+02  0.22889086028E+02  0.41477716607E+02  0.00000000000E+00 0.  1.
         21    1    1    2  504  502 -0.28998688260E+02  0.88819808602E+02  0.25648495402E+03  0.27297328433E+03  0.00000000000E+00 0. -1.
         21    1    1    2  505  504  0.38997009967E+02 -0.21890410854E+02 -0.49487918932E+02  0.66700906994E+02  0.00000000000E+00 0.  1.
          1    1    1    2  501    0  0.21353812996E+02 -0.81542212854E+02 -0.25464685301E+03  0.26823522803E+03  0.00000000000E+00 0.  1.
<scales pt_clust_3="34.59033" pt_clust_4="115.18410" pt_clust_5="43.66124" pt_clust_6="14000.00000"></scales>
<clustering>
<clus scale="   34.590">  1  3  2 -1</clus>
<clus scale="   43.661">  2  5  1 -1</clus>
<clus scale="  115.184">  1  4  2 -1</clus>
<clus scale="   34.590">  1  3  2 -1</clus>
</clustering>
</event>
<event>
 6    0  0.3263601E+002  0.9548760E+02  0.7546771E-02  0.1290082E+00
         21   -1    0    0  505  502  0.00000000000E+00  0.00000000000E+00  0.24297269253E+03  0.24297269253E+03  0.00000000000E+00 0. -1.
          1   -1    0    0  504    0 -0.00000000000E+00 -0.00000000000E+00 -0.13197788212E+04  0.13197788212E+04  0.00000000000E+00 0. -1.
         21    1    1    2  503  501  0.61310334930E+02 -0.22838264728E+02 -0.82833017316E+02  0.10555497270E+03  0.00000000000E+00 0. -1.
         21    1    1    2  504  502 -0.28142160245E+02 -0.17727075362E+02 -0.13415735896E+02  0.35863802835E+02  0.00000000000E+00 0.  1.
         21    1    1    2  505  503  0.28805263989E+02 -0.41928914904E+02  0.21520064641E+03  0.22113139839E+03  0.00000000000E+00 0. -1.
          1    1    1    2  501    0 -0.61973438674E+02  0.82494254994E+02 -0.11957580219E+04  0.12002013398E+04  0.00000000000E+00 0. -1.
<scales pt_clust_3="14000.00000" pt_clust_4="33.26004" pt_clust_5="58.66262" pt_clust_6="95.48760"></scales>
<clustering>
<clus scale="   33.260">  1  4  2 -1</clus>
<clus scale="   58.663">  1  5  2 -1</clus>
<clus scale="   95.488">  2  6  1 -1</clus>
<clus scale="   33.260">  1  3  2 -1</clus>
</clustering>
</event>
<event>
 6    0  0.1849053E+002  0.3091204E+03  0.7546771E-02  0.1080768E+00
          1   -1    0    0  505    0 -0.00000000000E+00  0.00000000000E+00  0.13775958184E+04  0.13775958184E+04  0.00000000000E+00 0.  1.
         21   -1    0    0  504  502  0.00000000000E+00 -0.00000000000E+00 -0.10413949542E+03  0.10413949542E+03  0.00000000000E+00 0. -1.
         21    1    1    2  503  502 -0.25699936098E+02  0.28035141872E+02  0.22547509651E+02  0.44213641410E+02  0.00000000000E+00 0. -1.
         21    1    1    2  504  501  0.16306769693E+03  0.25490503377E+02  0.54550279780E+03  0.56992468094E+03  0.00000000000E+00 0. -1.
         21    1    1    2  505  503 -0.26832554321E+03 -0.38228563555E+02  0.17871138954E+03  0.32465024405E+03  0.00000000000E+00 0. -1.
          1    1    1    2  501    0  0.13095778239E+03 -0.15297081694E+02  0.52669462602E+03  0.54294674744E+03  0.00000000000E+00 0.  1.
<scales pt_clust_3="35.53838" pt_clust_4="43.05595" pt_clust_5="35.53838" pt_clust_6="298.11994"></scales>
<clustering>
<clus scale="   35.538">  3  5 -1 -1</clus>
<clus scale="   43.056">  4  6 -1 -1</clus>
<clus scale="  298.120">  1  4  2 -1</clus>
<clus scale="  309.120">  2  3  1 -1</clus>
</clustering>
</event>
<event>
 6    0  0.1849053E+002  0.1983774E+03  0.7546771E-02  0.1151115E+00
         21   -1    0    0  501  502  0.00000000000E+00  0.00000000000E+00  0.10653785769E+03  0.10653785769E+03  0.00000000000E+00 0.  1.
          3   -1    0    0  504    0 -0.00000000000E+00 -0.00000000000E+00 -0.11110684114E+04  0.11110684114E+04  0.00000000000E+00 0. -1.
         21    1    1    2  503  505  0.42043859317E+02  0.68810534151E+02 -0.38139376237E+02  0.89203070217E+02  0.00000000000E+00 0.  1.
         21    1    1    2  504  503 -0.40320386361E+02 -0.56065025538E+02 -0.14263871066E+03  0.15847656743E+03  0.00000000000E+00 0. -1.
         21    1    1    2  505  502  0.20739281956E+02  0.11387581156E+03  0.19105141287E+02  0.11731506595E+03  0.00000000000E+00 0.  1.
          3    1    1    2  501    0 -0.22462754912E+02 -0.12662132017E+03 -0.84285760810E+03  0.85261156549E+03  0.00000000000E+00 0. -1.
<scales pt_clust_3="58.85086" pt_clust_4="69.05810" pt_clust_5="58.85086" pt_clust_6="185.42429"></scales>
<clustering>
<clus scale="   58.851">  3  5 -1 -1</clus>
<clus scale="   69.058">  2  4  1 -1</clus>
<clus scale="  185.424">  2  6  1 -1</clus>
<clus scale="  198.377">  1  3  2 -1</clus>
</clustering>
</event>
<event>
 6    0  0.1849053E+002  0.1878608E+03  0.7546771E-02  0.1160405E+00
         21   -1    0    0  504  502  0.00000000000E+00  0.00000000000E+00  0.31926870488E+03  0.31926870488E+03  0.00000000000E+00 0.  1.
          2   -1    0    0  503    0 -0.00000000000E+00 -0.00000000000E+00 -0.41756457430E+03  0.41756457430E+03  0.00000000000E+00 0.  1.
         21    1    1    2  503  505  0.79616828947E+02  0.19473108227E+01  0.14936693691E+03  0.16927230522E+03  0.00000000000E+00 0.  1.
         21    1    1    2  504  501 -0.52654266001E+02 -0.96039529854E+01 -0.65396735579E+02  0.84507045063E+02  0.00000000000E+00 0.  1.
         21    1    1    2  505  502  0.10117161532E+03 -0.76333010307E+00  0.11862313078E+03  0.15590935051E+03  0.00000000000E+00 0.  1.
          2    1    1    2  501    0 -0.12813417827E+03  0.84199722658E+01 -0.30088920154E+03  0.32714457840E+03  0.00000000000E+00 0.  1.
<scales pt_clust_3="31.22425" pt_clust_4="32.95649" pt_clust_5="184.18586" pt_clust_6="32.95649"></scales>
<clustering>
<clus scale="   31.224">  3  5 -1 -1</clus>
<clus scale="   32.956">  4  6 -1 -1</clus>
<clus scale="  184.186">  1  3  2 -1</clus>
<clus scale="  184.186">  1  3  2 -1</clus>
</clustering>
</event>
<event>
 6    0  0.1849053E+002  0.7244767E+02  0.7546771E-02  0.1351962E+00
          1   -1    0    0  505    0 -0.00000000000E+00  0.00000000000E+00  0.17864406528E+04  0.17864406528E+04  0.00000000000E+00 0. -1.
         21   -1    0    0  504  502  0.00000000000E+00 -0.00000000000E+00 -0.16183053980E+03  0.16183053980E+03  0.00000000000E+00 0. -1.
         21    1    1    2  503  502  0.27455906494E+02  0.20634512153E+02  0.51149377424E+02  0.61610621682E+02  0.00000000000E+00 0.  1.
         21    1    1    2  504  501  0.71526688121E+02 -0.53738196569E+02 -0.11024328133E+03  0.14197690644E+03  0.00000000000E+00 0. -1.
         21    1    1    2  505  503 -0.28913771737E+02  0.51928870306E+02  0.18671298517E-01  0.59435798269E+02  0.00000000000E+00 0. -1.
          1    1    1    2  501    0 -0.70068822878E+02 -0.18825185890E+02  0.16836853456E+04  0.16852478662E+04  0.00000000000E+00 0. -1.
<scales pt_clust_3="34.34545" pt_clust_4="72.44767" pt_clust_5="60.66649" pt_clust_6="14000.00000"></scales>
<clustering>
<clus scale="   34.345">  2  3  1 -1</clus>
<clus scale="   60.666">  2  5  1 -1</clus>
<clus scale="   72.448">  2  4  1 -1</clus>
<clus scale="   34.345">  2  3  1 -1</clus>
</clustering>
</event>
<event>
 6    0  0.1849053E+002  0.1786809E+03  0.7546771E-02  0.1169086E+00
          1   -1    0    0  504    0 -0.00000000000E+00  0.00000000000E+00  0.33001684512E+02  0.33001684512E+02  0.00000000000E+00 0. -1.
         21   -1    0    0  505  502  0.00000000000E+00 -0.00000000000E+00 -0.94399378864E+03  0.94399378864E+03  0.00000000000E+00 0.  1.
         21    1    1    2  503  502  0.71408027053E+02  0.16334581136E+02 -0.25264896042E+03  0.26305402881E+03  0.00000000000E+00 0.  1.
         21    1    1    2  504  503  0.83473699091E+02  0.49851727644E+02 -0.21603435821E+03  0.23690482713E+03  0.00000000000E+00 0.  1.
         21    1    1    2  505  501 -0.40559310332E+02  0.67830943003E+01 -0.13515115333E+03  0.14126890058E+03  0.00000000000E+00 0.  1.
          1    1    1    2  501    0 -0.11432241581E+03 -0.72969403080E+02 -0.30715763216E+03  0.33576771664E+03  0.00000000000E+00 0. -1.
<scales pt_clust_3="38.09139" pt_clust_4="174.05403" pt_clust_5="32.84483" pt_clust_6="32.84483"></scales>
<clustering>
<clus scale="   32.845">  5  6 -1 -1</clus>
<clus scale="   38.091">  3  4 -1 -1</clus>
<clus scale="  174.054">  2  3  1 -1</clus>
<clus scale="  174.054">  2  3  1 -1</clus>
</clustering>
</event>
<event>
 6    0  0.1849053E+002  0.1365696E+03  0.7546771E-02  0.1218021E+00
         21   -1    0    0  504  502  0.00000000000E+00  0.00000000000E+00  0.29602184390E+03  0.29602184390E+03  0.00000000000E+00 0.  1.
          2   -1    0    0  505    0 -0.00000000000E+00 -0.00000000000E+00 -0.36016425047E+04  0.36016425047E+04  0.00000000000E+00 0. -1.
         21    1    1    2  503  502 -0.17843006221E+02 -0.49931473436E+02 -0.55203644428E+02  0.76543891125E+02  0.00000000000E+00 0.  1.
         21    1    1    2  504  501  0.15083943014E+03  0.14949831630E+02  0.26137744427E+03  0.30214930006E+03  0.00000000000E+00 0.  1.
         21    1    1    2  505  503 -0.50612681114E+02 -0.43484100991E+02 -0.43630358489E+03  0.44137662911E+03  0.00000000000E+00 0. -1.
          2    1    1    2  501    0 -0.82383742801E+02  0.78465742797E+02 -0.30754908757E+04  0.30775945283E+04  0.00000000000E+00 0. -1.
<scales pt_clust_3="53.02381" pt_clust_4="136.56960" pt_clust_5="67.13709" pt_clust_6="14000.00000"></scales>
<clustering>
<clus scale="   53.024">  1  3  2 -1</clus>
<clus scale="   67.137">  2  5  1 -1</clus>
<clus scale="  136.570">  1  4  2 -1</clus>
<clus scale="   53.024">  1  3  2 -1</clus>
</clustering>
</event>
<event>
 6    0  0.1849053E+002  0.9841172E+02  0.7546771E-02  0.1283672E+00
         21   -1    0    0  503  502  0.00000000000E+00  0.00000000000E+00  0.81321427870E+02  0.81321427870E+02  0.00000000000E+00 0.  1.
          4   -1    0    0  505    0 -0.00000000000E+00 -0.00000000000E+00 -0.60106525496E+03  0.60106525496E+03  0.00000000000E+00 0.  1.
         21    1    1    2  503  501  0.52491024023E+02 -0.54921195450E+02 -0.18426066952E+02  0.78173942308E+02  0.00000000000E+00 0.  1.
         21    1    1    2  504  502  0.51382410002E+02 -0.13135507529E+01  0.26860808296E+02  0.57994659198E+02  0.00000000000E+00 0.  1.
         21    1    1    2  505  504 -0.19508919971E+02  0.48016318595E+02 -0.15149693348E+03  0.16011709985E+03  0.00000000000E+00 0.  1.
          4    1    1    2  501    0 -0.84364514055E+02  0.82184276077E+01 -0.37668163495E+03  0.38610098147E+03  0.00000000000E+00 0.  1.
<scales pt_clust_3="98.41172" pt_clust_4="51.39920" pt_clust_5="49.82429" pt_clust_6="14000.00000"></scales>
<clustering>
<clus scale="   51.399">  1  4  2 -1</clus>
<clus scale="   49.824">  2  5  1 -1</clus>
<clus scale="   98.412">  1  3  2 -1</clus>
<clus scale="   51.399">  1  3  2 -1</clus>
</clustering>
</event>
<event>
 6    0  0.1849053E+002  0.1732357E+03  0.7546771E-02  0.1174515E+00
          1   -1    0    0  502    0 -0.00000000000E+00  0.00000000000E+00  0.14147867610E+04  0.14147867610E+04  0.00000000000E+00 0.  1.
         21   -1    0    0  503  502  0.00000000000E+00 -0.00000000000E+00 -0.42686597688E+02  0.42686597688E+02  0.00000000000E+00 0. -1.
         21    1    1    2  503  505 -0.11304231515E+03 -0.42456817810E+02  0.80964444670E+02  0.14538358811E+03  0.00000000000E+00 0. -1.
         21    1    1    2  504  501  0.65881947524E+02  0.43959473936E+02  0.62648152883E+03  0.63146810872E+03  0.00000000000E+00 0.  1.
         21    1    1    2  505  504 -0.40573991152E+02 -0.63037647840E+01  0.85595353535E+02  0.94934455048E+02  0.00000000000E+00 0. -1.
          1    1    1    2  501    0  0.87734358774E+02  0.48011086582E+01  0.57905883631E+03  0.58568720685E+03  0.00000000000E+00 0.  1.
<scales pt_clust_3="37.04154" pt_clust_4="44.16500" pt_clust_5="37.04154" pt_clust_6="167.74829"></scales>
<clustering>
<clus scale="   37.042">  3  5 -1 -1</clus>
<clus scale="   44.165">  4  6 -1 -1</clus>
<clus scale="  167.748">  1  4  2 -1</clus>
<clus scale="  173.236">  2  3  1 -1</clus>
</clustering>
</event>
<event>
 6    0  0.1849053E+002  0.1082583E+03  0.7546771E-02  0.1263830E+00
          4   -1    0    0  505    0 -0.00000000000E+00  0.00000000000E+00  0.12999942839E+03  0.12999942839E+03  0.00000000000E+00 0.  1.
         21   -1    0    0  503  502  0.00000000000E+00 -0.00000000000E+00 -0.40007088463E+03  0.40007088463E+03  0.00000000000E+00 0.  1.
         21    1    1    2  503  501  0.92152040167E+01  0.53836155663E+02 -0.46771497728E+02  0.71908446245E+02  0.00000000000E+00 0.  1.
         21    1    1    2  504  502 -0.23264628478E+01  0.66655094572E+02 -0.27377835008E+03  0.28178520017E+03  0.00000000000E+00 0.  1.
         21    1    1    2  505  504  0.42715041984E+02 -0.20350923769E+02 -0.11354375448E+02  0.48658573261E+02  0.00000000000E+00 0.  1.
          4    1    1    2  501    0 -0.49603783153E+02 -0.10014032647E+03  0.61832767029E+02  0.12771809334E+03  0.00000000000E+00 0.  1.
<scales pt_clust_3="53.41629" pt_clust_4="14000.00000" pt_clust_5="47.31527" pt_clust_6="108.25830"></scales>
<clustering>
<clus scale="   47.315">  1  5  2 -1</clus>
<clus scale="   53.416">  2  3  1 -1</clus>
<clus scale="  108.258">  1  6  2 -1</clus>
<clus scale="   53.416">  2  3  1 -1</clus>
</clustering>
</event>
<event>
 6    0  0.1849053E+002  0.7866168E+02  0.7546771E-02  0.1332893E+00
          2   -1    0    0  505    0 -0.00000000000E+00  0.00000000000E+00  0.19691826696E+04  0.19691826696E+04  0.00000000000E+00 0. -1.
         21   -1    0    0  504  502  0.00000000000E+00 -0.00000000000E+00 -0.58898510305E+02  0.58898510305E+02  0.00000000000E+00 0.  1.
         21    1    1    2  503  502  0.50840816259E+02 -0.77636303353E+02  0.63990724220E+01  0.93022214143E+02  0.00000000000E+00 0.  1.
         21    1    1    2  504  501 -0.44130728237E+02  0.23564621336E+00  0.24614907227E+02  0.50531874710E+02  0.00000000000E+00 0. -1.
         21    1    1    2  505  503  0.34513757226E+02 -0.10524855200E+02  0.28064106845E+03  0.28295119953E+03  0.00000000000E+00 0.  1.
          2    1    1    2  501    0 -0.41223845248E+02  0.87925512340E+02  0.15986291112E+04  0.16015758915E+04  0.00000000000E+00 0. -1.
<scales pt_clust_3="14000.00000" pt_clust_4="43.36220" pt_clust_5="36.08285" pt_clust_6="78.66168"></scales>
<clustering>
<clus scale="   36.083">  1  5  2 -1</clus>
<clus scale="   43.362">  2  4  1 -1</clus>
<clus scale="   78.662">  1  6  2 -1</clus>
<clus scale="   43.362">  2  3  1 -1</clus>
</clustering>
</event>
<event>
 6    0  0.1849053E+002  0.8658996E+02  0.7546771E-02  0.1311326E+00
          1   -1    0    0  505    0 -0.00000000000E+00  0.00000000000E+00  0.18394207441E+03  0.18394207441E+03  0.00000000000E+00 0. -1.
         21   -1    0    0  503  502  0.00000000000E+00 -0.00000000000E+00 -0.32886742447E+03  0.32886742447E+03  0.00000000000E+00 0. -1.
         21    1    1    2  503  501 -0.39784174285E+02 -0.71772083319E+02 -0.20260493398E+03  0.21859270743E+03  0.00000000000E+00 0. -1.
         21    1    1    2  504  502  0.49793322347E+02 -0.24100744049E+02 -0.73587517683E+02  0.92061629210E+02  0.00000000000E+00 0.  1.
         21    1    1    2  505  504  0.30829408981E+02  0.49249211419E+02  0.12452371295E+01  0.58116158674E+02  0.00000000000E+00 0. -1.
          1    1    1    2  501    0 -0.40838557043E+02  0.46623615950E+02  0.13002186448E+03  0.14403900357E+03  0.00000000000E+00 0. -1.
<scales pt_clust_3="14000.00000" pt_clust_4="55.31926" pt_clust_5="59.13785" pt_clust_6="86.58996"></scales>
<clustering>
<clus scale="   55.319">  2  4  1 -1</clus>
<clus scale="   59.138">  1  5  2 -1</clus>
<clus scale="   86.590">  1  6  2 -1</clus>
<clus scale="   55.319">  2  3  1 -1</clus>
</clustering>
</event>
<event>
 6    0  0.1849053E+002  0.1856371E+03  0.7546771E-02  0.1162456E+00
         21   -1    0    0  505  502  0.00000000000E+00  0.00000000000E+00  0.12722877484E+04  0.12722877484E+04  0.00000000000E+00 0. -1.
          2   -1    0    0  504    0 -0.00000000000E+00 -0.00000000000E+00 -0.14368484602E+04  0.14368484602E+04  0.00000000000E+00 0.  1.
         21    1    1    2  503  502 -0.16733934882E+02 -0.35846540559E+02  0.14592260422E+03  0.15118996484E+03  0.00000000000E+00 0. -1.
         21    1    1    2  504  503  0.10591847876E+03  0.48526917727E+02 -0.53384078463E+03  0.54640604794E+03  0.00000000000E+00 0. -1.
         21    1    1    2  505  501 -0.16959340638E+03  0.16816831616E+02  0.11088725984E+04  0.11218926726E+04  0.00000000000E+00 0. -1.
          2    1    1    2  501    0  0.80408862500E+02 -0.29497208784E+02 -0.88551512975E+03  0.88964752318E+03  0.00000000000E+00 0.  1.
<scales pt_clust_3="39.56007" pt_clust_4="185.63705" pt_clust_5="14000.00000" pt_clust_6="85.64237"></scales>
<clustering>
<clus scale="   39.560">  1  3  2 -1</clus>
<clus scale="   85.642">  2  6  1 -1</clus>
<clus scale="  185.637">  2  4  1 -1</clus>
<clus scale="   39.560">  1  3  2 -1</clus>
</clustering>
</event>
<event>
 6    0  0.1849053E+002  0.1233253E+03  0.7546771E-02  0.1237710E+00
         21   -1    0    0  504  502  0.00000000000E+00  0.00000000000E+00  0.11201936272E+02  0.11201936272E+02  0.00000000000E+00 0.  1.
          2   -1    0    0  505    0 -0.00000000000E+00 -0.00000000000E+00 -0.26738280106E+04  0.26738280106E+04  0.00000000000E+00 0. -1.
         21    1    1    2  503  502  0.63435506813E+02  0.17684776198E+02 -0.25537242726E+03  0.26372692588E+03  0.00000000000E+00 0.  1.
         21    1    1    2  504  501 -0.15903373801E+01  0.47928798509E+02 -0.13274108554E+03  0.14113785704E+03  0.00000000000E+00 0.  1.
         21    1    1    2  505  503  0.30882581844E+02  0.14916252980E+02 -0.32981930944E+03  0.33159765581E+03  0.00000000000E+00 0.  1.
          2    1    1    2  501    0 -0.92727751277E+02 -0.80529827687E+02 -0.19446932521E+04  0.19485675081E+04  0.00000000000E+00 0. -1.
<scales pt_clust_3="32.29973" pt_clust_4="47.95518" pt_clust_5="32.29973" pt_clust_6="114.91682"></scales>
<clustering>
<clus scale="   32.300">  3  5 -1 -1</clus>
<clus scale="   47.955">  1  4  2 -1</clus>
<clus scale="  114.917">  2  6  1 -1</clus>
<clus scale="   47.955">  1  3  2 -1</clus>
</clustering>
</event>
<event>
 6    0  0.1849053E+002  0.1777821E+03  0.7546771E-02  0.1169967E+00
         21   -1    0    0  503  502  0.00000000000E+00  0.00000000000E+00  0.70267231491E+03  0.70267231491E+03  0.00000000000E+00 0.  1.
          1   -1    0    0  505    0 -0.00000000000E+00 -0.00000000000E+00 -0.21776488328E+04  0.21776488328E+04  0.00000000000E+00 0. -1.
         21    1    1    2  503  501 -0.70699974961E+02 -0.37950513586E+02 -0.46839575613E+02  0.92912183187E+02  0.00000000000E+00 0. -1.
         21    1    1    2  504  502 -0.48443803554E+02 -0.14691147865E+02  0.56289225312E+03  0.56516397670E+03  0.00000000000E+00 0.  1.
         21    1    1    2  505  504 -0.40489628586E+02 -0.35225099472E+02  0.10520657026E+03  0.11810436098E+03  0.00000000000E+00 0.  1.
          1    1    1    2  501    0  0.15963340710E+03  0.87866760923E+02 -0.20962357657E+04  0.21041406269E+04  0.00000000000E+00 0. -1.
<scales pt_clust_3="88.50365" pt_clust_4="50.62244" pt_clust_5="14000.00000" pt_clust_6="177.78210"></scales>
<clustering>
<clus scale="   50.622">  1  4  2 -1</clus>
<clus scale="   88.504">  1  3  2 -1</clus>
<clus scale="  177.782">  2  6  1 -1</clus>
<clus scale="   50.622">  1  3  2 -1</clus>
</clustering>
</event>
<event>
 6    0  0.1849053E+002  0.1985394E+03  0.7546771E-02  0.1150977E+00
         21   -1    0    0  501  502  0.00000000000E+00  0.00000000000E+00  0.68230612696E+02  0.68230612696E+02  0.00000000000E+00 0. -1.
          2   -1    0    0  505    0 -0.00000000000E+00 -0.00000000000E+00 -0.10884222140E+04  0.10884222140E+04  0.00000000000E+00 0. -1.
         21    1    1    2  503  502  0.10164054109E+03  0.10301734761E+03 -0.65604619160E+02  0.15889411429E+03  0.00000000000E+00 0. -1.
         21    1    1    2  504  503  0.13218959097E+02  0.49590590318E+02 -0.66381458461E+02  0.83907482116E+02  0.00000000000E+00 0. -1.
         21    1    1    2  505  504 -0.46808028922E+02  0.10851183305E+01 -0.20338586994E+03  0.20870548901E+03  0.00000000000E+00 0.  1.
          2    1    1    2  501    0 -0.68051471260E+02 -0.15369305626E+03 -0.68481965378E+03  0.70514574131E+03  0.00000000000E+00 0. -1.
<scales pt_clust_3="42.32081" pt_clust_4="42.32081" pt_clust_5="46.82061" pt_clust_6="185.38475"></scales>
<clustering>
<clus scale="   42.321">  3  4 -1 -1</clus>
<clus scale="   46.821">  2  5  1 -1</clus>
<clus scale="  185.385">  2  6  1 -1</clus>
<clus scale="  198.539">  1  3  2 -1</clus>
</clustering>
</event>
<event>
 6    0  0.1849053E+002  0.1380048E+03  0.7546771E-02  0.1216039E+00
          1   -1    0    0  504    0 -0.00000000000E+00  0.00000000000E+00  0.11620232287E+04  0.11620232287E+04  0.00000000000E+00 0.  1.
         21   -1    0    0  503  502  0.00000000000E+00 -0.00000000000E+00 -0.61982949173E+02  0.61982949173E+02  0.00000000000E+00 0.  1.
         21    1    1    2  503  505  0.70028934426E+01 -0.35177165040E+02  0.25691661057E+02  0.44119552408E+02  0.00000000000E+00 0.  1.
         21    1    1    2  504  502 -0.41791672969E+02  0.51072734540E+02  0.10240219690E+02  0.66781960455E+02  0.00000000000E+00 0.  1.
         21    1    1    2  505  501 -0.41538091846E+02  0.10792675686E+03  0.16026726128E+03  0.19763398736E+03  0.00000000000E+00 0.  1.
          1    1    1    2  501    0  0.76326871372E+02 -0.12382232636E+03  0.90384113751E+03  0.91547067766E+03  0.00000000000E+00 0.  1.
<scales pt_clust_3="35.86744" pt_clust_4="49.85569" pt_clust_5="14000.00000" pt_clust_6="138.00481"></scales>
<clustering>
<clus scale="   35.867">  2  3  1 -1</clus>
<clus scale="   49.856">  2  4  1 -1</clus>
<clus scale="  138.005">  1  6  2 -1</clus>
<clus scale="   35.867">  2  3  1 -1</clus>
</clustering>
</event>
<event>
 6    0  0.1849053E+002  0.1780852E+03  0.7546771E-02  0.1169669E+00
          2   -1    0    0  502    0 -0.00000000000E+00  0.00000000000E+00  0.26982082753E+04  0.26982082753E+04  0.00000000000E+00 0. -1.
         21   -1    0    0  503  502  0.00000000000E+00 -0.00000000000E+00 -0.14307132208E+03  0.14307132208E+03  0.00000000000E+00 0. -1.
         21    1    1    2  503  504 -0.42744673397E+02  0.17527405699E+02 -0.40308816877E+02  0.61311644671E+02  0.00000000000E+00 0. -1.
         21    1    1    2  504  505 -0.12239982573E+03 -0.38484018796E+02 -0.43232364422E+02  0.13539488312E+03  0.00000000000E+00 0. -1.
         21    1    1    2  505  501  0.32093049443E+02  0.18113421449E+02  0.32756331918E+03  0.32962977404E+03  0.00000000000E+00 0. -1.
          2    1    1    2  501    0  0.13305144968E+03  0.28431916487E+01  0.23111148153E+04  0.23149432955E+04  0.00000000000E+00 0. -1.
<scales pt_clust_3="37.96224" pt_clust_4="37.96224" pt_clust_5="30.83032" pt_clust_6="176.47783"></scales>
<clustering>
<clus scale="   30.830">  5  6 -1 -1</clus>
<clus scale="   37.962">  3  4 -1 -1</clus>
<clus scale="  176.478">  1  5  2 -1</clus>
<clus scale="  178.085">  2  3  1 -1</clus>
</clustering>
</event>
<event>
 6    0  0.1849053E+002  0.8798573E+02  0.7546771E-02  0.1307804E+00
          1   -1    0    0  505    0 -0.00000000000E+00  0.00000000000E+00  0.20176591419E+04  0.20176591419E+04  0.00000000000E+00 0.  1.
         21   -1    0    0  504  502  0.00000000000E+00 -0.00000000000E+00 -0.49196022003E+02  0.49196022003E+02  0.00000000000E+00 0. -1.
         21    1    1    2  503  501  0.65380098849E+02  0.81042047408E+02  0.59677136991E+03  0.60578745342E+03  0.00000000000E+00 0.  1.
         21    1    1    2  504  503  0.35942979893E+02 -0.21442159048E+02 -0.84728749616E+01  0.42701915628E+02  0.00000000000E+00 0. -1.
         21    1    1    2  505  502 -0.43633978044E+02 -0.69014823422E+02  0.71900088433E+02  0.10879610567E+03  0.00000000000E+00 0. -1.
          1    1    1    2  501    0 -0.57689100697E+02  0.94149350623E+01  0.13082645365E+04  0.13095696892E+04  0.00000000000E+00 0.  1.
<scales pt_clust_3="87.98573" pt_clust_4="41.85289" pt_clust_5="14000.00000" pt_clust_6="57.37788"></scales>
<clustering>
<clus scale="   41.853">  2  4  1 -1</clus>
<clus scale="   57.378">  1  6  2 -1</clus>
<clus scale="   87.986">  1  3  2 -1</clus>
<clus scale="   41.853">  2  3  1 -1</clus>
</clustering>
</event>
<event>
 6    0  0.1849053E+002  0.1443007E+03  0.7546771E-02  0.1207656E+00
         21   -1    0    0  501  502  0.00000000000E+00  0.00000000000E+00  0.41102159515E+03  0.41102159515E+03  0.00000000000E+00 0.  1.
          1   -1    0    0  503    0 -0.00000000000E+00 -0.00000000000E+00 -0.19493645519E+03  0.19493645519E+03  0.00000000000E+00 0.  1.
         21    1    1    2  503  504 -0.36932482257E+02  0.32697419038E+02 -0.13644404728E+02  0.51179089850E+02  0.00000000000E+00 0.  1.
         21    1    1    2  504  505  0.11489101333E+03 -0.41006693280E+01  0.29671073530E+03  0.31820436967E+03  0.00000000000E+00 0.  1.
         21    1    1    2  505  502  0.17274582920E+02 -0.27270568976E+02  0.65727000590E+02  0.73226591850E+02  0.00000000000E+00 0.  1.
          1    1    1    2  501    0 -0.95233113996E+02 -0.13261807342E+01 -0.13270819120E+03  0.16334799898E+03  0.00000000000E+00 0.  1.
<scales pt_clust_3="49.32676" pt_clust_4="30.92189" pt_clust_5="30.92189" pt_clust_6="131.97537"></scales>
<clustering>
<clus scale="   30.922">  4  5 -1 -1</clus>
<clus scale="   49.327">  2  3  1 -1</clus>
<clus scale="  131.975">  2  6  1 -1</clus>
<clus scale="  144.301">  1  3  2 -1</clus>
</clustering>
</event>
<event>
 6    0  0.1849053E+002  0.8565872E+02  0.7546771E-02  0.1313719E+00
         21   -1    0    0  504  502  0.00000000000E+00  0.00000000000E+00  0.17815852756E+04  0.17815852756E+04  0.00000000000E+00 0.  1.
          4   -1    0    0  503    0 -0.00000000000E+00 -0.00000000000E+00 -0.11352747427E+03  0.11352747427E+03  0.00000000000E+00 0.  1.
         21    1    1    2  503  505 -0.44179737229E+02 -0.75449161279E+01  0.10885558773E+02  0.46122340908E+02  0.00000000000E+00 0.  1.
         21    1    1    2  504  501  0.76634043617E+02 -0.42070970406E+02  0.15622974844E+04  0.15647415675E+04  0.00000000000E+00 0.  1.
         21    1    1    2  505  502 -0.28504890034E+02  0.87293724578E+02  0.17387489545E+03  0.19663469270E+03  0.00000000000E+00 0.  1.
          4    1    1    2  501    0 -0.39494163546E+01 -0.37677838044E+02 -0.79000137320E+02  0.87614148776E+02  0.00000000000E+00 0.  1.
<scales pt_clust_3="55.05905" pt_clust_4="14000.00000" pt_clust_5="85.65872" pt_clust_6="37.88426"></scales>
<clustering>
<clus scale="   37.884">  2  6  1 -1</clus>
<clus scale="   55.059">  2  3  1 -1</clus>
<clus scale="   85.659">  2  5  1 -1</clus>
<clus scale="   85.659">  1  3  2 -1</clus>
</clustering>
</event>
<event>
 6    0  0.1849053E+002  0.1270596E+03  0.7546771E-02  0.1231885E+00
         21   -1    0    0  505  502  0.00000000000E+00  0.00000000000E+00  0.16303836114E+02  0.16303836114E+02  0.00000000000E+00 0. -1.
          2   -1    0    0  504    0 -0.00000000000E+00 -0.00000000000E+00 -0.24575190375E+04  0.24575190375E+04  0.00000000000E+00 0.  1.
         21    1    1    2  503  501 -0.21307719819E+02 -0.72045083424E+02 -0.11992836872E+03  0.14151793736E+03  0.00000000000E+00 0. -1.
         21    1    1    2  504  502  0.32852657863E+02  0.19876050844E+02 -0.30100351814E+03  0.30344270046E+03  0.00000000000E+00 0. -1.
         21    1    1    2  505  503  0.80831540472E+01 -0.44990516819E+02 -0.17349403761E+03  0.17941478498E+03  0.00000000000E+00 0. -1.
          2    1    1    2  501    0 -0.19628092092E+02  0.97159549398E+02 -0.18467892769E+04  0.18494474508E+04  0.00000000000E+00 0.  1.
<scales pt_clust_3="42.93197" pt_clust_4="38.39732" pt_clust_5="42.93197" pt_clust_6="114.52186"></scales>
<clustering>
<clus scale="   38.397">  2  4  1 -1</clus>
<clus scale="   42.932">  3  5 -1 -1</clus>
<clus scale="  114.522">  2  6  1 -1</clus>
<clus scale="  127.060">  1  3  2 -1</clus>
</clustering>
</event>
<event>
 6    0  0.1849053E+002  0.1159832E+03  0.7546771E-02  0.1249875E+00
         21   -1    0    0  503  502  0.00000000000E+00  0.00000000000E+00  0.19043654211E+03  0.19043654211E+03  0.00000000000E+00 0. -1.
          2   -1    0    0  505    0 -0.00000000000E+00 -0.00000000000E+00 -0.11621698569E+04  0.11621698569E+04  0.00000000000E+00 0. -1.
         21    1    1    2  503  504 -0.43945176070E+02 -0.49216059165E+02  0.13275294601E+03  0.14824555189E+03  0.00000000000E+00 0. -1.
         21    1    1    2  504  501 -0.29102962728E+02 -0.30605692897E+02  0.30673542077E+02  0.52197289783E+02  0.00000000000E+00 0.  1.
         21    1    1    2  505  502 -0.32465149995E+02  0.36031155102E+02 -0.10466593999E+03  0.11535679042E+03  0.00000000000E+00 0.  1.
          2    1    1    2  501    0  0.10551328879E+03  0.43790596960E+02 -0.10304938629E+04  0.10368067669E+04  0.00000000000E+00 0. -1.
<scales pt_clust_3="33.57941" pt_clust_4="33.57941" pt_clust_5="48.49979" pt_clust_6="108.12271"></scales>
<clustering>
<clus scale="   33.579">  3  4 -1 -1</clus>
<clus scale="   48.500">  2  5  1 -1</clus>
<clus scale="  108.123">  2  6  1 -1</clus>
<clus scale="  115.983">  1  3  2 -1</clus>
</clustering>
</event>
<event>
 6    0  0.1849053E+002  0.2344576E+03  0.7546771E-02  0.1123541E+00
          2   -1    0    0  505    0 -0.00000000000E+00  0.00000000000E+00  0.21313234837E+04  0.21313234837E+04  0.00000000000E+00 0.  1.
         21   -1    0    0  503  502  0.00000000000E+00 -0.00000000000E+00 -0.66406534213E+02  0.66406534213E+02  0.00000000000E+00 0.  1.
         21    1    1    2  503  501 -0.25555863932E+02 -0.57746564354E+02  0.15782369503E+03  0.16998848957E+03  0.00000000000E+00 0.  1.
         21    1    1    2  504  502 -0.11366659972E+03  0.13418031199E+03  0.13783617346E+03  0.22343514212E+03  0.00000000000E+00 0.  1.
         21    1    1    2  505  504 -0.10957223530E+02  0.75176256540E+02  0.12512006922E+03  0.14637814733E+03  0.00000000000E+00 0.  1.
          2    1    1    2  501    0  0.15017968718E+03 -0.15161000418E+03  0.16441370118E+04  0.16579282389E+04  0.00000000000E+00 0.  1.
<scales pt_clust_3="63.14878" pt_clust_4="59.71667" pt_clust_5="59.71667" pt_clust_6="216.13827"></scales>
<clustering>
<clus scale="   59.717">  4  5 -1 -1</clus>
<clus scale="   63.149">  2  3  1 -1</clus>
<clus scale="  216.138">  1  6  2 -1</clus>
<clus scale="   63.149">  2  3  1 -1</clus>
</clustering>
</event>
<event>
 6    0  0.1849053E+002  0.1014066E+03  0.7546771E-02  0.1277366E+00
         -3   -1    0    0    0  501 -0.00000000000E+00  0.00000000000E+00  0.89972904355E+03  0.89972904355E+03  0.00000000000E+00 0.  1.
         21   -1    0    0  505  502  0.00000000000E+00 -0.00000000000E+00 -0.61058795800E+03  0.61058795800E+03  0.00000000000E+00 0. -1.
         21    1    1    2  503  501 -0.92201682938E+02  0.25630032193E+02  0.11983117219E+02  0.96445030899E+02  0.00000000000E+00 0. -1.
         21    1    1    2  504  502  0.26396069430E+02  0.21349217716E+02 -0.45295340468E+03  0.45422387474E+03  0.00000000000E+00 0. -1.
         21    1    1    2  505  503  0.25779915803E+02  0.49580193811E+02 -0.10450714187E+03  0.11850967209E+03  0.00000000000E+00 0. -1.
         -3    1    1    2    0  504  0.40025697706E+02 -0.96559443721E+02  0.83461851488E+03  0.84113842382E+03  0.00000000000E+00 0.  1.
<scales pt_clust_3="101.40663" pt_clust_4="33.94910" pt_clust_5="78.57750" pt_clust_6="14000.00000"></scales>
<clustering>
<clus scale="   33.949">  2  4  1 -1</clus>
<clus scale="   78.578">  2  5  1 -1</clus>
<clus scale="  101.407">  2  3  1 -1</clus>
<clus scale="   33.949">  2  3  1 -1</clus>
</clustering>
</event>
<event>
 6    0  0.1849053E+002  0.1224562E+03  0.7546771E-02  0.1239099E+00
          2   -1    0    0  504    0 -0.00000000000E+00  0.00000000000E+00  0.10605995066E+04  0.10605995066E+04  0.00000000000E+00 0.  1.
         21   -1    0    0  505  502  0.00000000000E+00 -0.00000000000E+00 -0.49824173815E+03  0.49824173815E+03  0.00000000000E+00 0.  1.
         21    1    1    2  503  502  0.53637235049E+02 -0.12164846573E+03 -0.43584908753E+03  0.45567502597E+03  0.00000000000E+00 0.  1.
         21    1    1    2  504  503 -0.43841498382E+02  0.71543527162E+02 -0.10497062774E+02  0.84562057603E+02  0.00000000000E+00 0.  1.
         21    1    1    2  505  501  0.30643968300E+02  0.47126930389E+02  0.17272297639E+03  0.18164037804E+03  0.00000000000E+00 0.  1.
          2    1    1    2  501    0 -0.40439704967E+02  0.29780081754E+01  0.83598094232E+03  0.83696378309E+03  0.00000000000E+00 0.  1.
<scales pt_clust_3="14000.00000" pt_clust_4="122.45618" pt_clust_5="49.49891" pt_clust_6="40.54921"></scales>
<clustering>
<clus scale="   40.549">  1  6  2 -1</clus>
<clus scale="   49.499">  1  5  2 -1</clus>
<clus scale="  122.456">  1  4  2 -1</clus>
<clus scale="  122.456">  2  3  1 -1</clus>
</clustering>
</event>
<event>
 6    0  0.1849053E+002  0.9777755E+02  0.7546771E-02  0.1285040E+00
         -1   -1    0    0    0  501 -0.00000000000E+00  0.00000000000E+00  0.54665072288E+03  0.54665072288E+03  0.00000000000E+00 0.  1.
         21   -1    0    0  504  502  0.00000000000E+00 -0.00000000000E+00 -0.76269895243E+02  0.76269895243E+02  0.00000000000E+00 0. -1.
         21    1    1    2  503  501  0.53502908882E+02  0.50229116408E+02  0.18143539428E+03  0.19571491433E+03  0.00000000000E+00 0.  1.
         21    1    1    2  504  503 -0.76581589325E+01 -0.34792967848E+02  0.29839971001E+02  0.46471732045E+02  0.00000000000E+00 0. -1.
         21    1    1    2  505  502  0.35754717671E+02 -0.72101464203E+02 -0.21299338678E+02  0.83250722544E+02  0.00000000000E+00 0. -1.
         -1    1    1    2    0  505 -0.81599467621E+02  0.56665315643E+02  0.28040480103E+03  0.29748324920E+03  0.00000000000E+00 0.  1.
<scales pt_clust_3="70.32923" pt_clust_4="35.62581" pt_clust_5="97.77755" pt_clust_6="14000.00000"></scales>
<clustering>
<clus scale="   35.626">  2  4  1 -1</clus>
<clus scale="   70.329">  1  3  2 -1</clus>
<clus scale="   97.778">  2  5  1 -1</clus>
<clus scale="   35.626">  2  3  1 -1</clus>
</clustering>
</event>
<event>
 6    0  0.1849053E+002  0.1396581E+03  0.7546771E-02  0.1213790E+00
         21   -1    0    0  504  502  0.00000000000E+00  0.00000000000E+00  0.11850844183E+04  0.11850844183E+04  0.00000000000E+00 0.  1.
         -3   -1    0    0    0  501 -0.00000000000E+00 -0.00000000000E+00 -0.47518932919E+02  0.47518932919E+02  0.00000000000E+00 0.  1.
         21    1    1    2  503  501 -0.28169967622E+02  0.11994654529E+03  0.14861024935E+03  0.19304332937E+03  0.00000000000E+00 0.  1.
         21    1    1    2  504  503  0.12497342976E+02  0.49012097536E+02  0.38794175037E+03  0.39122521770E+03  0.00000000000E+00 0.  1.
         21    1    1    2  505  502  0.28954692554E+02  0.83421429929E+01  0.27794051544E+03  0.27956912507E+03  0.00000000000E+00 0.  1.
         -3    1    1    2    0  505 -0.13282067909E+02 -0.17730078582E+03  0.32307297026E+03  0.36876567911E+03  0.00000000000E+00 0.  1.
<scales pt_clust_3="14000.00000" pt_clust_4="58.21271" pt_clust_5="30.13247" pt_clust_6="139.65810"></scales>
<clustering>
<clus scale="   30.132">  1  5  2 -1</clus>
<clus scale="   58.213">  1  4  2 -1</clus>
<clus scale="  139.658">  1  6  2 -1</clus>
<clus scale="   30.132">  1  3  2 -1</clus>
</clustering>
</event>
<event>
 6    0  0.1849053E+002  0.1330587E+03  0.7546771E-02  0.1222986E+00
          1   -1    0    0  504    0 -0.00000000000E+00  0.00000000000E+00  0.16746056430E+03  0.16746056430E+03  0.00000000000E+00 0. -1.
         21   -1    0    0  501  502  0.00000000000E+00 -0.00000000000E+00 -0.35243424412E+03  0.35243424412E+03  0.00000000000E+00 0. -1.
         21    1    1    2  503  505  0.19463077292E+02 -0.27032263174E+02 -0.47448468878E+02  0.57973371722E+02  0.00000000000E+00 0. -1.
         21    1    1    2  504  503 -0.29525772407E+02 -0.85361853954E+02 -0.93632591361E+02  0.13009796121E+03  0.00000000000E+00 0. -1.
         21    1    1    2  505  502 -0.60158170522E+02  0.76129634055E+01 -0.15329574254E+03  0.16485310847E+03  0.00000000000E+00 0. -1.
          1    1    1    2  501    0  0.70220865637E+02  0.10478115372E+03  0.10940312296E+03  0.16697036701E+03  0.00000000000E+00 0. -1.
<scales pt_clust_3="31.74875" pt_clust_4="31.74875" pt_clust_5="60.63796" pt_clust_6="122.35747"></scales>
<clustering>
<clus scale="   31.749">  3  4 -1 -1</clus>
<clus scale="   60.638">  2  5  1 -1</clus>
<clus scale="  122.357">  1  6  2 -1</clus>
<clus scale="   60.638">  2  3  1 -1</clus>
</clustering>
</event>
<event>
 6    0  0.1849053E+002  0.1476580E+03  0.7546771E-02  0.1203381E+00
         21   -1    0    0  505  502  0.00000000000E+00  0.00000000000E+00  0.52236911960E+03  0.52236911960E+03  0.00000000000E+00 0.  1.
          4   -1    0    0  502    0 -0.00000000000E+00 -0.00000000000E+00 -0.12278016077E+03  0.12278016077E+03  0.00000000000E+00 0.  1.
         21    1    1    2  503  504  0.10427828346E+03  0.57807853259E+02  0.32477022588E+03  0.34596446048E+03  0.00000000000E+00 0.  1.
         21    1    1    2  504  501 -0.61335920601E+02 -0.65196046592E+02 -0.62412275916E+02  0.10912337894E+03  0.00000000000E+00 0.  1.
         21    1    1    2  505  503 -0.31144999073E+00  0.37336617378E+02  0.13260052092E+03  0.13775709835E+03  0.00000000000E+00 0. -1.
          4    1    1    2  501    0 -0.42630912873E+02 -0.29948424045E+02  0.46304879441E+01  0.52304342590E+02  0.00000000000E+00 0.  1.
<scales pt_clust_3="137.63826" pt_clust_4="40.56175" pt_clust_5="37.33792" pt_clust_6="40.56175"></scales>
<clustering>
<clus scale="   37.338">  1  5  2 -1</clus>
<clus scale="   40.562">  4  6 -1 -1</clus>
<clus scale="  137.638">  1  3  2 -1</clus>
<clus scale="   37.338">  1  3  2 -1</clus>
</clustering>
</event>
<event>
 6    0  0.1849053E+002  0.1119313E+03  0.7546771E-02  0.1257035E+00
         -1   -1    0    0    0  501 -0.00000000000E+00  0.00000000000E+00  0.64886098863E+03  0.64886098863E+03  0.00000000000E+00 0. -1.
         21   -1    0    0  504  502  0.00000000000E+00 -0.00000000000E+00 -0.42692981966E+02  0.42692981966E+02  0.00000000000E+00 0. -1.
         21    1    1    2  503  501 -0.77061378532E+02  0.29138546136E+02  0.37468316589E+03  0.38363392151E+03  0.00000000000E+00 0. -1.
         21    1    1    2  504  505  0.63821646772E+02  0.18010248259E+02  0.24327647087E+02  0.70635727871E+02  0.00000000000E+00 0. -1.
         21    1    1    2  505  503  0.49650795045E+02 -0.36240950870E+01  0.51600697812E+02  0.71700540643E+02  0.00000000000E+00 0.  1.
         -1    1    1    2    0  502 -0.36411063286E+02 -0.43524699308E+02  0.15555649588E+03  0.16558378058E+03  0.00000000000E+00 0. -1.
<scales pt_clust_3="105.43758" pt_clust_4="32.55247" pt_clust_5="32.55247" pt_clust_6="56.74650"></scales>
<clustering>
<clus scale="   32.552">  4  5 -1 -1</clus>
<clus scale="   56.746">  1  6  2 -1</clus>
<clus scale="  105.438">  1  3  2 -1</clus>
<clus scale="  111.931">  2  3  1 -1</clus>
</clustering>
</event>
<event>
 6    0  0.1849053E+002  0.1851844E+03  0.7546771E-02  0.1162878E+00
         21   -1    0    0  503  502  0.00000000000E+00  0.00000000000E+00  0.16394513517E+04  0.16394513517E+04  0.00000000000E+00 0.  1.
          3   -1    0    0  504    0 -0.00000000000E+00 -0.00000000000E+00 -0.14353208083E+04  0.14353208083E+04  0.00000000000E+00 0.  1.
         21    1    1    2  503  505 -0.22030598019E+02  0.24791958075E+02  0.94072574628E+02  0.99747870811E+02  0.00000000000E+00 0. -1.
         21    1    1    2  504  502  0.47580567570E+02 -0.10573001201E+03 -0.91695375093E+03  0.92425479560E+03  0.00000000000E+00 0.  1.
         21    1    1    2  505  501 -0.13833874142E+03  0.69896102181E+02  0.15286508654E+04  0.15364883796E+04  0.00000000000E+00 0.  1.
          3    1    1    2  501    0  0.11278877187E+03  0.11041951751E+02 -0.50163914569E+03  0.51428111403E+03  0.00000000000E+00 0.  1.
<scales pt_clust_3="33.16607" pt_clust_4="185.18439" pt_clust_5="14000.00000" pt_clust_6="113.24809"></scales>
<clustering>
<clus scale="   33.166">  1  3  2 -1</clus>
<clus scale="  113.248">  2  6  1 -1</clus>
<clus scale="  185.184">  2  4  1 -1</clus>
<clus scale="   33.166">  1  3  2 -1</clus>
</clustering>
</event>
<event>
 6    0  0.1849053E+002  0.1173802E+03  0.7546771E-02  0.1247482E+00
         -1   -1    0    0    0  501 -0.00000000000E+00  0.00000000000E+00  0.80443437642E+03  0.80443437642E+03  0.00000000000E+00 0. -1.
         21   -1    0    0  504  502  0.00000000000E+00 -0.00000000000E+00 -0.29529181233E+03  0.29529181233E+03  0.00000000000E+00 0. -1.
         21    1    1    2  503  502  0.78832278660E+02 -0.13732408882E+02  0.66297614202E+01  0.80293592204E+02  0.00000000000E+00 0. -1.
         21    1    1    2  504  501 -0.12808618382E+03 -0.51270170741E+02 -0.23092019597E+03  0.26899598102E+03  0.00000000000E+00 0. -1.
         21    1    1    2  505  503  0.38083587772E+02  0.29223076567E+02  0.64237937574E+02  0.80192646080E+02  0.00000000000E+00 0. -1.
         -1    1    1    2    0  505  0.11170317393E+02  0.35779503056E+02  0.66919506107E+03  0.67024396946E+03  0.00000000000E+00 0. -1.
<scales pt_clust_3="14000.00000" pt_clust_4="117.38025" pt_clust_5="65.46111" pt_clust_6="37.48265"></scales>
<clustering>
<clus scale="   37.483">  1  6  2 -1</clus>
<clus scale="   65.461">  1  5  2 -1</clus>
<clus scale="  117.380">  2  4  1 -1</clus>
<clus scale="  117.380">  2  3  1 -1</clus>
</clustering>
</event>
<event>
 6    0  0.1849053E+002  0.1079705E+03  0.7546771E-02  0.1264375E+00
         -2   -1    0    0    0  501 -0.00000000000E+00  0.00000000000E+00  0.10404794970E+03  0.10404794970E+03  0.00000000000E+00 0.  1.
         21   -1    0    0  504  502  0.00000000000E+00 -0.00000000000E+00 -0.31027527670E+03  0.31027527670E+03  0.00000000000E+00 0.  1.
         21    1    1    2  503  502 -0.49253567447E+02 -0.90059648983E+02 -0.13538114509E+03  0.16989617043E+03  0.00000000000E+00 0.  1.
         21    1    1    2  504  505  0.44026509953E+02 -0.37180044431E+02 -0.76949491274E+02  0.96134871352E+02  0.00000000000E+00 0.  1.
         21    1    1    2  505  501  0.30186059582E+02  0.26430312766E+02 -0.14032549102E+02  0.42504965126E+02  0.00000000000E+00 0.  1.
         -2    1    1    2    0  503 -0.24959002088E+02  0.10080938065E+03  0.20135858467E+02  0.10578721949E+03  0.00000000000E+00 0.  1.
<scales pt_clust_3="107.97051" pt_clust_4="58.42115" pt_clust_5="40.12181" pt_clust_6="14000.00000"></scales>
<clustering>
<clus scale="   40.122">  1  5  2 -1</clus>
<clus scale="   58.421">  2  4  1 -1</clus>
<clus scale="  107.971">  2  3  1 -1</clus>
<clus scale="   58.421">  2  3  1 -1</clus>
</clustering>
</event>
<event>
 6    0  0.1849053E+002  0.7908411E+02  0.7546771E-02  0.1331671E+00
         21   -1    0    0  505  502  0.00000000000E+00  0.00000000000E+00  0.81646894436E+03  0.81646894436E+03  0.00000000000E+00 0.  1.
          2   -1    0    0  503    0 -0.00000000000E+00 -0.00000000000E+00 -0.29317406047E+03  0.29317406047E+03  0.00000000000E+00 0.  1.
         21    1    1    2  503  504  0.11037550077E+03 -0.10380159708E+02 -0.18886636078E+03  0.21900000256E+03  0.00000000000E+00 0.  1.
         21    1    1    2  504  502  0.10321802051E+02  0.48395448396E+02  0.58904484349E+03  0.59111968895E+03  0.00000000000E+00 0.  1.
         21    1    1    2  505  501 -0.60741332916E+02  0.18648345445E+02  0.18551010547E+03  0.19608995268E+03  0.00000000000E+00 0.  1.
          2    1    1    2  501    0 -0.59955969904E+02 -0.56663634133E+02 -0.62393704277E+02  0.10343336064E+03  0.00000000000E+00 0.  1.
<scales pt_clust_3="79.08411" pt_clust_4="49.48393" pt_clust_5="14000.00000" pt_clust_6="78.84349"></scales>
<clustering>
<clus scale="   49.484">  1  4  2 -1</clus>
<clus scale="   78.843">  2  6  1 -1</clus>
<clus scale="   79.084">  2  3  1 -1</clus>
<clus scale="   49.484">  1  3  2 -1</clus>
</clustering>
</event>
<event>
 6    0  0.1849053E+002  0.1219796E+03  0.7546771E-02  0.1239867E+00
         21   -1    0    0  504  502  0.00000000000E+00  0.00000000000E+00  0.18911324820E+03  0.18911324820E+03  0.00000000000E+00 0. -1.
          2   -1    0    0  505    0 -0.00000000000E+00 -0.00000000000E+00 -0.18950331175E+04  0.18950331175E+04  0.00000000000E+00 0. -1.
         21    1    1    2  503  501  0.32435737435E+02  0.86968482762E+02  0.50964180393E+02  0.10589117876E+03  0.00000000000E+00 0. -1.
         21    1    1    2  504  503  0.36598944507E+02  0.17231022332E+02  0.10234510391E+03  0.11004958502E+03  0.00000000000E+00 0. -1.
         21    1    1    2  505  502 -0.18371933280E+02 -0.33237033981E+02 -0.10241991722E+03  0.10923400480E+03  0.00000000000E+00 0. -1.
          2    1    1    2  501    0 -0.50662748661E+02 -0.70962471113E+02 -0.17568092364E+04  0.17589715971E+04  0.00000000000E+00 0. -1.
<scales pt_clust_3="14000.00000" pt_clust_4="40.38609" pt_clust_5="37.97668" pt_clust_6="121.97962"></scales>
<clustering>
<clus scale="   37.977">  2  5  1 -1</clus>
<clus scale="   40.386">  1  4  2 -1</clus>
<clus scale="  121.980">  2  6  1 -1</clus>
<clus scale="   40.386">  1  3  2 -1</clus>
</clustering>
</event>
<event>
 6    0  0.1849053E+002  0.8530530E+02  0.7546771E-02  0.1314636E+00
         21   -1    0    0  503  502  0.00000000000E+00  0.00000000000E+00  0.56406265323E+03  0.56406265323E+03  0.00000000000E+00 0.  1.
          1   -1    0    0  504    0 -0.00000000000E+00 -0.00000000000E+00 -0.20221035037E+04  0.20221035037E+04  0.00000000000E+00 0.  1.
         21    1    1    2  503  501  0.98211122357E+02 -0.46645729932E+02  0.35640619495E+03  0.37262128827E+03  0.00000000000E+00 0.  1.
         21    1    1    2  504  505  0.37394051450E+02  0.21338811758E+02 -0.57690791266E+03  0.57851222949E+03  0.00000000000E+00 0.  1.
         21    1    1    2  505  502 -0.47555148769E+02  0.51486819673E+02  0.19104619907E+03  0.20349701460E+03  0.00000000000E+00 0.  1.
          1    1    1    2  501    0 -0.88050025038E+02 -0.26179901499E+02 -0.14285853318E+04  0.14315356246E+04  0.00000000000E+00 0.  1.
<scales pt_clust_3="14000.00000" pt_clust_4="43.05415" pt_clust_5="85.30530" pt_clust_6="51.27660"></scales>
<clustering>
<clus scale="   43.054">  2  4  1 -1</clus>
<clus scale="   51.277">  2  6  1 -1</clus>
<clus scale="   85.305">  1  5  2 -1</clus>
<clus scale="   85.305">  1  3  2 -1</clus>
</clustering>
</event>
<event>
 6    0  0.1849053E+002  0.6338124E+02  0.7546771E-02  0.1384166E+00
         21   -1    0    0  505  502  0.00000000000E+00  0.00000000000E+00  0.11414731780E+03  0.11414731780E+03  0.00000000000E+00 0. -1.
          2   -1    0    0  504    0 -0.00000000000E+00 -0.00000000000E+00 -0.27222004115E+03  0.27222004115E+03  0.00000000000E+00 0.  1.
         21    1    1    2  503  502  0.36939967549E+02  0.71673089065E+02 -0.47404350909E+02  0.93534835135E+02  0.00000000000E+00 0.  1.
         21    1    1    2  504  503 -0.29159647550E+02 -0.58407250147E+02 -0.51002916608E+02  0.82843161561E+02  0.00000000000E+00 0.  1.
         21    1    1    2  505  501  0.29136465365E+02 -0.58665951376E+02  0.52190446400E+02  0.83752433757E+02  0.00000000000E+00 0. -1.
          2    1    1    2  501    0 -0.36916785364E+02  0.45400112458E+02 -0.11185590223E+03  0.12623692849E+03  0.00000000000E+00 0.  1.
<scales pt_clust_3="63.38124" pt_clust_4="59.48823" pt_clust_5="14000.00000" pt_clust_6="58.51512"></scales>
<clustering>
<clus scale="   58.515">  2  6  1 -1</clus>
<clus scale="   59.488">  2  4  1 -1</clus>
<clus scale="   63.381">  2  3  1 -1</clus>
<clus scale="   63.381">  1  3  2 -1</clus>
</clustering>
</event>
<event>
 6    0  0.1849053E+002  0.8673712E+02  0.7546771E-02  0.1310951E+00
          2   -1    0    0  503    0 -0.00000000000E+00  0.00000000000E+00  0.10079053810E+04  0.10079053810E+04  0.00000000000E+00 0.  1.
         21   -1    0    0  505  502  0.00000000000E+00 -0.00000000000E+00 -0.95967979653E+02  0.95967979653E+02  0.00000000000E+00 0.  1.
         21    1    1    2  503  502 -0.12504149991E+02  0.34665642446E+02 -0.23806628705E+01  0.36928689239E+02  0.00000000000E+00 0. -1.
         21    1    1    2  504  501 -0.29938693937E+02 -0.95126899117E+02 -0.19071406450E+02  0.10153408725E+03  0.00000000000E+00 0.  1.
         21    1    1    2  505  504  0.20050324899E+02 -0.22893305999E+02  0.25068651872E+01  0.30535280598E+02  0.00000000000E+00 0.  1.
          2    1    1    2  501    0  0.22392519029E+02  0.83354562670E+02  0.93088260544E+03  0.93487530353E+03  0.00000000000E+00 0.  1.
<scales pt_clust_3="30.17309" pt_clust_4="86.73712" pt_clust_5="30.43220" pt_clust_6="14000.00000"></scales>
<clustering>
<clus scale="   30.432">  2  5  1 -1</clus>
<clus scale="   30.173">  2  3  1 -1</clus>
<clus scale="   86.737">  2  4  1 -1</clus>
<clus scale="   30.432">  2  3  1 -1</clus>
</clustering>
</event>
<event>
 6    0  0.1849053E+002  0.8686474E+02  0.7546771E-02  0.1310627E+00
         21   -1    0    0  503  502  0.00000000000E+00  0.00000000000E+00  0.11593874143E+04  0.11593874143E+04  0.00000000000E+00 0. -1.
          2   -1    0    0  505    0 -0.00000000000E+00 -0.00000000000E+00 -0.11698241178E+03  0.11698241178E+03  0.00000000000E+00 0. -1.
         21    1    1    2  503  504  0.17839833733E+01 -0.42136357343E+02  0.12838289869E+03  0.13513261591E+03  0.00000000000E+00 0.  1.
         21    1    1    2  504  501 -0.34454910380E+02 -0.35489708930E+02  0.13194538580E+03  0.14091218940E+03  0.00000000000E+00 0. -1.
         21    1    1    2  505  502  0.78047014256E+02  0.11057018947E+02  0.87431279571E+03  0.87785901991E+03  0.00000000000E+00 0. -1.
          2    1    1    2  501    0 -0.45376087249E+02  0.66569047327E+02 -0.92236077634E+02  0.12246600089E+03  0.00000000000E+00 0. -1.
<scales pt_clust_3="33.75983" pt_clust_4="33.75983" pt_clust_5="78.82635" pt_clust_6="78.79569"></scales>
<clustering>
<clus scale="   33.760">  3  4 -1 -1</clus>
<clus scale="   78.826">  1  5  2 -1</clus>
<clus scale="   78.796">  2  6  1 -1</clus>
<clus scale="   78.826">  1  3  2 -1</clus>
</clustering>
</event>
<event>
 6    0  0.1849053E+002  0.2884511E+03  0.7546771E-02  0.1091161E+00
         21   -1    0    0  505  502  0.00000000000E+00  0.00000000000E+00  0.11887615035E+03  0.11887615035E+03  0.00000000000E+00 0.  1.
          2   -1    0    0  503    0 -0.00000000000E+00 -0.00000000000E+00 -0.24984367085E+04  0.24984367085E+04  0.00000000000E+00 0.  1.
         21    1    1    2  503  502  0.18283002438E+03 -0.44550291315E+02  0.53910859986E+01  0.18825676636E+03  0.00000000000E+00 0.  1.
         21    1    1    2  504  501 -0.75595453555E+02  0.19528589713E+01 -0.33649298148E+03  0.34488550686E+03  0.00000000000E+00 0. -1.
         21    1    1    2  505  504  0.10231649610E+03  0.31401315453E+02 -0.23044640947E+03  0.25408710244E+03  0.00000000000E+00 0.  1.
          2    1    1    2  501    0 -0.20955106693E+03  0.11196116890E+02 -0.18180122532E+04  0.18300834832E+04  0.00000000000E+00 0.  1.
<scales pt_clust_3="275.84080" pt_clust_4="50.63838" pt_clust_5="107.02667" pt_clust_6="50.63838"></scales>
<clustering>
<clus scale="   50.638">  4  6 -1 -1</clus>
<clus scale="  107.027">  1  5  2 -1</clus>
<clus scale="  275.841">  1  3  2 -1</clus>
<clus scale="  107.027">  1  3  2 -1</clus>
</clustering>
</event>
<event>
 6    0  0.1849053E+002  0.1311125E+03  0.7546771E-02  0.1225814E+00
          1   -1    0    0  504    0 -0.00000000000E+00  0.00000000000E+00  0.67986686716E+02  0.67986686716E+02  0.00000000000E+00 0. -1.
         21   -1    0    0  501  502  0.00000000000E+00 -0.00000000000E+00 -0.10066109918E+04  0.10066109918E+04  0.00000000000E+00 0. -1.
         21    1    1    2  503  502 -0.34163290404E+02 -0.14926610607E+02 -0.23080415838E+03  0.23379583752E+03  0.00000000000E+00 0.  1.
         21    1    1    2  504  505  0.38592780026E+02  0.33787376489E+01 -0.43020494158E+02  0.57892844600E+02  0.00000000000E+00 0.  1.
         21    1    1    2  505  503 -0.88306466261E+02  0.38556166176E+02 -0.68562555658E+03  0.69236335386E+03  0.00000000000E+00 0. -1.
          1    1    1    2  501    0  0.83876976638E+02 -0.27008293218E+02  0.20825903995E+02  0.90545642577E+02  0.00000000000E+00 0. -1.
<scales pt_clust_3="30.28327" pt_clust_4="38.74040" pt_clust_5="30.28327" pt_clust_6="121.73845"></scales>
<clustering>
<clus scale="   30.283">  3  5 -1 -1</clus>
<clus scale="   38.740">  1  4  2 -1</clus>
<clus scale="  121.738">  1  6  2 -1</clus>
<clus scale="  131.112">  2  3  1 -1</clus>
</clustering>
</event>
<event>
 6    0  0.1849053E+002  0.1164410E+03  0.7546771E-02  0.1249087E+00
          2   -1    0    0  504    0 -0.00000000000E+00  0.00000000000E+00  0.47973473473E+03  0.47973473473E+03  0.00000000000E+00 0.  1.
         21   -1    0    0  505  502  0.00000000000E+00 -0.00000000000E+00 -0.60801859562E+02  0.60801859562E+02  0.00000000000E+00 0.  1.
         21    1    1    2  503  502 -0.40175779905E+02 -0.44239569291E+02  0.78366898131E+01  0.60271440080E+02  0.00000000000E+00 0.  1.
         21    1    1    2  504  503  0.22455250763E+02 -0.67750340215E+02  0.29251473722E+02  0.77136214588E+02  0.00000000000E+00 0.  1.
         21    1    1    2  505  501  0.38276842326E+02  0.45998329114E+02  0.19088138197E+03  0.20004165796E+03  0.00000000000E+00 0.  1.
          2    1    1    2  501    0 -0.20556313184E+02  0.65991580392E+02  0.19096332967E+03  0.20308728166E+03  0.00000000000E+00 0.  1.
<scales pt_clust_3="59.75979" pt_clust_4="98.52259" pt_clust_5="57.74745" pt_clust_6="57.74745"></scales>
<clustering>
<clus scale="   57.747">  5  6 -1 -1</clus>
<clus scale="   59.760">  2  3  1 -1</clus>
<clus scale="   98.523">  2  4  1 -1</clus>
<clus scale="   59.760">  2  3  1 -1</clus>
</clustering>
</event>
<event>
 6    0  0.1849053E+002  0.1712954E+03  0.7546771E-02  0.1176504E+00
         21   -1    0    0  503  502  0.00000000000E+00  0.00000000000E+00  0.11318506829E+03  0.11318506829E+03  0.00000000000E+00 0.  1.
          1   -1    0    0  505    0 -0.00000000000E+00 -0.00000000000E+00 -0.74973429945E+03  0.74973429945E+03  0.00000000000E+00 0. -1.
         21    1    1    2  503  501  0.44931546181E+02 -0.12805465895E+03 -0.34933694977E+03  0.37477078861E+03  0.00000000000E+00 0. -1.
         21    1    1    2  504  502 -0.83222528120E+02  0.13610636303E+03  0.22236703102E+02  0.16107576543E+03  0.00000000000E+00 0.  1.
         21    1    1    2  505  504 -0.60629919107E+01  0.37262000659E+02 -0.71922272919E+02  0.81228258050E+02  0.00000000000E+00 0.  1.
          1    1    1    2  501    0  0.44353973849E+02 -0.45313704733E+02 -0.23752671157E+03  0.24584455565E+03  0.00000000000E+00 0. -1.
<scales pt_clust_3="35.68851" pt_clust_4="163.14464" pt_clust_5="37.75204" pt_clust_6="35.68851"></scales>
<clustering>
<clus scale="   35.689">  3  6 -1 -1</clus>
<clus scale="   37.752">  2  5  1 -1</clus>
<clus scale="  163.145">  1  4  2 -1</clus>
<clus scale="  163.145">  1  3  2 -1</clus>
</clustering>
</event>
<event>
 6    0  0.1849053E+002  0.1703233E+03  0.7546771E-02  0.1177511E+00
         21   -1    0    0  503  502  0.00000000000E+00  0.00000000000E+00  0.85952733453E+02  0.85952733453E+02  0.00000000000E+00 0. -1.
          1   -1    0    0  505    0 -0.00000000000E+00 -0.00000000000E+00 -0.18794992768E+04  0.18794992768E+04  0.00000000000E+00 0. -1.
         21    1    1    2  503  504 -0.11145609065E+02 -0.38655093270E+02 -0.54744299909E+02  0.67936582264E+02  0.00000000000E+00 0.  1.
         21    1    1    2  504  501  0.34302538622E+02  0.69076869599E+02 -0.62412879956E+03  0.62887601045E+03  0.00000000000E+00 0. -1.
         21    1    1    2  505  502 -0.34139583028E+02 -0.12117051605E+03  0.22427429437E+02  0.12787022593E+03  0.00000000000E+00 0. -1.
          1    1    1    2  501    0  0.10982653470E+02  0.90748739722E+02 -0.11371008734E+04  0.11407691917E+04  0.00000000000E+00 0. -1.
<scales pt_clust_3="40.22985" pt_clust_4="42.17146" pt_clust_5="163.98425" pt_clust_6="42.17146"></scales>
<clustering>
<clus scale="   40.230">  1  3  2 -1</clus>
<clus scale="   42.171">  4  6 -1 -1</clus>
<clus scale="  163.984">  1  5  2 -1</clus>
<clus scale="   40.230">  1  3  2 -1</clus>
</clustering>
</event>
<event>
 6    0  0.1849053E+002  0.1871633E+03  0.7546771E-02  0.1161045E+00
         -3   -1    0    0    0  501 -0.00000000000E+00  0.00000000000E+00  0.59064849381E+02  0.59064849381E+02  0.00000000000E+00 0.  1.
         21   -1    0    0  503  502  0.00000000000E+00 -0.00000000000E+00 -0.70551778883E+03  0.70551778883E+03  0.00000000000E+00 0.  1.
         21    1    1    2  503  501 -0.95536965042E+02 -0.14694425197E+03 -0.26067108446E+03  0.31411676038E+03  0.00000000000E+00 0.  1.
         21    1    1    2  504  502 -0.30229410856E+02  0.23399022721E+02 -0.10908758144E+03  0.11559166046E+03  0.00000000000E+00 0.  1.
         21    1    1    2  505  504  0.56700250129E+02  0.80094270771E+02 -0.20052977914E+03  0.22325367387E+03  0.00000000000E+00 0.  1.
         -3    1    1    2    0  505  0.69066125769E+02  0.43450958480E+02 -0.76164494414E+02  0.11162054350E+03  0.00000000000E+00 0.  1.
<scales pt_clust_3="174.72748" pt_clust_4="38.22737" pt_clust_5="60.00250" pt_clust_6="60.00250"></scales>
<clustering>
<clus scale="   38.227">  2  4  1 -1</clus>
<clus scale="   60.002">  5  6 -1 -1</clus>
<clus scale="  174.727">  2  3  1 -1</clus>
<clus scale="   38.227">  2  3  1 -1</clus>
</clustering>
</event>
<event>
 6    0  0.1849053E+002  0.8591387E+02  0.7546771E-02  0.1313060E+00
         21   -1    0    0  504  502  0.00000000000E+00  0.00000000000E+00  0.30159170178E+02  0.30159170178E+02  0.00000000000E+00 0.  1.
          2   -1    0    0  503    0 -0.00000000000E+00 -0.00000000000E+00 -0.33792872292E+04  0.33792872292E+04  0.00000000000E+00 0.  1.
         21    1    1    2  503  505  0.24275244536E+02  0.20258672609E+02 -0.22072287111E+03  0.22297597885E+03  0.00000000000E+00 0.  1.
         21    1    1    2  504  501 -0.18694512022E+02 -0.13430838455E+03 -0.42708564283E+03  0.44809638835E+03  0.00000000000E+00 0.  1.
         21    1    1    2  505  502 -0.36023665553E+02  0.67979398042E+02 -0.62894313353E+02  0.99371010311E+02  0.00000000000E+00 0.  1.
          2    1    1    2  501    0  0.30442933039E+02  0.46070313901E+02 -0.26384252317E+04  0.26390030219E+04  0.00000000000E+00 0.  1.
<scales pt_clust_3="31.61805" pt_clust_4="85.91387" pt_clust_5="77.10640" pt_clust_6="14000.00000"></scales>
<clustering>
<clus scale="   31.618">  2  3  1 -1</clus>
<clus scale="   77.106">  1  5  2 -1</clus>
<clus scale="   85.914">  1  4  2 -1</clus>
<clus scale="   77.106">  1  3  2 -1</clus>
</clustering>
</event>
<event>
 6    0  0.1849053E+002  0.2102670E+03  0.7546771E-02  0.1141355E+00
         21   -1    0    0  503  502  0.00000000000E+00  0.00000000000E+00  0.15977977103E+04  0.15977977103E+04  0.00000000000E+00 0. -1.
          3   -1    0    0  504    0 -0.00000000000E+00 -0.00000000000E+00 -0.31741817504E+03  0.31741817504E+03  0.00000000000E+00 0.  1.
         21    1    1    2  503  505  0.45354823157E+02 -0.15915807722E+02  0.56800800366E+03  0.57003812604E+03  0.00000000000E+00 0.  1.
         21    1    1    2  504  502 -0.11598771836E+02  0.39730882029E+02 -0.22917983198E+02  0.47310764618E+02  0.00000000000E+00 0. -1.
         21    1    1    2  505  501  0.11652050406E+03 -0.10340483078E+03  0.98417822870E+03  0.99643182042E+03  0.00000000000E+00 0. -1.
          3    1    1    2  501    0 -0.15027655538E+03  0.79589756474E+02 -0.24888871385E+03  0.30143517432E+03  0.00000000000E+00 0.  1.
<scales pt_clust_3="35.58846" pt_clust_4="41.38930" pt_clust_5="35.58846" pt_clust_6="200.26799"></scales>
<clustering>
<clus scale="   35.588">  3  5 -1 -1</clus>
<clus scale="   41.389">  2  4  1 -1</clus>
<clus scale="  200.268">  2  6  1 -1</clus>
<clus scale="  210.267">  1  3  2 -1</clus>
</clustering>
</event>
<event>
 6    0  0.1849053E+002  0.2900414E+03  0.7546771E-02  0.1090328E+00
         21   -1    0    0  504  502  0.00000000000E+00  0.00000000000E+00  0.39518966157E+02  0.39518966157E+02  0.00000000000E+00 0.  1.
          2   -1    0    0  505    0 -0.00000000000E+00 -0.00000000000E+00 -0.26133930221E+04  0.26133930221E+04  0.00000000000E+00 0.  1.
         21    1    1    2  503  501  0.12513432568E+03  0.44696965354E+02 -0.30871441553E+03  0.33609672496E+03  0.00000000000E+00 0.  1.
         21    1    1    2  504  503  0.82779363405E+02  0.12789984671E+03 -0.45417872501E+03  0.47905021454E+03  0.00000000000E+00 0.  1.
         21    1    1    2  505  502  0.25858705156E+02 -0.16938266023E+02 -0.14285417542E+03  0.14616050398E+03  0.00000000000E+00 0. -1.
          2    1    1    2  501    0 -0.23377239425E+03 -0.15565854604E+03 -0.16681267400E+04  0.16916045448E+04  0.00000000000E+00 0.  1.
<scales pt_clust_3="91.55889" pt_clust_4="91.55889" pt_clust_5="30.91242" pt_clust_6="273.28222"></scales>
<clustering>
<clus scale="   30.912">  2  5  1 -1</clus>
<clus scale="   91.559">  3  4 -1 -1</clus>
<clus scale="  273.282">  2  6  1 -1</clus>
<clus scale="  290.041">  1  3  2 -1</clus>
</clustering>
</event>
<event>
 6    0  0.1849053E+002  0.1074472E+03  0.7546771E-02  0.1265372E+00
         21   -1    0    0  505  502  0.00000000000E+00  0.00000000000E+00  0.48635049033E+03  0.48635049033E+03  0.00000000000E+00 0. -1.
          1   -1    0    0  503    0 -0.00000000000E+00 -0.00000000000E+00 -0.21132340721E+04  0.21132340721E+04  0.00000000000E+00 0.  1.
         21    1    1    2  503  504  0.31150796820E+02  0.72932573886E+02 -0.26238961091E+02  0.83534517149E+02  0.00000000000E+00 0. -1.
         21    1    1    2  504  502 -0.27758315085E+02  0.42171902352E+02  0.44618447670E+03  0.44903182588E+03  0.00000000000E+00 0. -1.
         21    1    1    2  505  501 -0.10159818787E+03 -0.11864263210E+03 -0.72982583825E+03  0.74635381697E+03  0.00000000000E+00 0. -1.
          1    1    1    2  501    0  0.98205706136E+02  0.35381558615E+01 -0.13170032592E+04  0.13206644025E+04  0.00000000000E+00 0.  1.
<scales pt_clust_3="14000.00000" pt_clust_4="50.48756" pt_clust_5="107.44724" pt_clust_6="97.05185"></scales>
<clustering>
<clus scale="   50.488">  1  4  2 -1</clus>
<clus scale="   97.052">  2  6  1 -1</clus>
<clus scale="  107.447">  2  5  1 -1</clus>
<clus scale="   50.488">  1  3  2 -1</clus>
</clustering>
</event>
<event>
 6    0  0.1849053E+002  0.1517888E+03  0.7546771E-02  0.1198292E+00
          2   -1    0    0  505    0 -0.00000000000E+00  0.00000000000E+00  0.18625149155E+04  0.18625149155E+04  0.00000000000E+00 0. -1.
         21   -1    0    0  503  502  0.00000000000E+00 -0.00000000000E+00 -0.65985720650E+02  0.65985720650E+02  0.00000000000E+00 0. -1.
         21    1    1    2  503  504 -0.25681315798E+02 -0.47735720871E+02  0.23719807201E+02  0.59168051192E+02  0.00000000000E+00 0. -1.
         21    1    1    2  504  501  0.14466904356E+02 -0.96021050743E+02  0.90109578277E+01  0.97521950701E+02  0.00000000000E+00 0. -1.
         21    1    1    2  505  502 -0.24623780550E+02  0.28866607202E+02  0.21329312097E+03  0.21664156349E+03  0.00000000000E+00 0. -1.
          2    1    1    2  501    0  0.35838191992E+02  0.11489016441E+03  0.15505053089E+04  0.15551690708E+04  0.00000000000E+00 0. -1.
<scales pt_clust_3="38.82813" pt_clust_4="38.82813" pt_clust_5="37.94221" pt_clust_6="142.65754"></scales>
<clustering>
<clus scale="   37.942">  1  5  2 -1</clus>
<clus scale="   38.828">  3  4 -1 -1</clus>
<clus scale="  142.658">  1  6  2 -1</clus>
<clus scale="  151.789">  2  3  1 -1</clus>
</clustering>
</event>
<event>
 6    0  0.1849053E+002  0.2183658E+03  0.7546771E-02  0.1135107E+00
         -1   -1    0    0    0  501 -0.00000000000E+00  0.00000000000E+00  0.70276211631E+03  0.70276211631E+03  0.00000000000E+00 0. -1.
         21   -1    0    0  504  502  0.00000000000E+00 -0.00000000000E+00 -0.24826964473E+03  0.24826964473E+03  0.00000000000E+00 0.  1.
         21    1    1    2  503  502  0.11657934659E+03  0.72080062328E+02 -0.12144071818E+03  0.18312325758E+03  0.00000000000E+00 0.  1.
         21    1    1    2  504  501  0.53709743858E+02  0.12121851302E+02  0.33393608951E+02  0.64395721776E+02  0.00000000000E+00 0. -1.
         21    1    1    2  505  503  0.62071321267E+02  0.37101436241E+02 -0.26490490956E+02  0.77013710507E+02  0.00000000000E+00 0. -1.
         -1    1    1    2    0  505 -0.23236041172E+03 -0.12130334987E+03  0.56903007176E+03  0.62649907118E+03  0.00000000000E+00 0. -1.
<scales pt_clust_3="32.08292" pt_clust_4="55.06066" pt_clust_5="32.08292" pt_clust_6="213.85199"></scales>
<clustering>
<clus scale="   32.083">  3  5 -1 -1</clus>
<clus scale="   55.061">  1  4  2 -1</clus>
<clus scale="  213.852">  1  6  2 -1</clus>
<clus scale="  218.366">  2  3  1 -1</clus>
</clustering>
</event>
<event>
 6    0  0.1849053E+002  0.1097426E+03  0.7546771E-02  0.1261047E+00
         21   -1    0    0  504  502  0.00000000000E+00  0.00000000000E+00  0.22405111780E+03  0.22405111780E+03  0.00000000000E+00 0.  1.
          1   -1    0    0  502    0 -0.00000000000E+00 -0.00000000000E+00 -0.87977034095E+03  0.87977034095E+03  0.00000000000E+00 0.  1.
         21    1    1    2  503  505  0.15227338821E+03  0.64481609762E+02  0.19976448081E+02  0.16656566643E+03  0.00000000000E+00 0.  1.
         21    1    1    2  504  503 -0.64304143329E+02 -0.11553563735E+02  0.10120632543E+03  0.12046255846E+03  0.00000000000E+00 0.  1.
         21    1    1    2  505  501 -0.11084612155E+03  0.47107060427E+02 -0.22280985522E+03  0.25327883723E+03  0.00000000000E+00 0.  1.
          1    1    1    2  501    0  0.22876876666E+02 -0.10003510645E+03 -0.55409214143E+03  0.56351439663E+03  0.00000000000E+00 0.  1.
<scales pt_clust_3="14000.00000" pt_clust_4="65.33382" pt_clust_5="109.74257" pt_clust_6="102.52572"></scales>
<clustering>
<clus scale="   65.334">  1  4  2 -1</clus>
<clus scale="  102.526">  2  6  1 -1</clus>
<clus scale="  109.743">  2  5  1 -1</clus>
<clus scale="   65.334">  1  3  2 -1</clus>
</clustering>
</event>
<event>
 6    0  0.1849053E+002  0.2063067E+03  0.7546771E-02  0.1144525E+00
         21   -1    0    0  504  502  0.00000000000E+00  0.00000000000E+00  0.35614487962E+03  0.35614487962E+03  0.00000000000E+00 0. -1.
          2   -1    0    0  503    0 -0.00000000000E+00 -0.00000000000E+00 -0.67093254977E+03  0.67093254977E+03  0.00000000000E+00 0.  1.
         21    1    1    2  503  502  0.40881401729E+02  0.19102182801E+02  0.39335812228E+02  0.59862246188E+02  0.00000000000E+00 0. -1.
         21    1    1    2  504  505  0.69108226872E+01  0.17194203547E+03  0.26398241867E+03  0.31511670917E+03  0.00000000000E+00 0. -1.
         21    1    1    2  505  501 -0.94661030419E+00 -0.96667334620E+02 -0.22033757402E+03  0.24061196183E+03  0.00000000000E+00 0.  1.
          2    1    1    2  501    0 -0.46845614112E+02 -0.94376883649E+02 -0.39776832703E+03  0.41148651220E+03  0.00000000000E+00 0.  1.
<scales pt_clust_3="45.12408" pt_clust_4="195.36356" pt_clust_5="63.53418" pt_clust_6="63.53418"></scales>
<clustering>
<clus scale="   45.124">  1  3  2 -1</clus>
<clus scale="   63.534">  5  6 -1 -1</clus>
<clus scale="  195.364">  1  4  2 -1</clus>
<clus scale="   45.124">  1  3  2 -1</clus>
</clustering>
</event>
<event>
 6    0  0.1849053E+002  0.1685245E+03  0.7546771E-02  0.1179395E+00
          2   -1    0    0  503    0 -0.00000000000E+00  0.00000000000E+00  0.33395392828E+04  0.33395392828E+04  0.00000000000E+00 0.  1.
         21   -1    0    0  504  502  0.00000000000E+00 -0.00000000000E+00 -0.49704845274E+02  0.49704845274E+02  0.00000000000E+00 0. -1.
         21    1    1    2  503  505  0.23260996899E+02 -0.69271840039E+02  0.44583282647E+02  0.85599829969E+02  0.00000000000E+00 0. -1.
         21    1    1    2  504  501 -0.15297227750E+02  0.48265358503E+02  0.12704658692E+04  0.12714743705E+04  0.00000000000E+00 0.  1.
         21    1    1    2  505  502  0.71260312279E+02 -0.62300727781E+02  0.56072441150E+02  0.11001605085E+03  0.00000000000E+00 0. -1.
          2    1    1    2  501    0 -0.79224081428E+02  0.83307209317E+02  0.19187128445E+04  0.19221538767E+04  0.00000000000E+00 0.  1.
<scales pt_clust_3="38.18152" pt_clust_4="30.80662" pt_clust_5="167.73192" pt_clust_6="30.80662"></scales>
<clustering>
<clus scale="   30.807">  4  6 -1 -1</clus>
<clus scale="   38.182">  3  5 -1 -1</clus>
<clus scale="  167.732">  2  3  1 -1</clus>
<clus scale="  167.732">  2  3  1 -1</clus>
</clustering>
</event>
<event>
 6    0  0.1849053E+002  0.1279303E+03  0.7546771E-02  0.1230559E+00
          2   -1    0    0  505    0 -0.00000000000E+00  0.00000000000E+00  0.33685227604E+03  0.33685227604E+03  0.00000000000E+00 0. -1.
         21   -1    0    0  501  502  0.00000000000E+00 -0.00000000000E+00 -0.18960145678E+03  0.18960145678E+03  0.00000000000E+00 0.  1.
         21    1    1    2  503  502 -0.11004890200E+02 -0.57851865830E+02 -0.88617199440E+02  0.10639997192E+03  0.00000000000E+00 0.  1.
         21    1    1    2  504  503  0.25114628902E+02 -0.64334527543E+02 -0.58678744547E+02  0.90624892169E+02  0.00000000000E+00 0.  1.
         21    1    1    2  505  504 -0.32230984303E+02  0.22159401022E+02  0.13235273508E+03  0.13801131072E+03  0.00000000000E+00 0.  1.
          2    1    1    2  501    0  0.18121245601E+02  0.10002699235E+03  0.16219402816E+03  0.19141755801E+03  0.00000000000E+00 0. -1.
<scales pt_clust_3="41.77466" pt_clust_4="41.77466" pt_clust_5="39.11362" pt_clust_6="119.88355"></scales>
<clustering>
<clus scale="   39.114">  1  5  2 -1</clus>
<clus scale="   41.775">  3  4 -1 -1</clus>
<clus scale="  119.884">  1  6  2 -1</clus>
<clus scale="  127.930">  2  3  1 -1</clus>
</clustering>
</event>
<event>
 6    0  0.1849053E+002  0.9265327E+02  0.7546771E-02  0.1296551E+00
         21   -1    0    0  503  502  0.00000000000E+00  0.00000000000E+00  0.11855407275E+04  0.11855407275E+04  0.00000000000E+00 0. -1.
          2   -1    0    0  505    0 -0.00000000000E+00 -0.00000000000E+00 -0.13502563715E+04  0.13502563715E+04  0.00000000000E+00 0.  1.
         21    1    1    2  503  501  0.69944210147E+02 -0.95185529168E+02 -0.75165838100E+03  0.76088290769E+03  0.00000000000E+00 0.  1.
         21    1    1    2  504  502 -0.23495371169E+02  0.50958743813E+02  0.11652854461E+04  0.11666357602E+04  0.00000000000E+00 0. -1.
         21    1    1    2  505  504 -0.27227951733E+02 -0.28361387530E+02 -0.18550444778E+02  0.43472389625E+02  0.00000000000E+00 0. -1.
          2    1    1    2  501    0 -0.19220887244E+02  0.72588172884E+02 -0.55979226434E+03  0.56480604155E+03  0.00000000000E+00 0.  1.
<scales pt_clust_3="14000.00000" pt_clust_4="56.10706" pt_clust_5="39.31577" pt_clust_6="92.65327"></scales>
<clustering>
<clus scale="   39.316">  2  5  1 -1</clus>
<clus scale="   56.107">  1  4  2 -1</clus>
<clus scale="   92.653">  2  6  1 -1</clus>
<clus scale="   56.107">  1  3  2 -1</clus>
</clustering>
</event>
<event>
 6    0  0.1849053E+002  0.1790236E+03  0.7546771E-02  0.1168751E+00
         21   -1    0    0  503  502  0.00000000000E+00  0.00000000000E+00  0.50226047065E+03  0.50226047065E+03  0.00000000000E+00 0.  1.
         -1   -1    0    0    0  501 -0.00000000000E+00 -0.00000000000E+00 -0.45022848257E+03  0.45022848257E+03  0.00000000000E+00 0.  1.
         21    1    1    2  503  501 -0.10022845978E+03  0.10090081806E+03  0.39195256459E+03  0.41695747041E+03  0.00000000000E+00 0.  1.
         21    1    1    2  504  505  0.75393962796E+02 -0.33989810597E+02 -0.15731322062E+03  0.17772733676E+03  0.00000000000E+00 0.  1.
         21    1    1    2  505  502 -0.50399386106E+02 -0.71741054025E+01  0.70569051036E+02  0.87014693428E+02  0.00000000000E+00 0. -1.
         -1    1    1    2    0  504  0.75233883090E+02 -0.59736902066E+02 -0.25317640693E+03  0.27078945264E+03  0.00000000000E+00 0.  1.
<scales pt_clust_3="175.66256" pt_clust_4="32.03574" pt_clust_5="50.90742" pt_clust_6="32.03574"></scales>
<clustering>
<clus scale="   32.036">  4  6 -1 -1</clus>
<clus scale="   50.907">  1  5  2 -1</clus>
<clus scale="  175.663">  1  3  2 -1</clus>
<clus scale="   50.907">  1  3  2 -1</clus>
</clustering>
</event>
<event>
 6    0  0.1849053E+002  0.2208704E+03  0.7546771E-02  0.1133236E+00
          2   -1    0    0  505    0 -0.00000000000E+00  0.00000000000E+00  0.16475695619E+04  0.16475695619E+04  0.00000000000E+00 0.  1.
         21   -1    0    0  504  502  0.00000000000E+00 -0.00000000000E+00 -0.41700680118E+02  0.41700680118E+02  0.00000000000E+00 0. -1.
         21    1    1    2  503  502  0.86765255127E+02 -0.17970441343E+03  0.39068005002E+03  0.43869441208E+03  0.00000000000E+00 0. -1.
         21    1    1    2  504  501 -0.30427884059E+02  0.41729133681E+02  0.12401834085E+03  0.13434182369E+03  0.00000000000E+00 0. -1.
         21    1    1    2  505  503  0.31108295108E+02 -0.31404134635E+02  0.23165567969E+03  0.23583532311E+03  0.00000000000E+00 0.  1.
          2    1    1    2  501    0 -0.87445666176E+02  0.16937941439E+03  0.85951481124E+03  0.88039868315E+03  0.00000000000E+00 0.  1.
<scales pt_clust_3="211.85819" pt_clust_4="32.50512" pt_clust_5="44.20346" pt_clust_6="32.50512"></scales>
<clustering>
<clus scale="   32.505">  4  6 -1 -1</clus>
<clus scale="   44.203">  1  5  2 -1</clus>
<clus scale="  211.858">  2  3  1 -1</clus>
<clus scale="  211.858">  2  3  1 -1</clus>
</clustering>
</event>
<event>
 6    0  0.1849053E+002  0.8502451E+02  0.7546771E-02  0.1315368E+00
          2   -1    0    0  503    0 -0.00000000000E+00  0.00000000000E+00  0.11283527620E+04  0.11283527620E+04  0.00000000000E+00 0. -1.
         21   -1    0    0  505  502  0.00000000000E+00 -0.00000000000E+00 -0.50602899500E+03  0.50602899500E+03  0.00000000000E+00 0.  1.
         21    1    1    2  503  504 -0.42767210599E+02 -0.45339320185E+02  0.54390673988E+02  0.82722630967E+02  0.00000000000E+00 0.  1.
         21    1    1    2  504  502  0.19637169297E+02 -0.43868198935E+02 -0.63578276425E+02  0.79700906702E+02  0.00000000000E+00 0.  1.
         21    1    1    2  505  501  0.64247255776E+02  0.77413634627E+02 -0.41375876247E+03  0.42581321518E+03  0.00000000000E+00 0.  1.
          2    1    1    2  501    0 -0.41117214473E+02  0.11793884493E+02  0.10452701319E+04  0.10461450041E+04  0.00000000000E+00 0. -1.
<scales pt_clust_3="14000.00000" pt_clust_4="45.48626" pt_clust_5="85.02451" pt_clust_6="42.77524"></scales>
<clustering>
<clus scale="   42.775">  1  6  2 -1</clus>
<clus scale="   45.486">  2  4  1 -1</clus>
<clus scale="   85.025">  2  5  1 -1</clus>
<clus scale="   45.486">  2  3  1 -1</clus>
</clustering>
</event>
<event>
 6    0  0.1849053E+002  0.1142648E+03  0.7546771E-02  0.1252870E+00
          1   -1    0    0  504    0 -0.00000000000E+00  0.00000000000E+00  0.48091431232E+03  0.48091431232E+03  0.00000000000E+00 0. -1.
         21   -1    0    0  503  502  0.00000000000E+00 -0.00000000000E+00 -0.16791014735E+04  0.16791014735E+04  0.00000000000E+00 0. -1.
         21    1    1    2  503  501 -0.26490530843E+02  0.36592673693E+02 -0.50528618965E+02  0.67778413428E+02  0.00000000000E+00 0. -1.
         21    1    1    2  504  505  0.80825213510E+02 -0.54988957793E+02  0.88149070509E+02  0.13163114848E+03  0.00000000000E+00 0. -1.
         21    1    1    2  505  502  0.30514016046E+02 -0.70608210973E+02 -0.15868171844E+04  0.15886803963E+04  0.00000000000E+00 0. -1.
          1    1    1    2  501    0 -0.84848698712E+02  0.89004495073E+02  0.35100957173E+03  0.37192582764E+03  0.00000000000E+00 0. -1.
<scales pt_clust_3="45.17490" pt_clust_4="114.26483" pt_clust_5="35.03955" pt_clust_6="14000.00000"></scales>
<clustering>
<clus scale="   45.175">  2  3  1 -1</clus>
<clus scale="   35.040">  2  5  1 -1</clus>
<clus scale="  114.265">  2  4  1 -1</clus>
<clus scale="   45.175">  2  3  1 -1</clus>
</clustering>
</event>
<event>
 6    0  0.1849053E+002  0.1674857E+03  0.7546771E-02  0.1180496E+00
         21   -1    0    0  505  502  0.00000000000E+00  0.00000000000E+00  0.78404932226E+03  0.78404932226E+03  0.00000000000E+00 0. -1.
          1   -1    0    0  503    0 -0.00000000000E+00 -0.00000000000E+00 -0.23926005805E+03  0.23926005805E+03  0.00000000000E+00 0. -1.
         21    1    1    2  503  504  0.11667165877E+03  0.16747807365E+02 -0.85781000736E+02  0.14577772497E+03  0.00000000000E+00 0. -1.
         21    1    1    2  504  502 -0.48066930646E+02 -0.60605103058E+01  0.48190490685E+02  0.68333615442E+02  0.00000000000E+00 0. -1.
         21    1    1    2  505  501  0.11640172105E+02 -0.16469167939E+03  0.61125258042E+03  0.63315761066E+03  0.00000000000E+00 0. -1.
          1    1    1    2  501    0 -0.80244900226E+02  0.15400438233E+03 -0.28872806157E+02  0.17604042923E+03  0.00000000000E+00 0. -1.
<scales pt_clust_3="115.86543" pt_clust_4="48.44749" pt_clust_5="14000.00000" pt_clust_6="167.48569"></scales>
<clustering>
<clus scale="   48.447">  1  4  2 -1</clus>
<clus scale="  115.865">  2  3  1 -1</clus>
<clus scale="  167.486">  2  6  1 -1</clus>
<clus scale="   48.447">  1  3  2 -1</clus>
</clustering>
</event>
<event>
 6    0  0.1849053E+002  0.2606519E+03  0.7546771E-02  0.1106752E+00
          1   -1    0    0  502    0 -0.00000000000E+00  0.00000000000E+00  0.51011229399E+03  0.51011229399E+03  0.00000000000E+00 0. -1.
         21   -1    0    0  503  502  0.00000000000E+00 -0.00000000000E+00 -0.21781427873E+03  0.21781427873E+03  0.00000000000E+00 0. -1.
         21    1    1    2  503  504  0.23905778566E+02  0.27986000225E+02 -0.22387486756E+02  0.43080181298E+02  0.00000000000E+00 0.  1.
         21    1    1    2  504  505  0.23285287164E+03 -0.22395858632E+02 -0.44154083252E+02  0.23805801264E+03  0.00000000000E+00 0. -1.
         21    1    1    2  505  501 -0.66302343610E+02 -0.63536433209E+01  0.15011648321E+03  0.16422949821E+03  0.00000000000E+00 0.  1.
          1    1    1    2  501    0 -0.19045630660E+03  0.76350172829E+00  0.20872310206E+03  0.28255888057E+03  0.00000000000E+00 0. -1.
<scales pt_clust_3="36.80628" pt_clust_4="251.08096" pt_clust_5="41.58589" pt_clust_6="41.58589"></scales>
<clustering>
<clus scale="   36.806">  2  3  1 -1</clus>
<clus scale="   41.586">  5  6 -1 -1</clus>
<clus scale="  251.081">  2  4  1 -1</clus>
<clus scale="   36.806">  2  3  1 -1</clus>
</clustering>
</event>
<event>
 6    0  0.1849053E+002  0.9975978E+02  0.7546771E-02  0.1280802E+00
          1   -1    0    0  504    0 -0.00000000000E+00  0.00000000000E+00  0.88758633587E+03  0.88758633587E+03  0.00000000000E+00 0. -1.
         21   -1    0    0  505  502  0.00000000000E+00 -0.00000000000E+00 -0.65227937796E+03  0.65227937796E+03  0.00000000000E+00 0.  1.
         21    1    1    2  503  501 -0.60396451359E+02  0.36940113247E+02  0.23607690641E+03  0.24646421453E+03  0.00000000000E+00 0. -1.
         21    1    1    2  504  502 -0.19217880745E+02 -0.46664627511E+02 -0.25145436060E+03  0.25646873077E+03  0.00000000000E+00 0.  1.
         21    1    1    2  505  503  0.81174431129E+02 -0.33863146474E+02 -0.38745088336E+03  0.39730868097E+03  0.00000000000E+00 0.  1.
          1    1    1    2  501    0 -0.15600990253E+01  0.43587660737E+02  0.63813529546E+03  0.63962408756E+03  0.00000000000E+00 0. -1.
<scales pt_clust_3="14000.00000" pt_clust_4="50.06699" pt_clust_5="99.75978" pt_clust_6="43.61557"></scales>
<clustering>
<clus scale="   43.616">  1  6  2 -1</clus>
<clus scale="   50.067">  2  4  1 -1</clus>
<clus scale="   99.760">  2  5  1 -1</clus>
<clus scale="   50.067">  2  3  1 -1</clus>
</clustering>
</event>
<event>
 6    0  0.1849053E+002  0.1582998E+03  0.7546771E-02  0.1190630E+00
          2   -1    0    0  504    0 -0.00000000000E+00  0.00000000000E+00  0.20753307554E+04  0.20753307554E+04  0.00000000000E+00 0. -1.
         21   -1    0    0  503  502  0.00000000000E+00 -0.00000000000E+00 -0.41838074906E+03  0.41838074906E+03  0.00000000000E+00 0.  1.
         21    1    1    2  503  505  0.10270568088E+02  0.61809081228E+02  0.32077935228E+02  0.70390631618E+02  0.00000000000E+00 0. -1.
         21    1    1    2  504  502 -0.58192871447E+02 -0.77182483890E+02 -0.37673374253E+03  0.38893683146E+03  0.00000000000E+00 0.  1.
         21    1    1    2  505  501 -0.44606933409E+02 -0.12524548450E+03  0.35300564853E+03  0.37721240408E+03  0.00000000000E+00 0.  1.
          2    1    1    2  501    0  0.92529236767E+02  0.14061888716E+03  0.16486001652E+04  0.16571716373E+04  0.00000000000E+00 0. -1.
<scales pt_clust_3="62.65658" pt_clust_4="51.55515" pt_clust_5="14000.00000" pt_clust_6="158.29983"></scales>
<clustering>
<clus scale="   62.657">  2  3  1 -1</clus>
<clus scale="   51.555">  2  4  1 -1</clus>
<clus scale="  158.300">  1  6  2 -1</clus>
<clus scale="   62.657">  2  3  1 -1</clus>
</clustering>
</event>
<event>
 6    0  0.1849053E+002  0.1638573E+03  0.7546771E-02  0.1184409E+00
          1   -1    0    0  504    0 -0.00000000000E+00  0.00000000000E+00  0.18427582459E+04  0.18427582459E+04  0.00000000000E+00 0. -1.
         21   -1    0    0  503  502  0.00000000000E+00 -0.00000000000E+00 -0.45998783270E+03  0.45998783270E+03  0.00000000000E+00 0.  1.
         21    1    1    2  503  501  0.30081894668E+02  0.21395480155E+01  0.31026440176E+01  0.30317065366E+02  0.00000000000E+00 0. -1.
         21    1    1    2  504  505  0.11055529598E+02  0.71404463423E+02 -0.17895036127E+03  0.19298718592E+03  0.00000000000E+00 0.  1.
         21    1    1    2  505  502  0.63181428101E+02  0.31912460022E+02 -0.25251302569E+03  0.26224630809E+03  0.00000000000E+00 0.  1.
          1    1    1    2  501    0 -0.10431885237E+03 -0.10545647146E+03  0.18111311561E+04  0.18171955192E+04  0.00000000000E+00 0. -1.
<scales pt_clust_3="30.15789" pt_clust_4="65.35704" pt_clust_5="65.35704" pt_clust_6="148.18176"></scales>
<clustering>
<clus scale="   30.158">  2  3  1 -1</clus>
<clus scale="   65.357">  4  5 -1 -1</clus>
<clus scale="  148.182">  1  6  2 -1</clus>
<clus scale="   30.158">  2  3  1 -1</clus>
</clustering>
</event>
<event>
 6    0  0.1849053E+002  0.1601924E+03  0.7546771E-02  0.1188480E+00
         21   -1    0    0  504  502  0.00000000000E+00  0.00000000000E+00  0.42471036870E+02  0.42471036870E+02  0.00000000000E+00 0.  1.
         -4   -1    0    0    0  501 -0.00000000000E+00 -0.00000000000E+00 -0.62203815635E+03  0.62203815635E+03  0.00000000000E+00 0.  1.
         21    1    1    2  503  501  0.41291865776E+02 -0.68784409050E+02 -0.74756538547E+02  0.10965789148E+03  0.00000000000E+00 0.  1.
         21    1    1    2  504  503  0.10312948399E+01 -0.68869878921E+02 -0.12682499765E+03  0.14432152930E+03  0.00000000000E+00 0.  1.
         21    1    1    2  505  502  0.24574579077E+01  0.51908702817E+02 -0.66666446186E+02  0.84527910033E+02  0.00000000000E+00 0.  1.
         -4    1    1    2    0  505 -0.44780618524E+02  0.85745585154E+02 -0.31131913710E+03  0.32600186240E+03  0.00000000000E+00 0.  1.
<scales pt_clust_3="154.50058" pt_clust_4="51.84239" pt_clust_5="51.41938" pt_clust_6="51.41938"></scales>
<clustering>
<clus scale="   51.419">  5  6 -1 -1</clus>
<clus scale="   51.842">  3  4 -1 -1</clus>
<clus scale="  154.501">  1  3  2 -1</clus>
<clus scale="  154.501">  1  3  2 -1</clus>
</clustering>
</event>
<event>
 6    0  0.1849053E+002  0.1083150E+03  0.7546771E-02  0.1263722E+00
         21   -1    0    0  505  502  0.00000000000E+00  0.00000000000E+00  0.38270087725E+03  0.38270087725E+03  0.00000000000E+00 0. -1.
          4   -1    0    0  504    0 -0.00000000000E+00 -0.00000000000E+00 -0.26479144310E+03  0.26479144310E+03  0.00000000000E+00 0. -1.
         21    1    1    2  503  502  0.47093891624E+02  0.60368441161E+01  0.30273923978E+03  0.30643975822E+03  0.00000000000E+00 0. -1.
         21    1    1    2  504  503 -0.28866633949E+02  0.17173342708E+02 -0.31923452087E+02  0.46339109276E+02  0.00000000000E+00 0. -1.
         21    1    1    2  505  501  0.76721076288E+02  0.19013192699E+02  0.29841825173E+02  0.84487629704E+02  0.00000000000E+00 0. -1.
          4    1    1    2  501    0 -0.94948333963E+02 -0.42223379523E+02 -0.18274817871E+03  0.21022582316E+03  0.00000000000E+00 0. -1.
<scales pt_clust_3="47.26268" pt_clust_4="33.58878" pt_clust_5="108.31503" pt_clust_6="14000.00000"></scales>
<clustering>
<clus scale="   33.589">  2  4  1 -1</clus>
<clus scale="   47.263">  1  3  2 -1</clus>
<clus scale="  108.315">  1  5  2 -1</clus>
<clus scale="   47.263">  1  3  2 -1</clus>
</clustering>
</event>
<event>
 6    0  0.1849053E+002  0.9702707E+02  0.7546771E-02  0.1286675E+00
         21   -1    0    0  503  502  0.00000000000E+00  0.00000000000E+00  0.20891719983E+03  0.20891719983E+03  0.00000000000E+00 0. -1.
          2   -1    0    0  505    0 -0.00000000000E+00 -0.00000000000E+00 -0.55384018523E+03  0.55384018523E+03  0.00000000000E+00 0.  1.
         21    1    1    2  503  501 -0.66480716283E+01  0.73021977205E+02  0.99391437946E+02  0.12351139198E+03  0.00000000000E+00 0. -1.
         21    1    1    2  504  502  0.74930946589E+02  0.38068168758E+01  0.61750286352E+02  0.97171171013E+02  0.00000000000E+00 0. -1.
         21    1    1    2  505  504  0.54713223946E+02 -0.31875117043E+02 -0.16368752600E+03  0.17550830786E+03  0.00000000000E+00 0.  1.
          2    1    1    2  501    0 -0.12299609891E+03 -0.44953677039E+02 -0.34237718369E+03  0.36656651421E+03  0.00000000000E+00 0.  1.
<scales pt_clust_3="72.19012" pt_clust_4="14000.00000" pt_clust_5="63.32109" pt_clust_6="97.02707"></scales>
<clustering>
<clus scale="   63.321">  2  5  1 -1</clus>
<clus scale="   72.190">  1  3  2 -1</clus>
<clus scale="   97.027">  2  6  1 -1</clus>
<clus scale="   72.190">  1  3  2 -1</clus>
</clustering>
</event>
<event>
 6    0  0.1849053E+002  0.8524955E+02  0.7546771E-02  0.1314781E+00
         -1   -1    0    0    0  501 -0.00000000000E+00  0.00000000000E+00  0.56527869293E+03  0.56527869293E+03  0.00000000000E+00 0. -1.
         21   -1    0    0  504  502  0.00000000000E+00 -0.00000000000E+00 -0.22465642549E+03  0.22465642549E+03  0.00000000000E+00 0.  1.
         21    1    1    2  503  502  0.37003510331E+02  0.82308029287E+01 -0.32215536109E+01  0.38044504219E+02  0.00000000000E+00 0. -1.
         21    1    1    2  504  505 -0.69565445435E+01  0.41574700787E+02 -0.18658660681E+03  0.19128881592E+03  0.00000000000E+00 0.  1.
         21    1    1    2  505  501  0.71553749323E+02 -0.12053971154E+02  0.19294025438E+03  0.20613388616E+03  0.00000000000E+00 0. -1.
         -1    1    1    2    0  503 -0.10160071511E+03 -0.37751532562E+02  0.33749017348E+03  0.35446791211E+03  0.00000000000E+00 0. -1.
<scales pt_clust_3="37.90786" pt_clust_4="56.26918" pt_clust_5="14000.00000" pt_clust_6="85.24955"></scales>
<clustering>
<clus scale="   37.908">  2  3  1 -1</clus>
<clus scale="   56.269">  2  4  1 -1</clus>
<clus scale="   85.250">  2  6  1 -1</clus>
<clus scale="   37.908">  2  3  1 -1</clus>
</clustering>
</event>
<event>
 6    0  0.1849053E+002  0.1288763E+03  0.7546771E-02  0.1229133E+00
         21   -1    0    0  503  502  0.00000000000E+00  0.00000000000E+00  0.59270867563E+02  0.59270867563E+02  0.00000000000E+00 0. -1.
         -4   -1    0    0    0  501 -0.00000000000E+00 -0.00000000000E+00 -0.52522084022E+03  0.52522084022E+03  0.00000000000E+00 0. -1.
         21    1    1    2  503  504  0.31258961317E+02  0.11573809805E+03 -0.18251234711E+03  0.21836480223E+03  0.00000000000E+00 0. -1.
         21    1    1    2  504  501 -0.26165795176E+02  0.20695208499E+02 -0.47171200712E+02  0.57775969646E+02  0.00000000000E+00 0. -1.
         21    1    1    2  505  502 -0.62867946737E+02 -0.12319171998E+03 -0.15451265283E+03  0.20737101650E+03  0.00000000000E+00 0. -1.
         -4    1    1    2    0  505  0.57774780596E+02 -0.13241586567E+02 -0.81753772001E+02  0.10097991941E+03  0.00000000000E+00 0. -1.
<scales pt_clust_3="128.87627" pt_clust_4="33.36076" pt_clust_5="14000.00000" pt_clust_6="53.52173"></scales>
<clustering>
<clus scale="   33.361">  2  4  1 -1</clus>
<clus scale="   53.522">  2  6  1 -1</clus>
<clus scale="  128.876">  2  3  1 -1</clus>
<clus scale="  128.876">  1  3  2 -1</clus>
</clustering>
</event>
<event>
 6    0  0.1849053E+002  0.1143409E+03  0.7546771E-02  0.1252736E+00
          2   -1    0    0  503    0 -0.00000000000E+00  0.00000000000E+00  0.10179157272E+03  0.10179157272E+03  0.00000000000E+00 0.  1.
         21   -1    0    0  505  502  0.00000000000E+00 -0.00000000000E+00 -0.26949605239E+04  0.26949605239E+04  0.00000000000E+00 0. -1.
         21    1    1    2  503  504 -0.32913822958E+02  0.28752644164E+02  0.14605894218E+02  0.46080000369E+02  0.00000000000E+00 0. -1.
         21    1    1    2  504  502 -0.45865667602E+02  0.65287238146E+02 -0.38344106216E+03  0.39165435154E+03  0.00000000000E+00 0. -1.
         21    1    1    2  505  501  0.11676584199E+03 -0.65309242377E+02 -0.22810419703E+04  0.22849621505E+04  0.00000000000E+00 0. -1.
          2    1    1    2  501    0 -0.37986351433E+02 -0.28730639933E+02  0.56708187013E+02  0.74055594255E+02  0.00000000000E+00 0.  1.
<scales pt_clust_3="43.70394" pt_clust_4="114.34094" pt_clust_5="14000.00000" pt_clust_6="68.14841"></scales>
<clustering>
<clus scale="   43.704">  1  3  2 -1</clus>
<clus scale="   68.148">  1  6  2 -1</clus>
<clus scale="  114.341">  1  4  2 -1</clus>
<clus scale="  114.341">  2  3  1 -1</clus>
</clustering>
</event>
<event>
 6    0  0.1849053E+002  0.1661843E+03  0.7546771E-02  0.1181886E+00
         21   -1    0    0  503  502  0.00000000000E+00  0.00000000000E+00  0.32578264747E+03  0.32578264747E+03  0.00000000000E+00 0. -1.
          1   -1    0    0  504    0 -0.00000000000E+00 -0.00000000000E+00 -0.50502421528E+03  0.50502421528E+03  0.00000000000E+00 0.  1.
         21    1    1    2  503  505 -0.54305991961E+02 -0.23299725065E+02  0.11582665959E+03  0.13003012352E+03  0.00000000000E+00 0. -1.
         21    1    1    2  504  502  0.87181223149E+02  0.29209625677E+02 -0.36551592957E+03  0.37690272308E+03  0.00000000000E+00 0.  1.
         21    1    1    2  505  501 -0.72383068835E+02 -0.83698020239E+02  0.16278785811E+03  0.19683636349E+03  0.00000000000E+00 0. -1.
          1    1    1    2  501    0  0.39507837646E+02  0.77788119626E+02 -0.92340155941E+02  0.12703765265E+03  0.00000000000E+00 0.  1.
<scales pt_clust_3="30.28095" pt_clust_4="160.93543" pt_clust_5="30.28095" pt_clust_6="87.24598"></scales>
<clustering>
<clus scale="   30.281">  3  5 -1 -1</clus>
<clus scale="   87.246">  2  6  1 -1</clus>
<clus scale="  160.935">  2  4  1 -1</clus>
<clus scale="  166.184">  1  3  2 -1</clus>
</clustering>
</event>
<event>
 6    0  0.1849053E+002  0.9694764E+02  0.7546771E-02  0.1286849E+00
         21   -1    0    0  505  502  0.00000000000E+00  0.00000000000E+00  0.39568130987E+02  0.39568130987E+02  0.00000000000E+00 0. -1.
          1   -1    0    0  503    0 -0.00000000000E+00 -0.00000000000E+00 -0.32216016502E+04  0.32216016502E+04  0.00000000000E+00 0. -1.
         21    1    1    2  503  504 -0.43631389697E+02 -0.53149880156E+02 -0.49701063979E+03  0.50174513848E+03  0.00000000000E+00 0. -1.
         21    1    1    2  504  502 -0.28881396999E+02  0.86340600500E+01 -0.35850327133E+02  0.46839385576E+02  0.00000000000E+00 0. -1.
         21    1    1    2  505  501  0.12120882975E+03 -0.32900567456E+02 -0.96786641031E+02  0.15856128667E+03  0.00000000000E+00 0. -1.
          1    1    1    2  501    0 -0.48696043057E+02  0.77416387562E+02 -0.25523859112E+04  0.25540239704E+04  0.00000000000E+00 0. -1.
<scales pt_clust_3="69.60119" pt_clust_4="30.14435" pt_clust_5="96.94764" pt_clust_6="14000.00000"></scales>
<clustering>
<clus scale="   30.144">  1  4  2 -1</clus>
<clus scale="   69.601">  2  3  1 -1</clus>
<clus scale="   96.948">  1  5  2 -1</clus>
<clus scale="   30.144">  1  3  2 -1</clus>
</clustering>
</event>
<event>
 6    0  0.1849053E+002  0.2701990E+03  0.7546771E-02  0.1101166E+00
         21   -1    0    0  503  502  0.00000000000E+00  0.00000000000E+00  0.41442109103E+03  0.41442109103E+03  0.00000000000E+00 0.  1.
          2   -1    0    0  502    0 -0.00000000000E+00 -0.00000000000E+00 -0.94879632456E+03  0.94879632456E+03  0.00000000000E+00 0. -1.
         21    1    1    2  503  505 -0.68599357211E+02 -0.62703562910E+02  0.13861021190E+03  0.16688438949E+03  0.00000000000E+00 0.  1.
         21    1    1    2  504  501  0.15431807796E+03  0.33354510878E+02 -0.73352727794E+03  0.75032583593E+03  0.00000000000E+00 0. -1.
         21    1    1    2  505  504 -0.17290842413E+03  0.30331302161E+02  0.20954791295E+03  0.27336356533E+03  0.00000000000E+00 0.  1.
          2    1    1    2  501    0  0.87189703386E+02 -0.98225012938E+00 -0.14900608044E+03  0.17264362484E+03  0.00000000000E+00 0. -1.
<scales pt_clust_3="83.69183" pt_clust_4="86.77302" pt_clust_5="269.45163" pt_clust_6="86.77302"></scales>
<clustering>
<clus scale="   83.692">  3  5 -1 -1</clus>
<clus scale="   86.773">  4  6 -1 -1</clus>
<clus scale="  269.452">  1  3  2 -1</clus>
<clus scale="  269.452">  1  3  2 -1</clus>
</clustering>
</event>
<event>
 6    0  0.1849053E+002  0.1747406E+03  0.7546771E-02  0.1172992E+00
         21   -1    0    0  503  502  0.00000000000E+00  0.00000000000E+00  0.30854479156E+03  0.30854479156E+03  0.00000000000E+00 0.  1.
          2   -1    0    0  505    0 -0.00000000000E+00 -0.00000000000E+00 -0.49299877982E+03  0.49299877982E+03  0.00000000000E+00 0.  1.
         21    1    1    2  503  501 -0.31198898123E+02  0.31018897828E+02 -0.16131499404E+03  0.16720667023E+03  0.00000000000E+00 0.  1.
         21    1    1    2  504  502 -0.53877259297E+01 -0.52185397083E+02  0.96543931059E+02  0.10987754040E+03  0.00000000000E+00 0.  1.
         21    1    1    2  505  504  0.66937913117E+02 -0.10115002616E+03  0.16983539766E+03  0.20870092071E+03  0.00000000000E+00 0.  1.
          2    1    1    2  501    0 -0.30351289064E+02  0.12231652541E+03 -0.28951832295E+03  0.31575844005E+03  0.00000000000E+00 0.  1.
<scales pt_clust_3="30.72625" pt_clust_4="37.40116" pt_clust_5="37.40116" pt_clust_6="173.21841"></scales>
<clustering>
<clus scale="   30.726">  3  6 -1 -1</clus>
<clus scale="   37.401">  4  5 -1 -1</clus>
<clus scale="  173.218">  2  3  1 -1</clus>
<clus scale="  174.741">  1  3  2 -1</clus>
</clustering>
</event>
<event>
 6    0  0.1849053E+002  0.2994564E+03  0.7546771E-02  0.1085513E+00
          2   -1    0    0  503    0 -0.00000000000E+00  0.00000000000E+00  0.27448566788E+04  0.27448566788E+04  0.00000000000E+00 0. -1.
         21   -1    0    0  505  502  0.00000000000E+00 -0.00000000000E+00 -0.13233148202E+03  0.13233148202E+03  0.00000000000E+00 0. -1.
         21    1    1    2  503  502 -0.30100650146E+03  0.98385270486E+02  0.15507621186E+03  0.35260914176E+03  0.00000000000E+00 0. -1.
         21    1    1    2  504  501  0.83853524987E+02 -0.76003083553E+02  0.57618012236E+03  0.58718942069E+03  0.00000000000E+00 0.  1.
         21    1    1    2  505  504  0.61695704481E+02  0.15133539331E+02  0.16307756848E+02  0.65584501961E+02  0.00000000000E+00 0.  1.
          2    1    1    2  501    0  0.15545727199E+03 -0.37515726264E+02  0.18649611057E+04  0.18718050964E+04  0.00000000000E+00 0. -1.
<scales pt_clust_3="268.97350" pt_clust_4="111.01406" pt_clust_5="63.52467" pt_clust_6="111.01406"></scales>
<clustering>
<clus scale="   63.525">  2  5  1 -1</clus>
<clus scale="  111.014">  4  6 -1 -1</clus>
<clus scale="  268.974">  2  3  1 -1</clus>
<clus scale="   63.525">  2  3  1 -1</clus>
</clustering>
</event>
<event>
 6    0  0.1849053E+002  0.8084277E+02  0.7546771E-02  0.1326677E+00
          2   -1    0    0  505    0 -0.00000000000E+00  0.00000000000E+00  0.11919039961E+04  0.11919039961E+04  0.00000000000E+00 0. -1.
         21   -1    0    0  504  502  0.00000000000E+00 -0.00000000000E+00 -0.92319662568E+02  0.92319662568E+02  0.00000000000E+00 0.  1.
         21    1    1    2  503  502  0.28927580066E+02 -0.46816687923E+02  0.56400956056E+03  0.56668809019E+03  0.00000000000E+00 0. -1.
         21    1    1    2  504  501  0.58264872137E+02  0.23711320809E+02 -0.65866241939E+02  0.91078998056E+02  0.00000000000E+00 0.  1.
         21    1    1    2  505  503  0.37630560819E+02  0.21768450440E+01  0.63655853773E+02  0.73978817789E+02  0.00000000000E+00 0. -1.
          2    1    1    2  501    0 -0.12482301302E+03  0.20928522070E+02  0.53778516111E+03  0.55247775261E+03  0.00000000000E+00 0. -1.
<scales pt_clust_3="14000.00000" pt_clust_4="63.30546" pt_clust_5="37.69347" pt_clust_6="80.84277"></scales>
<clustering>
<clus scale="   37.693">  1  5  2 -1</clus>
<clus scale="   63.305">  2  4  1 -1</clus>
<clus scale="   80.843">  2  6  1 -1</clus>
<clus scale="   63.305">  2  3  1 -1</clus>
</clustering>
</event>
<event>
 6    0  0.1849053E+002  0.1168772E+03  0.7546771E-02  0.1248339E+00
         21   -1    0    0  505  502  0.00000000000E+00  0.00000000000E+00  0.17498416535E+03  0.17498416535E+03  0.00000000000E+00 0. -1.
          2   -1    0    0  503    0 -0.00000000000E+00 -0.00000000000E+00 -0.20327312420E+04  0.20327312420E+04  0.00000000000E+00 0. -1.
         21    1    1    2  503  504 -0.30480684778E+02  0.56676337370E+02 -0.85156327110E+03  0.85399138406E+03  0.00000000000E+00 0.  1.
         21    1    1    2  504  502  0.78072201927E+02 -0.20507301596E+02  0.13834738833E+03  0.16017433624E+03  0.00000000000E+00 0. -1.
         21    1    1    2  505  501  0.37725674663E+02 -0.73758497201E+01  0.65138686716E+01  0.38987949074E+02  0.00000000000E+00 0. -1.
          2    1    1    2  501    0 -0.85317191812E+02 -0.28793186054E+02 -0.11510450626E+04  0.11545617380E+04  0.00000000000E+00 0. -1.
<scales pt_clust_3="64.15890" pt_clust_4="14000.00000" pt_clust_5="38.43995" pt_clust_6="116.87722"></scales>
<clustering>
<clus scale="   38.440">  1  5  2 -1</clus>
<clus scale="   64.159">  2  3  1 -1</clus>
<clus scale="  116.877">  2  6  1 -1</clus>
<clus scale="   38.440">  1  3  2 -1</clus>
</clustering>
</event>
<event>
 6    0  0.1849053E+002  0.1655306E+03  0.7546771E-02  0.1182591E+00
         21   -1    0    0  503  502  0.00000000000E+00  0.00000000000E+00  0.75855846262E+03  0.75855846262E+03  0.00000000000E+00 0. -1.
         -1   -1    0    0    0  501 -0.00000000000E+00 -0.00000000000E+00 -0.13381691822E+03  0.13381691822E+03  0.00000000000E+00 0. -1.
         21    1    1    2  503  501 -0.11924400959E+02 -0.12748418398E+03  0.40760548470E+03  0.42724306859E+03  0.00000000000E+00 0. -1.
         21    1    1    2  504  505  0.11795649881E+02  0.44361847993E+02  0.16609952833E+01  0.45933319267E+02  0.00000000000E+00 0.  1.
         21    1    1    2  505  502  0.55141997848E+02 -0.22103318126E+02  0.27850333984E+03  0.28476886576E+03  0.00000000000E+00 0. -1.
         -1    1    1    2    0  504 -0.55013246771E+02  0.10522565411E+03 -0.63028275420E+02  0.13443012723E+03  0.00000000000E+00 0. -1.
<scales pt_clust_3="151.25982" pt_clust_4="41.80570" pt_clust_5="59.40704" pt_clust_6="41.80570"></scales>
<clustering>
<clus scale="   41.806">  4  6 -1 -1</clus>
<clus scale="   59.407">  1  5  2 -1</clus>
<clus scale="  151.260">  1  3  2 -1</clus>
<clus scale="   59.407">  1  3  2 -1</clus>
</clustering>
</event>
<event>
 6    0  0.1849053E+002  0.1387817E+03  0.7546771E-02  0.1214978E+00
         -2   -1    0    0    0  501 -0.00000000000E+00  0.00000000000E+00  0.52797289937E+03  0.52797289937E+03  0.00000000000E+00 0.  1.
         21   -1    0    0  501  502  0.00000000000E+00 -0.00000000000E+00 -0.22572855664E+03  0.22572855664E+03  0.00000000000E+00 0.  1.
         21    1    1    2  503  502 -0.18476685411E+02 -0.50624171196E+02 -0.59213330093E+02  0.80065055260E+02  0.00000000000E+00 0.  1.
         21    1    1    2  504  503  0.74010133780E+02 -0.88194116118E+02 -0.86700975888E+02  0.14412758667E+03  0.00000000000E+00 0.  1.
         21    1    1    2  505  504 -0.10873213672E+03  0.10600294819E+03  0.11486031469E+03  0.19040009053E+03  0.00000000000E+00 0.  1.
         -2    1    1    2    0  505  0.53198688355E+02  0.32815339124E+02  0.33329833402E+03  0.33910872355E+03  0.00000000000E+00 0.  1.
<scales pt_clust_3="53.89058" pt_clust_4="138.78167" pt_clust_5="14000.00000" pt_clust_6="61.72134"></scales>
<clustering>
<clus scale="   53.891">  2  3  1 -1</clus>
<clus scale="   61.721">  1  6  2 -1</clus>
<clus scale="  138.782">  2  4  1 -1</clus>
<clus scale="   53.891">  2  3  1 -1</clus>
</clustering>
</event>
<event>
 6    0  0.1849053E+002  0.1554794E+03  0.7546771E-02  0.1193897E+00
          2   -1    0    0  505    0 -0.00000000000E+00  0.00000000000E+00  0.17572992486E+04  0.17572992486E+04  0.00000000000E+00 0.  1.
         21   -1    0    0  504  502  0.00000000000E+00 -0.00000000000E+00 -0.18285674075E+03  0.18285674075E+03  0.00000000000E+00 0. -1.
         21    1    1    2  503  502  0.46053126642E+02 -0.24497458568E+02  0.12140533848E+02  0.53557525259E+02  0.00000000000E+00 0. -1.
         21    1    1    2  504  501  0.35788910037E+01  0.17303951697E+03 -0.10773471511E+03  0.20386822149E+03  0.00000000000E+00 0. -1.
         21    1    1    2  505  503  0.35548591616E+01 -0.35792906980E+02  0.78839212113E+02  0.86656739959E+02  0.00000000000E+00 0. -1.
          2    1    1    2  501    0 -0.53186876807E+02 -0.11274915142E+03  0.15911974770E+04  0.15960735026E+04  0.00000000000E+00 0.  1.
<scales pt_clust_3="52.55795" pt_clust_4="14000.00000" pt_clust_5="35.96900" pt_clust_6="155.47942"></scales>
<clustering>
<clus scale="   35.969">  1  5  2 -1</clus>
<clus scale="   52.558">  2  3  1 -1</clus>
<clus scale="  155.479">  1  6  2 -1</clus>
<clus scale="   52.558">  2  3  1 -1</clus>
</clustering>
</event>
<event>
 6    0  0.1849053E+002  0.1353919E+03  0.7546771E-02  0.1219668E+00
         21   -1    0    0  504  502  0.00000000000E+00  0.00000000000E+00  0.85852131407E+02  0.85852131407E+02  0.00000000000E+00 0.  1.
          1   -1    0    0  505    0 -0.00000000000E+00 -0.00000000000E+00 -0.48464895573E+03  0.48464895573E+03  0.00000000000E+00 0.  1.
         21    1    1    2  503  502  0.88109213469E+01  0.78726054203E+02 -0.29763124706E+02  0.84624272745E+02  0.00000000000E+00 0.  1.
         21    1    1    2  504  501  0.34990736931E+02 -0.94807105481E+02 -0.17479703732E+03  0.20190775908E+03  0.00000000000E+00 0.  1.
         21    1    1    2  505  503  0.38583365541E+01  0.67031769810E+02  0.10238802125E+02  0.67918907484E+02  0.00000000000E+00 0.  1.
          1    1    1    2  501    0 -0.47659994832E+02 -0.50950718533E+02 -0.20447546443E+03  0.21605014783E+03  0.00000000000E+00 0.  1.
<scales pt_clust_3="35.44597" pt_clust_4="129.80216" pt_clust_5="35.44597" pt_clust_6="69.76712"></scales>
<clustering>
<clus scale="   35.446">  3  5 -1 -1</clus>
<clus scale="   69.767">  2  6  1 -1</clus>
<clus scale="  129.802">  2  4  1 -1</clus>
<clus scale="  135.392">  1  3  2 -1</clus>
</clustering>
</event>
<event>
 6    0  0.1849053E+002  0.1348554E+03  0.7546771E-02  0.1220424E+00
         21   -1    0    0  504  502  0.00000000000E+00  0.00000000000E+00  0.61059119344E+03  0.61059119344E+03  0.00000000000E+00 0.  1.
          1   -1    0    0  503    0 -0.00000000000E+00 -0.00000000000E+00 -0.14808421640E+04  0.14808421640E+04  0.00000000000E+00 0.  1.
         21    1    1    2  503  502 -0.83693533988E+02 -0.66157841350E+02 -0.15331003565E+03  0.18677642954E+03  0.00000000000E+00 0. -1.
         21    1    1    2  504  505  0.37269817645E+02 -0.25520011506E+02  0.48290100813E+02  0.66122947085E+02  0.00000000000E+00 0.  1.
         21    1    1    2  505  501 -0.16563965583E+03  0.56305671089E+02  0.51317471000E+03  0.54217626946E+03  0.00000000000E+00 0.  1.
          1    1    1    2  501    0  0.21206337217E+03  0.35372181768E+02 -0.12784057457E+04  0.12963577113E+04  0.00000000000E+00 0.  1.
<scales pt_clust_3="106.28640" pt_clust_4="45.16979" pt_clust_5="134.85538" pt_clust_6="14000.00000"></scales>
<clustering>
<clus scale="   45.170">  1  4  2 -1</clus>
<clus scale="  106.286">  2  3  1 -1</clus>
<clus scale="  134.855">  1  5  2 -1</clus>
<clus scale="   45.170">  1  3  2 -1</clus>
</clustering>
</event>
<event>
 6    0  0.1849053E+002  0.8663326E+02  0.7546771E-02  0.1311216E+00
          2   -1    0    0  504    0 -0.00000000000E+00  0.00000000000E+00  0.33309207745E+03  0.33309207745E+03  0.00000000000E+00 0. -1.
         21   -1    0    0  503  502  0.00000000000E+00 -0.00000000000E+00 -0.17535268604E+03  0.17535268604E+03  0.00000000000E+00 0. -1.
         21    1    1    2  503  501  0.53678239263E+02 -0.17292972940E+02 -0.12408140492E+03  0.13629598428E+03  0.00000000000E+00 0. -1.
         21    1    1    2  504  505  0.28171181122E+02  0.55848640112E+02  0.77382660691E+02  0.99502573955E+02  0.00000000000E+00 0. -1.
         21    1    1    2  505  502  0.29385277280E+02 -0.20781371616E+02 -0.34955651662E+01  0.36160460491E+02  0.00000000000E+00 0. -1.
          2    1    1    2  501    0 -0.11123469767E+03 -0.17774295557E+02  0.20793370080E+03  0.23648574476E+03  0.00000000000E+00 0. -1.
<scales pt_clust_3="14000.00000" pt_clust_4="62.22463" pt_clust_5="35.99111" pt_clust_6="86.63326"></scales>
<clustering>
<clus scale="   35.991">  2  5  1 -1</clus>
<clus scale="   62.225">  1  4  2 -1</clus>
<clus scale="   86.633">  1  6  2 -1</clus>
<clus scale="   35.991">  2  3  1 -1</clus>
</clustering>
</event>
<event>
 6    0  0.1849053E+002  0.1921944E+03  0.7546771E-02  0.1156497E+00
         -1   -1    0    0    0  501 -0.00000000000E+00  0.00000000000E+00  0.23836311985E+03  0.23836311985E+03  0.00000000000E+00 0.  1.
         21   -1    0    0  505  502  0.00000000000E+00 -0.00000000000E+00 -0.28706667521E+03  0.28706667521E+03  0.00000000000E+00 0.  1.
         21    1    1    2  503  504 -0.34771786702E+02 -0.41970664050E+02 -0.45192216064E+02  0.70802190532E+02  0.00000000000E+00 0.  1.
         21    1    1    2  504  502 -0.52803785616E+02 -0.14517985412E+03 -0.33978107675E+02  0.15817693137E+03  0.00000000000E+00 0.  1.
         21    1    1    2  505  501  0.14746221032E+02  0.16848022366E+03 -0.59426110123E+02  0.17926098115E+03  0.00000000000E+00 0.  1.
         -1    1    1    2    0  503  0.72829351286E+02  0.18670294515E+02  0.89892878499E+02  0.11718969200E+03  0.00000000000E+00 0.  1.
<scales pt_clust_3="34.98265" pt_clust_4="34.98265" pt_clust_5="182.94802" pt_clust_6="75.18440"></scales>
<clustering>
<clus scale="   34.983">  3  4 -1 -1</clus>
<clus scale="   75.184">  1  6  2 -1</clus>
<clus scale="  182.948">  2  5  1 -1</clus>
<clus scale="  182.948">  2  3  1 -1</clus>
</clustering>
</event>
<event>
 6    0  0.1849053E+002  0.8272664E+02  0.7546771E-02  0.1321487E+00
         21   -1    0    0  504  502  0.00000000000E+00  0.00000000000E+00  0.18598094076E+03  0.18598094076E+03  0.00000000000E+00 0.  1.
          2   -1    0    0  503    0 -0.00000000000E+00 -0.00000000000E+00 -0.54150318255E+03  0.54150318255E+03  0.00000000000E+00 0.  1.
         21    1    1    2  503  502 -0.37819343277E+02  0.14098963191E+02 -0.15331922491E+02  0.43175818883E+02  0.00000000000E+00 0.  1.
         21    1    1    2  504  505  0.31867619332E+02 -0.55448106406E+02  0.45209590876E+02  0.78319504423E+02  0.00000000000E+00 0.  1.
         21    1    1    2  505  501 -0.34141028445E+02  0.11247003512E+03  0.74328096402E+02  0.13906755387E+03  0.00000000000E+00 0.  1.
          2    1    1    2  501    0  0.40092752390E+02 -0.71120891906E+02 -0.45972800658E+03  0.46692124614E+03  0.00000000000E+00 0.  1.
<scales pt_clust_3="40.36191" pt_clust_4="53.60433" pt_clust_5="82.72664" pt_clust_6="14000.00000"></scales>
<clustering>
<clus scale="   40.362">  1  3  2 -1</clus>
<clus scale="   53.604">  1  4  2 -1</clus>
<clus scale="   82.727">  1  5  2 -1</clus>
<clus scale="   40.362">  1  3  2 -1</clus>
</clustering>
</event>
<event>
 6    0  0.1849053E+002  0.1030379E+03  0.7546771E-02  0.1274034E+00
          2   -1    0    0  503    0 -0.00000000000E+00  0.00000000000E+00  0.50630690984E+03  0.50630690984E+03  0.00000000000E+00 0. -1.
         21   -1    0    0  501  502  0.00000000000E+00 -0.00000000000E+00 -0.30951735168E+03  0.30951735168E+03  0.00000000000E+00 0. -1.
         21    1    1    2  503  505 -0.19134086737E+02  0.35541687016E+02  0.12023483949E+03  0.12682957628E+03  0.00000000000E+00 0.  1.
         21    1    1    2  504  502  0.16201806393E+02 -0.61411582460E+02 -0.16266009104E+03  0.17462011971E+03  0.00000000000E+00 0. -1.
         21    1    1    2  505  504  0.85841087144E+02  0.81605009234E+02 -0.10356514505E+03  0.15733343270E+03  0.00000000000E+00 0. -1.
          2    1    1    2  501    0 -0.82908806801E+02 -0.55735113790E+02  0.34277995475E+03  0.35704113283E+03  0.00000000000E+00 0. -1.
<scales pt_clust_3="40.36490" pt_clust_4="62.89987" pt_clust_5="14000.00000" pt_clust_6="103.03788"></scales>
<clustering>
<clus scale="   40.365">  1  3  2 -1</clus>
<clus scale="   62.900">  2  4  1 -1</clus>
<clus scale="  103.038">  1  6  2 -1</clus>
<clus scale="   62.900">  2  3  1 -1</clus>
</clustering>
</event>
<event>
 6    0  0.1849053E+002  0.6208599E+02  0.7546771E-02  0.1389281E+00
          2   -1    0    0  503    0 -0.00000000000E+00  0.00000000000E+00  0.31282765271E+03  0.31282765271E+03  0.00000000000E+00 0. -1.
         21   -1    0    0  504  502  0.00000000000E+00 -0.00000000000E+00 -0.35251319146E+03  0.35251319146E+03  0.00000000000E+00 0. -1.
         21    1    1    2  503  505 -0.65474712135E+02 -0.74780737319E+02  0.11357042425E+03  0.15092162823E+03  0.00000000000E+00 0. -1.
         21    1    1    2  504  501  0.41317787010E+02  0.72412580813E+02 -0.30608759966E+03  0.31723864841E+03  0.00000000000E+00 0. -1.
         21    1    1    2  505  502 -0.68037027418E+00 -0.35250177358E+02 -0.25919480914E+01  0.35351889658E+02  0.00000000000E+00 0. -1.
          2    1    1    2  501    0  0.24837295399E+02  0.37618333864E+02  0.15542358475E+03  0.16182867788E+03  0.00000000000E+00 0. -1.
<scales pt_clust_3="62.08599" pt_clust_4="14000.00000" pt_clust_5="35.25674" pt_clust_6="44.79236"></scales>
<clustering>
<clus scale="   35.257">  2  5  1 -1</clus>
<clus scale="   44.792">  1  6  2 -1</clus>
<clus scale="   62.086">  1  3  2 -1</clus>
<clus scale="   35.257">  2  3  1 -1</clus>
</clustering>
</event>
<event>
 6    0  0.1849053E+002  0.1123136E+03  0.7546771E-02  0.1256344E+00
          2   -1    0    0  503    0 -0.00000000000E+00  0.00000000000E+00  0.11311188741E+04  0.11311188741E+04  0.00000000000E+00 0.  1.
         21   -1    0    0  505  502  0.00000000000E+00 -0.00000000000E+00 -0.43679865421E+03  0.43679865421E+03  0.00000000000E+00 0.  1.
         21    1    1    2  503  504  0.19503124902E+02  0.27512974135E+02  0.77072407844E+02  0.84127829388E+02  0.00000000000E+00 0.  1.
         21    1    1    2  504  502  0.30270136895E+02  0.61976412524E+02 -0.43796294013E+02  0.81703563363E+02  0.00000000000E+00 0.  1.
         21    1    1    2  505  501 -0.13764966992E+03 -0.28619335576E+02 -0.35427628632E+03  0.38115375513E+03  0.00000000000E+00 0.  1.
          2    1    1    2  501    0  0.87876408121E+02 -0.60870051084E+02  0.10153203924E+04  0.10209323804E+04  0.00000000000E+00 0.  1.
<scales pt_clust_3="33.72441" pt_clust_4="69.57413" pt_clust_5="112.31360" pt_clust_6="14000.00000"></scales>
<clustering>
<clus scale="   33.724">  1  3  2 -1</clus>
<clus scale="   69.574">  2  4  1 -1</clus>
<clus scale="  112.314">  2  5  1 -1</clus>
<clus scale="   69.574">  2  3  1 -1</clus>
</clustering>
</event>
<event>
 6    0  0.1849053E+002  0.1616295E+03  0.7546771E-02  0.1186869E+00
          2   -1    0    0  503    0 -0.00000000000E+00  0.00000000000E+00  0.16310637010E+04  0.16310637010E+04  0.00000000000E+00 0. -1.
         21   -1    0    0  504  502  0.00000000000E+00 -0.00000000000E+00 -0.41433248209E+02  0.41433248209E+02  0.00000000000E+00 0.  1.
         21    1    1    2  503  502 -0.10638335952E+03  0.10240758009E+03  0.67983589095E+03  0.69568783967E+03  0.00000000000E+00 0. -1.
         21    1    1    2  504  505 -0.43804440014E+01 -0.91020013354E+02  0.11151882520E+03  0.14401485859E+03  0.00000000000E+00 0.  1.
         21    1    1    2  505  501  0.26781216022E+02 -0.78697164762E+02  0.11968990667E+03  0.14572628806E+03  0.00000000000E+00 0.  1.
          2    1    1    2  501    0  0.83982587501E+02  0.67309598029E+02  0.67858582992E+03  0.68706796284E+03  0.00000000000E+00 0. -1.
<scales pt_clust_3="157.91563" pt_clust_4="32.90296" pt_clust_5="32.90296" pt_clust_6="107.62740"></scales>
<clustering>
<clus scale="   32.903">  4  5 -1 -1</clus>
<clus scale="  107.627">  1  6  2 -1</clus>
<clus scale="  157.916">  1  3  2 -1</clus>
<clus scale="  161.629">  2  3  1 -1</clus>
</clustering>
</event>
<event>
 6    0  0.1849053E+002  0.8563597E+02  0.7546771E-02  0.1313778E+00
          3   -1    0    0  505    0 -0.00000000000E+00  0.00000000000E+00  0.13497935452E+03  0.13497935452E+03  0.00000000000E+00 0.  1.
         21   -1    0    0  504  502  0.00000000000E+00 -0.00000000000E+00 -0.94221909985E+03  0.94221909985E+03  0.00000000000E+00 0. -1.
         21    1    1    2  503  502 -0.82510815497E+02  0.50583889356E+02 -0.61098050435E+03  0.61859836827E+03  0.00000000000E+00 0. -1.
         21    1    1    2  504  501  0.50459313351E+02  0.30729702719E+02 -0.29782868878E+03  0.30363198908E+03  0.00000000000E+00 0. -1.
         21    1    1    2  505  503 -0.25127805037E+02 -0.29380143201E+02  0.44383034736E+02  0.58859605613E+02  0.00000000000E+00 0. -1.
          3    1    1    2  501    0  0.57179307184E+02 -0.51933448873E+02  0.57186413063E+02  0.96108491409E+02  0.00000000000E+00 0.  1.
<scales pt_clust_3="14000.00000" pt_clust_4="57.80260" pt_clust_5="38.66005" pt_clust_6="85.63597"></scales>
<clustering>
<clus scale="   38.660">  1  5  2 -1</clus>
<clus scale="   57.803">  2  4  1 -1</clus>
<clus scale="   85.636">  1  6  2 -1</clus>
<clus scale="   57.803">  2  3  1 -1</clus>
</clustering>
</event>
<event>
 6    0  0.1849053E+002  0.1301645E+03  0.7546771E-02  0.1227212E+00
         -3   -1    0    0    0  501 -0.00000000000E+00  0.00000000000E+00  0.35918465927E+03  0.35918465927E+03  0.00000000000E+00 0.  1.
         21   -1    0    0  504  502  0.00000000000E+00 -0.00000000000E+00 -0.11803101215E+03  0.11803101215E+03  0.00000000000E+00 0. -1.
         21    1    1    2  503  501  0.99389165611E+02  0.40092380785E+02  0.16353687058E+03  0.19552471270E+03  0.00000000000E+00 0.  1.
         21    1    1    2  504  503 -0.11112950373E+02 -0.13195992902E+03  0.37309082717E+02  0.13758229605E+03  0.00000000000E+00 0. -1.
         21    1    1    2  505  502 -0.71162963980E+02  0.54888421323E+02  0.46981112158E+01  0.89994324748E+02  0.00000000000E+00 0.  1.
         -3    1    1    2    0  505 -0.17113251259E+02  0.36979126911E+02  0.35609582604E+02  0.54114337925E+02  0.00000000000E+00 0.  1.
<scales pt_clust_3="107.17092" pt_clust_4="118.45901" pt_clust_5="36.32474" pt_clust_6="36.32474"></scales>
<clustering>
<clus scale="   36.325">  5  6 -1 -1</clus>
<clus scale="  107.171">  1  3  2 -1</clus>
<clus scale="  118.459">  1  4  2 -1</clus>
<clus scale="  130.164">  2  3  1 -1</clus>
</clustering>
</event>
<event>
 6    0  0.1849053E+002  0.1370960E+03  0.7546771E-02  0.1217291E+00
         -4   -1    0    0    0  501 -0.00000000000E+00  0.00000000000E+00  0.22744158026E+03  0.22744158026E+03  0.00000000000E+00 0. -1.
         21   -1    0    0  504  502  0.00000000000E+00 -0.00000000000E+00 -0.39896431098E+03  0.39896431098E+03  0.00000000000E+00 0. -1.
         21    1    1    2  503  505 -0.49762981982E+02 -0.10914641197E+02 -0.94296118202E+02  0.10717855045E+03  0.00000000000E+00 0. -1.
         21    1    1    2  504  501 -0.37854973046E+02 -0.28248184881E+02  0.49513790399E+02  0.68429338540E+02  0.00000000000E+00 0. -1.
         21    1    1    2  505  502 -0.53896421368E+02 -0.59036093949E+02 -0.23441129997E+03  0.24766659480E+03  0.00000000000E+00 0. -1.
         -4    1    1    2    0  503  0.14151437640E+03  0.98198920026E+02  0.10767089705E+03  0.20313140745E+03  0.00000000000E+00 0. -1.
<scales pt_clust_3="37.68326" pt_clust_4="47.23303" pt_clust_5="37.68326" pt_clust_6="128.71354"></scales>
<clustering>
<clus scale="   37.683">  3  5 -1 -1</clus>
<clus scale="   47.233">  1  4  2 -1</clus>
<clus scale="  128.714">  1  6  2 -1</clus>
<clus scale="  137.096">  2  3  1 -1</clus>
</clustering>
</event>
<event>
 6    0  0.1849053E+002  0.9187241E+02  0.7546771E-02  0.1298380E+00
         -4   -1    0    0    0  501 -0.00000000000E+00  0.00000000000E+00  0.53826264055E+02  0.53826264055E+02  0.00000000000E+00 0.  1.
         21   -1    0    0  505  502  0.00000000000E+00 -0.00000000000E+00 -0.10563590222E+04  0.10563590222E+04  0.00000000000E+00 0.  1.
         21    1    1    2  503  502 -0.33898685643E+02 -0.50798410169E+01 -0.63858252395E+03  0.63950181044E+03  0.00000000000E+00 0.  1.
         21    1    1    2  504  503 -0.25950199687E+02 -0.41132014280E+02 -0.11102055344E+03  0.12120568777E+03  0.00000000000E+00 0. -1.
         21    1    1    2  505  501  0.88544841523E+02 -0.45439017853E+02 -0.23019105026E+03  0.25078439529E+03  0.00000000000E+00 0. -1.
         -4    1    1    2    0  504 -0.28695956193E+02  0.91650873151E+02 -0.22738630482E+02  0.98693392724E+02  0.00000000000E+00 0.  1.
<scales pt_clust_3="34.27719" pt_clust_4="55.33538" pt_clust_5="91.87241" pt_clust_6="14000.00000"></scales>
<clustering>
<clus scale="   34.277">  2  3  1 -1</clus>
<clus scale="   55.335">  2  4  1 -1</clus>
<clus scale="   91.872">  2  5  1 -1</clus>
<clus scale="   34.277">  2  3  1 -1</clus>
</clustering>
</event>
<event>
 6    0  0.1849053E+002  0.1036995E+03  0.7546771E-02  0.1272703E+00
         -1   -1    0    0    0  501 -0.00000000000E+00  0.00000000000E+00  0.18054071844E+03  0.18054071844E+03  0.00000000000E+00 0.  1.
         21   -1    0    0  503  502  0.00000000000E+00 -0.00000000000E+00 -0.51067486151E+03  0.51067486151E+03  0.00000000000E+00 0. -1.
         21    1    1    2  503  504  0.58886589537E+01  0.45281166895E+02 -0.28394252639E+03  0.28759071381E+03  0.00000000000E+00 0. -1.
         21    1    1    2  504  505 -0.18754772454E+02  0.50005961222E+02 -0.17185935578E+03  0.17996659639E+03  0.00000000000E+00 0. -1.
         21    1    1    2  505  501 -0.60988492312E+02 -0.22187919702E+02  0.60081296860E+01  0.65176664516E+02  0.00000000000E+00 0. -1.
         -1    1    1    2    0  502  0.73854605812E+02 -0.73099208416E+02  0.11965960942E+03  0.15848160523E+03  0.00000000000E+00 0.  1.
<scales pt_clust_3="37.09361" pt_clust_4="37.09361" pt_clust_5="64.89915" pt_clust_6="95.62569"></scales>
<clustering>
<clus scale="   37.094">  3  4 -1 -1</clus>
<clus scale="   64.899">  1  5  2 -1</clus>
<clus scale="   95.626">  1  6  2 -1</clus>
<clus scale="  103.699">  2  3  1 -1</clus>
</clustering>
</event>
<event>
 6    0  0.1849053E+002  0.1121108E+03  0.7546771E-02  0.1256710E+00
          1   -1    0    0  505    0 -0.00000000000E+00  0.00000000000E+00  0.10476758350E+04  0.10476758350E+04  0.00000000000E+00 0. -1.
         21   -1    0    0  504  502  0.00000000000E+00 -0.00000000000E+00 -0.14321326790E+03  0.14321326790E+03  0.00000000000E+00 0. -1.
         21    1    1    2  503  502  0.34681878127E+02  0.47568859918E+02  0.19189460338E+02  0.61918208085E+02  0.00000000000E+00 0. -1.
         21    1    1    2  504  501  0.78315617159E+02 -0.30026937167E+02 -0.88817764772E+02  0.12216197520E+03  0.00000000000E+00 0. -1.
         21    1    1    2  505  503  0.21797560630E+02  0.81058879365E+02  0.25028208826E+03  0.26398257381E+03  0.00000000000E+00 0. -1.
          1    1    1    2  501    0 -0.13479505592E+03 -0.98600802116E+02  0.72380878329E+03  0.74282634582E+03  0.00000000000E+00 0. -1.
<scales pt_clust_3="58.86959" pt_clust_4="14000.00000" pt_clust_5="87.03550" pt_clust_6="112.11081"></scales>
<clustering>
<clus scale="   58.870">  2  3  1 -1</clus>
<clus scale="   87.036">  1  5  2 -1</clus>
<clus scale="  112.111">  1  6  2 -1</clus>
<clus scale="   58.870">  2  3  1 -1</clus>
</clustering>
</event>
<event>
 6    0  0.1849053E+002  0.1203085E+03  0.7546771E-02  0.1242589E+00
          1   -1    0    0  504    0 -0.00000000000E+00  0.00000000000E+00  0.22023817806E+03  0.22023817806E+03  0.00000000000E+00 0.  1.
         21   -1    0    0  501  502  0.00000000000E+00 -0.00000000000E+00 -0.13313803870E+03  0.13313803870E+03  0.00000000000E+00 0. -1.
         21    1    1    2  503  505  0.18954514736E+02  0.64933066255E+02 -0.52329373256E+01  0.67845120350E+02  0.00000000000E+00 0. -1.
         21    1    1    2  504  503 -0.29223959377E+02 -0.23492566069E+02  0.10222665207E+03  0.10888631161E+03  0.00000000000E+00 0.  1.
         21    1    1    2  505  502  0.10573806675E+02  0.53327738919E+02 -0.49884054975E+02  0.73783955346E+02  0.00000000000E+00 0. -1.
          1    1    1    2  501    0 -0.30436203444E+00 -0.94768239105E+02  0.39990479585E+02  0.10286082946E+03  0.00000000000E+00 0.  1.
<scales pt_clust_3="43.22980" pt_clust_4="37.49587" pt_clust_5="43.22980" pt_clust_6="110.95391"></scales>
<clustering>
<clus scale="   37.496">  1  4  2 -1</clus>
<clus scale="   43.230">  3  5 -1 -1</clus>
<clus scale="  110.954">  1  6  2 -1</clus>
<clus scale="  120.309">  2  3  1 -1</clus>
</clustering>
</event>
<event>
 6    0  0.1849053E+002  0.1357685E+03  0.7546771E-02  0.1219139E+00
         -1   -1    0    0    0  501 -0.00000000000E+00  0.00000000000E+00  0.37145813028E+03  0.37145813028E+03  0.00000000000E+00 0. -1.
         21   -1    0    0  505  502  0.00000000000E+00 -0.00000000000E+00 -0.44375679854E+03  0.44375679854E+03  0.00000000000E+00 0. -1.
         21    1    1    2  503  501  0.39682061665E+02  0.71427808662E+02  0.13780891507E+03  0.16021203120E+03  0.00000000000E+00 0. -1.
         21    1    1    2  504  503 -0.37896526471E+02 -0.43424681078E+02 -0.18916261056E+03  0.19774818047E+03  0.00000000000E+00 0. -1.
         21    1    1    2  505  504 -0.81228477288E+02 -0.10857416563E+02 -0.22401007466E+03  0.23852979387E+03  0.00000000000E+00 0. -1.
         -1    1    1    2    0  502  0.79442942094E+02 -0.17145711021E+02  0.20306510189E+03  0.21872492327E+03  0.00000000000E+00 0. -1.
<scales pt_clust_3="126.26798" pt_clust_4="41.84305" pt_clust_5="41.84305" pt_clust_6="81.27211"></scales>
<clustering>
<clus scale="   41.843">  4  5 -1 -1</clus>
<clus scale="   81.272">  1  6  2 -1</clus>
<clus scale="  126.268">  1  3  2 -1</clus>
<clus scale="  135.769">  2  3  1 -1</clus>
</clustering>
</event>
<event>
 6    0  0.1849053E+002  0.1600983E+03  0.7546771E-02  0.1188586E+00
         21   -1    0    0  503  502  0.00000000000E+00  0.00000000000E+00  0.15927160157E+03  0.15927160157E+03  0.00000000000E+00 0. -1.
          2   -1    0    0  504    0 -0.00000000000E+00 -0.00000000000E+00 -0.17678400828E+04  0.17678400828E+04  0.00000000000E+00 0.  1.
         21    1    1    2  503  501 -0.11641542965E+03 -0.86438844704E+02 -0.10123115618E+02  0.14535027899E+03  0.00000000000E+00 0. -1.
         21    1    1    2  504  505 -0.33404015383E+02  0.59570729268E+02 -0.33295088169E+03  0.33988349423E+03  0.00000000000E+00 0. -1.
         21    1    1    2  505  502  0.13019944646E+03 -0.86597092859E+02  0.14201639872E+02  0.15701158850E+03  0.00000000000E+00 0. -1.
          2    1    1    2  501    0  0.19619998573E+02  0.11346520830E+03 -0.12796961238E+04  0.12848663226E+04  0.00000000000E+00 0.  1.
<scales pt_clust_3="144.57205" pt_clust_4="68.29715" pt_clust_5="14000.00000" pt_clust_6="160.09829"></scales>
<clustering>
<clus scale="   68.297">  2  4  1 -1</clus>
<clus scale="  144.572">  1  3  2 -1</clus>
<clus scale="  160.098">  2  6  1 -1</clus>
<clus scale="  144.572">  1  3  2 -1</clus>
</clustering>
</event>
<event>
 6    0  0.1849053E+002  0.2423981E+03  0.7546771E-02  0.1118206E+00
          2   -1    0    0  503    0 -0.00000000000E+00  0.00000000000E+00  0.10465165144E+04  0.10465165144E+04  0.00000000000E+00 0. -1.
         21   -1    0    0  501  502  0.00000000000E+00 -0.00000000000E+00 -0.85045061196E+03  0.85045061196E+03  0.00000000000E+00 0. -1.
         21    1    1    2  503  504 -0.56343675146E+02  0.29396984540E+02  0.16582546798E+02  0.65679321611E+02  0.00000000000E+00 0.  1.
         21    1    1    2  504  505  0.11671131505E+03 -0.11557735293E+03 -0.45277659759E+03  0.48164956441E+03  0.00000000000E+00 0. -1.
         21    1    1    2  505  502  0.59506291168E+02 -0.40243629000E+02 -0.34732755964E+03  0.35467870256E+03  0.00000000000E+00 0. -1.
          2    1    1    2  501    0 -0.11987393108E+03  0.12642399739E+03  0.97958751282E+03  0.99495953774E+03  0.00000000000E+00 0. -1.
<scales pt_clust_3="63.55149" pt_clust_4="41.53986" pt_clust_5="41.53986" pt_clust_6="234.11826"></scales>
<clustering>
<clus scale="   41.540">  4  5 -1 -1</clus>
<clus scale="   63.551">  1  3  2 -1</clus>
<clus scale="  234.118">  1  6  2 -1</clus>
<clus scale="  242.398">  2  3  1 -1</clus>
</clustering>
</event>
<event>
 6    0  0.1849053E+002  0.1087875E+03  0.7546771E-02  0.1262832E+00
         21   -1    0    0  503  502  0.00000000000E+00  0.00000000000E+00  0.23699603975E+02  0.23699603975E+02  0.00000000000E+00 0. -1.
          2   -1    0    0  504    0 -0.00000000000E+00 -0.00000000000E+00 -0.20134624392E+04  0.20134624392E+04  0.00000000000E+00 0. -1.
         21    1    1    2  503  501  0.32291687996E+02 -0.97705518741E+02 -0.23555086981E+03  0.25704733761E+03  0.00000000000E+00 0. -1.
         21    1    1    2  504  505 -0.12685580664E+01 -0.50839812458E+02 -0.40112445586E+03  0.40433541134E+03  0.00000000000E+00 0. -1.
         21    1    1    2  505  502  0.54161159568E+02  0.57093678138E+02 -0.96186348632E+03  0.96507745058E+03  0.00000000000E+00 0. -1.
          2    1    1    2  501    0 -0.85184289498E+02  0.91451653061E+02 -0.39122402324E+03  0.41070184365E+03  0.00000000000E+00 0. -1.
<scales pt_clust_3="108.78747" pt_clust_4="50.85564" pt_clust_5="59.69775" pt_clust_6="14000.00000"></scales>
<clustering>
<clus scale="   50.856">  2  4  1 -1</clus>
<clus scale="   59.698">  2  5  1 -1</clus>
<clus scale="  108.787">  1  3  2 -1</clus>
<clus scale="  108.787">  1  3  2 -1</clus>
</clustering>
</event>
<event>
 6    0  0.1849053E+002  0.9695408E+02  0.7546771E-02  0.1286835E+00
         -2   -1    0    0    0  501 -0.00000000000E+00  0.00000000000E+00  0.16822725667E+03  0.16822725667E+03  0.00000000000E+00 0.  1.
         21   -1    0    0  504  502  0.00000000000E+00 -0.00000000000E+00 -0.43603454219E+03  0.43603454219E+03  0.00000000000E+00 0.  1.
         21    1    1    2  503  505 -0.26572367835E+01  0.65916551270E+02 -0.29566240367E+03  0.30293284665E+03  0.00000000000E+00 0.  1.
         21    1    1    2  504  501 -0.26413024666E+02  0.45218137148E+02  0.63445907993E+02  0.82266098972E+02  0.00000000000E+00 0.  1.
         21    1    1    2  505  502  0.60372034262E+02  0.14209597501E+02 -0.61447826009E+02  0.87307104541E+02  0.00000000000E+00 0. -1.
         -2    1    1    2    0  503 -0.31301772812E+02 -0.12534428592E+03  0.25857036168E+02  0.13175574869E+03  0.00000000000E+00 0.  1.
<scales pt_clust_3="14000.00000" pt_clust_4="52.36724" pt_clust_5="60.32370" pt_clust_6="96.95408"></scales>
<clustering>
<clus scale="   52.367">  1  4  2 -1</clus>
<clus scale="   60.324">  2  5  1 -1</clus>
<clus scale="   96.954">  1  6  2 -1</clus>
<clus scale="   60.324">  2  3  1 -1</clus>
</clustering>
</event>
<event>
 6    0  0.1849053E+002  0.7453276E+02  0.7546771E-02  0.1345324E+00
         21   -1    0    0  505  502  0.00000000000E+00  0.00000000000E+00  0.15733684422E+04  0.15733684422E+04  0.00000000000E+00 0.  1.
          2   -1    0    0  503    0 -0.00000000000E+00 -0.00000000000E+00 -0.18323321820E+04  0.18323321820E+04  0.00000000000E+00 0.  1.
         21    1    1    2  503  504 -0.28323401707E+01 -0.54793092459E+02 -0.39112114935E+02  0.67379987138E+02  0.00000000000E+00 0.  1.
         21    1    1    2  504  502  0.77001579200E+02 -0.31269114631E+02  0.86443372742E+03  0.86841963925E+03  0.00000000000E+00 0.  1.
         21    1    1    2  505  501 -0.31233178125E+02  0.22993793848E+02  0.69144521734E+03  0.69253210362E+03  0.00000000000E+00 0.  1.
          2    1    1    2  501    0 -0.42936060905E+02  0.63068413243E+02 -0.17757305696E+04  0.17773688942E+04  0.00000000000E+00 0.  1.
<scales pt_clust_3="74.53276" pt_clust_4="47.10224" pt_clust_5="38.78435" pt_clust_6="14000.00000"></scales>
<clustering>
<clus scale="   38.784">  1  5  2 -1</clus>
<clus scale="   47.102">  1  4  2 -1</clus>
<clus scale="   74.533">  1  3  2 -1</clus>
<clus scale="   38.784">  1  3  2 -1</clus>
</clustering>
</event>
<event>
 6    0  0.1849053E+002  0.1478553E+03  0.7546771E-02  0.1203133E+00
          2   -1    0    0  505    0 -0.00000000000E+00  0.00000000000E+00  0.18577715410E+04  0.18577715410E+04  0.00000000000E+00 0.  1.
         21   -1    0    0  503  502  0.00000000000E+00 -0.00000000000E+00 -0.21829767556E+03  0.21829767556E+03  0.00000000000E+00 0.  1.
         21    1    1    2  503  504  0.67124366861E+02  0.41928214781E+02 -0.17304281281E+03  0.19028260794E+03  0.00000000000E+00 0.  1.
         21    1    1    2  504  501 -0.28008787861E+02 -0.27584409858E+02  0.24942331770E+03  0.25250224411E+03  0.00000000000E+00 0.  1.
         21    1    1    2  505  502  0.43912772903E+02  0.35469501057E+02 -0.99033217947E+01  0.57310495652E+02  0.00000000000E+00 0. -1.
          2    1    1    2  501    0 -0.83028351903E+02 -0.49813305980E+02  0.15729966824E+04  0.15759738689E+04  0.00000000000E+00 0.  1.
<scales pt_clust_3="134.42695" pt_clust_4="39.23008" pt_clust_5="56.44836" pt_clust_6="39.23008"></scales>
<clustering>
<clus scale="   39.230">  4  6 -1 -1</clus>
<clus scale="   56.448">  2  5  1 -1</clus>
<clus scale="  134.427">  2  3  1 -1</clus>
<clus scale="   56.448">  2  3  1 -1</clus>
</clustering>
</event>
<event>
 6    0  0.1849053E+002  0.1086852E+03  0.7546771E-02  0.1263024E+00
         21   -1    0    0  503  502  0.00000000000E+00  0.00000000000E+00  0.13239830251E+03  0.13239830251E+03  0.00000000000E+00 0. -1.
          1   -1    0    0  505    0 -0.00000000000E+00 -0.00000000000E+00 -0.93732721866E+03  0.93732721866E+03  0.00000000000E+00 0.  1.
         21    1    1    2  503  501 -0.19594056178E+02 -0.33812811156E+02 -0.53137586399E+01  0.39439437960E+02  0.00000000000E+00 0.  1.
         21    1    1    2  504  502  0.50253082180E+02 -0.70667047167E+02  0.82300378166E+02  0.11955147875E+03  0.00000000000E+00 0. -1.
         21    1    1    2  505  504 -0.63238315947E+02  0.14530865697E+03 -0.78298542350E+03  0.79886160491E+03  0.00000000000E+00 0.  1.
          1    1    1    2  501    0  0.32579289945E+02 -0.40828798649E+02 -0.98930112178E+02  0.11187299955E+03  0.00000000000E+00 0.  1.
<scales pt_clust_3="39.07983" pt_clust_4="108.68523" pt_clust_5="14000.00000" pt_clust_6="53.07067"></scales>
<clustering>
<clus scale="   39.080">  1  3  2 -1</clus>
<clus scale="   53.071">  2  6  1 -1</clus>
<clus scale="  108.685">  1  4  2 -1</clus>
<clus scale="   39.080">  1  3  2 -1</clus>
</clustering>
</event>
<event>
 6    0  0.1849053E+002  0.2369487E+03  0.7546771E-02  0.1121842E+00
          2   -1    0    0  503    0 -0.00000000000E+00  0.00000000000E+00  0.15293538928E+04  0.15293538928E+04  0.00000000000E+00 0.  1.
         21   -1    0    0  501  502  0.00000000000E+00 -0.00000000000E+00 -0.27283965466E+04  0.27283965466E+04  0.00000000000E+00 0. -1.
         21    1    1    2  503  505 -0.67677102616E+02  0.53292926651E+02  0.51500150669E+03  0.52215599024E+03  0.00000000000E+00 0. -1.
         21    1    1    2  504  502  0.42421601178E+02 -0.65527842635E+02 -0.90232287173E+03  0.90569313526E+03  0.00000000000E+00 0. -1.
         21    1    1    2  505  504 -0.15648356276E+02 -0.15840629029E+03 -0.18096627036E+04  0.18166498079E+04  0.00000000000E+00 0. -1.
          2    1    1    2  501    0  0.40903857714E+02  0.17064120628E+03  0.99794141485E+03  0.10132515060E+04  0.00000000000E+00 0.  1.
<scales pt_clust_3="86.14132" pt_clust_4="51.56525" pt_clust_5="51.56525" pt_clust_6="225.21688"></scales>
<clustering>
<clus scale="   51.565">  4  5 -1 -1</clus>
<clus scale="   86.141">  1  3  2 -1</clus>
<clus scale="  225.217">  1  6  2 -1</clus>
<clus scale="  236.949">  2  3  1 -1</clus>
</clustering>
</event>
<event>
 6    0  0.1849053E+002  0.8741686E+02  0.7546771E-02  0.1309231E+00
          2   -1    0    0  503    0 -0.00000000000E+00  0.00000000000E+00  0.16101935547E+04  0.16101935547E+04  0.00000000000E+00 0.  1.
         21   -1    0    0  505  502  0.00000000000E+00 -0.00000000000E+00 -0.25774711284E+02  0.25774711284E+02  0.00000000000E+00 0.  1.
         21    1    1    2  503  502 -0.33650580754E+02 -0.87034104594E+01  0.42508642891E+02  0.54909886716E+02  0.00000000000E+00 0. -1.
         21    1    1    2  504  501 -0.49722246745E+02  0.55038849733E+02  0.36941276244E+03  0.37678557013E+03  0.00000000000E+00 0.  1.
         21    1    1    2  505  504  0.47639635995E+02  0.43694871461E+02  0.62036046001E+02  0.89594908969E+02  0.00000000000E+00 0.  1.
          2    1    1    2  501    0  0.35733191504E+02 -0.90030310735E+02  0.11104613920E+04  0.11146779001E+04  0.00000000000E+00 0.  1.
<scales pt_clust_3="34.75789" pt_clust_4="87.41686" pt_clust_5="44.55332" pt_clust_6="14000.00000"></scales>
<clustering>
<clus scale="   34.758">  2  3  1 -1</clus>
<clus scale="   44.553">  2  5  1 -1</clus>
<clus scale="   87.417">  2  4  1 -1</clus>
<clus scale="   34.758">  2  3  1 -1</clus>
</clustering>
</event>
<event>
 6    0  0.1849053E+002  0.1162615E+03  0.7546771E-02  0.1249395E+00
         21   -1    0    0  504  502  0.00000000000E+00  0.00000000000E+00  0.54234353153E+02  0.54234353153E+02  0.00000000000E+00 0. -1.
          2   -1    0    0  503    0 -0.00000000000E+00 -0.00000000000E+00 -0.44604585631E+03  0.44604585631E+03  0.00000000000E+00 0. -1.
         21    1    1    2  503  505 -0.13548952436E+02  0.77108380652E+02 -0.18940481001E+02  0.80548235855E+02  0.00000000000E+00 0. -1.
         21    1    1    2  504  501 -0.34628583025E+02 -0.82720909514E+02 -0.19720329900E+03  0.21663570520E+03  0.00000000000E+00 0. -1.
         21    1    1    2  505  502  0.18734526632E+02  0.39034760003E+02 -0.35402593725E+02  0.55928871069E+02  0.00000000000E+00 0. -1.
          2    1    1    2  501    0  0.29443008829E+02 -0.33422231141E+02 -0.14026512944E+03  0.14716739734E+03  0.00000000000E+00 0. -1.
<scales pt_clust_3="34.53635" pt_clust_4="106.58346" pt_clust_5="34.53635" pt_clust_6="44.54140"></scales>
<clustering>
<clus scale="   34.536">  3  5 -1 -1</clus>
<clus scale="   44.541">  2  6  1 -1</clus>
<clus scale="  106.583">  2  4  1 -1</clus>
<clus scale="  116.262">  1  3  2 -1</clus>
</clustering>
</event>
<event>
 6    0  0.1849053E+002  0.1616733E+03  0.7546771E-02  0.1186821E+00
         21   -1    0    0  504  502  0.00000000000E+00  0.00000000000E+00  0.26959426727E+02  0.26959426727E+02  0.00000000000E+00 0. -1.
          2   -1    0    0  503    0 -0.00000000000E+00 -0.00000000000E+00 -0.18821371380E+04  0.18821371380E+04  0.00000000000E+00 0. -1.
         21    1    1    2  503  505  0.11362193594E+01 -0.51275000573E+02 -0.19327213282E+03  0.19996133127E+03  0.00000000000E+00 0.  1.
         21    1    1    2  504  501  0.88540061297E+02  0.13055038432E+03 -0.86181176261E+03  0.87612913402E+03  0.00000000000E+00 0. -1.
         21    1    1    2  505  502 -0.16533021603E+02 -0.10273137170E+03 -0.17795406622E+03  0.20614248766E+03  0.00000000000E+00 0. -1.
          2    1    1    2  501    0 -0.73143259054E+02  0.23455987952E+02 -0.62213974957E+03  0.62686361173E+03  0.00000000000E+00 0. -1.
<scales pt_clust_3="39.44338" pt_clust_4="151.59764" pt_clust_5="39.44338" pt_clust_6="76.81224"></scales>
<clustering>
<clus scale="   39.443">  3  5 -1 -1</clus>
<clus scale="   76.812">  2  6  1 -1</clus>
<clus scale="  151.598">  2  4  1 -1</clus>
<clus scale="  161.673">  1  3  2 -1</clus>
</clustering>
</event>
<event>
 6    0  0.1849053E+002  0.1155586E+03  0.7546771E-02  0.1250609E+00
         21   -1    0    0  503  502  0.00000000000E+00  0.00000000000E+00  0.92934007574E+03  0.92934007574E+03  0.00000000000E+00 0. -1.
         -3   -1    0    0    0  501 -0.00000000000E+00 -0.00000000000E+00 -0.85774958979E+02  0.85774958979E+02  0.00000000000E+00 0.  1.
         21    1    1    2  503  505  0.36289941680E+02  0.27243678924E+02  0.56885847218E+03  0.57066552312E+03  0.00000000000E+00 0. -1.
         21    1    1    2  504  501 -0.24489460344E+02 -0.20409059518E+02  0.20608304545E+02  0.37960052615E+02  0.00000000000E+00 0.  1.
         21    1    1    2  505  504  0.64841754234E+02  0.51948093533E+02  0.29135057558E+03  0.30296570004E+03  0.00000000000E+00 0. -1.
         -3    1    1    2    0  502 -0.76642235570E+02 -0.58782712939E+02 -0.37252235536E+02  0.10352375894E+03  0.00000000000E+00 0.  1.
<scales pt_clust_3="45.00506" pt_clust_4="31.87889" pt_clust_5="115.55858" pt_clust_6="14000.00000"></scales>
<clustering>
<clus scale="   31.879">  2  4  1 -1</clus>
<clus scale="   45.005">  1  3  2 -1</clus>
<clus scale="  115.559">  1  5  2 -1</clus>
<clus scale="   45.005">  1  3  2 -1</clus>
</clustering>
</event>
<event>
 6    0  0.1849053E+002  0.9733782E+02  0.7546771E-02  0.1285996E+00
         21   -1    0    0  503  502  0.00000000000E+00  0.00000000000E+00  0.39855939675E+03  0.39855939675E+03  0.00000000000E+00 0.  1.
          4   -1    0    0  504    0 -0.00000000000E+00 -0.00000000000E+00 -0.26541192195E+04  0.26541192195E+04  0.00000000000E+00 0. -1.
         21    1    1    2  503  501 -0.40998538736E+02  0.11763595979E+03  0.88547530347E+02  0.15283901447E+03  0.00000000000E+00 0.  1.
         21    1    1    2  504  505 -0.29193877088E+02 -0.12955995047E+03 -0.47132551037E+03  0.48967928274E+03  0.00000000000E+00 0.  1.
         21    1    1    2  505  502  0.13054861341E+02 -0.63324098891E+02  0.26374041042E+03  0.27154994935E+03  0.00000000000E+00 0.  1.
          4    1    1    2  501    0  0.57137554484E+02  0.75248089569E+02 -0.21365222532E+04  0.21386103697E+04  0.00000000000E+00 0. -1.
<scales pt_clust_3="65.95529" pt_clust_4="14000.00000" pt_clust_5="64.65579" pt_clust_6="97.33782"></scales>
<clustering>
<clus scale="   64.656">  1  5  2 -1</clus>
<clus scale="   65.955">  1  3  2 -1</clus>
<clus scale="   97.338">  2  6  1 -1</clus>
<clus scale="   64.656">  1  3  2 -1</clus>
</clustering>
</event>
<event>
 6    0  0.1849053E+002  0.1345611E+03  0.7546771E-02  0.1220841E+00
          2   -1    0    0  505    0 -0.00000000000E+00  0.00000000000E+00  0.10884912514E+04  0.10884912514E+04  0.00000000000E+00 0.  1.
         21   -1    0    0  504  502  0.00000000000E+00 -0.00000000000E+00 -0.10103411935E+04  0.10103411935E+04  0.00000000000E+00 0.  1.
         21    1    1    2  503  502 -0.71235678496E+02  0.39822774672E+02 -0.85686558533E+03  0.86074328728E+03  0.00000000000E+00 0.  1.
         21    1    1    2  504  501 -0.45638190303E+02  0.27583052982E+02 -0.13232936120E+03  0.14267000057E+03  0.00000000000E+00 0.  1.
         21    1    1    2  505  503 -0.49692153241E+02  0.10011414850E+01  0.10249183962E+03  0.11390737275E+03  0.00000000000E+00 0. -1.
          2    1    1    2  501    0  0.16656602204E+03 -0.68406969139E+02  0.96485316483E+03  0.98151178434E+03  0.00000000000E+00 0.  1.
<scales pt_clust_3="14000.00000" pt_clust_4="53.55326" pt_clust_5="49.70224" pt_clust_6="134.56113"></scales>
<clustering>
<clus scale="   49.702">  1  5  2 -1</clus>
<clus scale="   53.553">  2  4  1 -1</clus>
<clus scale="  134.561">  1  6  2 -1</clus>
<clus scale="   53.553">  2  3  1 -1</clus>
</clustering>
</event>
<event>
 6    0  0.1849053E+002  0.4381342E+03  0.7546771E-02  0.1031321E+00
         21   -1    0    0  501  502  0.00000000000E+00  0.00000000000E+00  0.55413356382E+03  0.55413356382E+03  0.00000000000E+00 0.  1.
         -3   -1    0    0    0  501 -0.00000000000E+00 -0.00000000000E+00 -0.35499430189E+03  0.35499430189E+03  0.00000000000E+00 0.  1.
         21    1    1    2  503  505  0.50937729429E+02 -0.11301014855E+03 -0.13687182998E+02  0.12471280982E+03  0.00000000000E+00 0. -1.
         21    1    1    2  504  502 -0.27664965791E+02  0.22609135013E+03  0.12630669015E+03  0.26045350624E+03  0.00000000000E+00 0.  1.
         21    1    1    2  505  504 -0.58787959335E+01  0.19931043769E+03  0.67484942013E+02  0.21050754906E+03  0.00000000000E+00 0. -1.
         -3    1    1    2    0  503 -0.17393967704E+02 -0.31239163926E+03  0.19034812761E+02  0.31345400060E+03  0.00000000000E+00 0.  1.
<scales pt_clust_3="62.53251" pt_clust_4="429.24249" pt_clust_5="43.45648" pt_clust_6="62.53251"></scales>
<clustering>
<clus scale="   43.456">  4  5 -1 -1</clus>
<clus scale="   62.533">  3  6 -1 -1</clus>
<clus scale="  429.242">  1  4  2 -1</clus>
<clus scale="  429.242">  1  3  2 -1</clus>
</clustering>
</event>
<event>
 6    0  0.1849053E+002  0.1792918E+03  0.7546771E-02  0.1168490E+00
         21   -1    0    0  505  502  0.00000000000E+00  0.00000000000E+00  0.10039802055E+03  0.10039802055E+03  0.00000000000E+00 0. -1.
          2   -1    0    0  503    0 -0.00000000000E+00 -0.00000000000E+00 -0.23520078528E+04  0.23520078528E+04  0.00000000000E+00 0. -1.
         21    1    1    2  503  502  0.89019012221E+02 -0.92755895786E+02 -0.14307402951E+04  0.14365047277E+04  0.00000000000E+00 0.  1.
         21    1    1    2  504  501 -0.52398294343E+02  0.14465664590E+03 -0.16639608161E+03  0.22662476128E+03  0.00000000000E+00 0. -1.
         21    1    1    2  505  504 -0.11904005409E+03  0.74049952529E+02 -0.25436742011E+02  0.14248142964E+03  0.00000000000E+00 0. -1.
          2    1    1    2  501    0  0.82419336213E+02 -0.12595070264E+03 -0.62903671357E+03  0.64679495475E+03  0.00000000000E+00 0. -1.
<scales pt_clust_3="128.56143" pt_clust_4="179.29182" pt_clust_5="128.83587" pt_clust_6="14000.00000"></scales>
<clustering>
<clus scale="  128.561">  2  3  1 -1</clus>
<clus scale="  128.836">  1  5  2 -1</clus>
<clus scale="  179.292">  1  4  2 -1</clus>
<clus scale="  128.836">  1  3  2 -1</clus>
</clustering>
</event>
<event>
 6    0  0.1849053E+002  0.1453369E+03  0.7546771E-02  0.1206323E+00
          2   -1    0    0  504    0 -0.00000000000E+00  0.00000000000E+00  0.10620847968E+04  0.10620847968E+04  0.00000000000E+00 0.  1.
         21   -1    0    0  505  502  0.00000000000E+00 -0.00000000000E+00 -0.68342055072E+02  0.68342055072E+02  0.00000000000E+00 0. -1.
         21    1    1    2  503  502 -0.64208522785E+02 -0.13251142694E+03  0.83214104557E+02  0.16913485704E+03  0.00000000000E+00 0. -1.
         21    1    1    2  504  503  0.86287392065E+02  0.22464403184E+02  0.32410367420E+03  0.33614484240E+03  0.00000000000E+00 0.  1.
         21    1    1    2  505  501 -0.31697600390E+02  0.14749033863E+01  0.32775439420E+01  0.31900713233E+02  0.00000000000E+00 0. -1.
          2    1    1    2  501    0  0.96187311087E+01  0.10857212037E+03  0.58314741901E+03  0.59324643919E+03  0.00000000000E+00 0.  1.
<scales pt_clust_3="145.33689" pt_clust_4="85.79340" pt_clust_5="31.73190" pt_clust_6="14000.00000"></scales>
<clustering>
<clus scale="   31.732">  2  5  1 -1</clus>
<clus scale="   85.793">  1  4  2 -1</clus>
<clus scale="  145.337">  2  3  1 -1</clus>
<clus scale="   31.732">  2  3  1 -1</clus>
</clustering>
</event>
<event>
 6    0  0.1849053E+002  0.1080770E+03  0.7546771E-02  0.1264173E+00
          1   -1    0    0  505    0 -0.00000000000E+00  0.00000000000E+00  0.25225620060E+03  0.25225620060E+03  0.00000000000E+00 0. -1.
         21   -1    0    0  504  502  0.00000000000E+00 -0.00000000000E+00 -0.52982638019E+03  0.52982638019E+03  0.00000000000E+00 0. -1.
         21    1    1    2  503  501  0.40839325833E+01 -0.35708183578E+02 -0.17820849424E+03  0.18179664546E+03  0.00000000000E+00 0. -1.
         21    1    1    2  504  503 -0.50767641634E+02 -0.48556558730E+02 -0.30259597597E+03  0.31064355378E+03  0.00000000000E+00 0. -1.
         21    1    1    2  505  502 -0.28887023790E+02 -0.25513311407E+02  0.13404991636E+03  0.13948035445E+03  0.00000000000E+00 0. -1.
          1    1    1    2  501    0  0.75570732840E+02  0.10977805371E+03  0.69184374266E+02  0.15016202710E+03  0.00000000000E+00 0. -1.
<scales pt_clust_3="32.34180" pt_clust_4="32.34180" pt_clust_5="38.54075" pt_clust_6="98.16390"></scales>
<clustering>
<clus scale="   32.342">  3  4 -1 -1</clus>
<clus scale="   38.541">  1  5  2 -1</clus>
<clus scale="   98.164">  1  6  2 -1</clus>
<clus scale="  108.077">  2  3  1 -1</clus>
</clustering>
</event>
<event>
 6    0  0.1849053E+002  0.1606783E+03  0.7546771E-02  0.1187933E+00
          4   -1    0    0  503    0 -0.00000000000E+00  0.00000000000E+00  0.19239484274E+04  0.19239484274E+04  0.00000000000E+00 0. -1.
         21   -1    0    0  505  502  0.00000000000E+00 -0.00000000000E+00 -0.19014334546E+03  0.19014334546E+03  0.00000000000E+00 0. -1.
         21    1    1    2  503  502  0.46038388649E+02 -0.10295767152E+03  0.23667263083E+03  0.26217122179E+03  0.00000000000E+00 0. -1.
         21    1    1    2  504  501 -0.55356871581E+02  0.63196435950E+02 -0.97764617186E+02  0.12890342556E+03  0.00000000000E+00 0. -1.
         21    1    1    2  505  504 -0.11260913497E+02  0.76250454665E+02 -0.40509254601E+02  0.87074334438E+02  0.00000000000E+00 0. -1.
          4    1    1    2  501    0  0.20579396429E+02 -0.36489219090E+02  0.16354063229E+04  0.16359427910E+04  0.00000000000E+00 0. -1.
<scales pt_clust_3="148.90989" pt_clust_4="57.38311" pt_clust_5="57.38311" pt_clust_6="41.89242"></scales>
<clustering>
<clus scale="   41.892">  1  6  2 -1</clus>
<clus scale="   57.383">  4  5 -1 -1</clus>
<clus scale="  148.910">  1  3  2 -1</clus>
<clus scale="  160.678">  2  3  1 -1</clus>
</clustering>
</event>
<event>
 6    0  0.1849053E+002  0.2938872E+03  0.7546771E-02  0.1088337E+00
          2   -1    0    0  504    0 -0.00000000000E+00  0.00000000000E+00  0.14868259421E+04  0.14868259421E+04  0.00000000000E+00 0.  1.
         21   -1    0    0  505  502  0.00000000000E+00 -0.00000000000E+00 -0.47095523867E+03  0.47095523867E+03  0.00000000000E+00 0.  1.
         21    1    1    2  503  501 -0.46902411373E+02  0.15386341744E+03 -0.23057020087E+03  0.28113414049E+03  0.00000000000E+00 0.  1.
         21    1    1    2  504  502 -0.39286755451E+02 -0.16030787856E+02  0.41644547316E+02  0.59453373616E+02  0.00000000000E+00 0.  1.
         21    1    1    2  505  503  0.72998017255E+02  0.11162106718E+03 -0.17215107009E+03  0.21777043898E+03  0.00000000000E+00 0.  1.
          2    1    1    2  501    0  0.13191149569E+02 -0.24945369676E+03  0.13769474271E+04  0.13994232277E+04  0.00000000000E+00 0.  1.
<scales pt_clust_3="113.36646" pt_clust_4="42.43154" pt_clust_5="113.36646" pt_clust_6="266.10402"></scales>
<clustering>
<clus scale="   42.432">  1  4  2 -1</clus>
<clus scale="  113.366">  3  5 -1 -1</clus>
<clus scale="  266.104">  1  6  2 -1</clus>
<clus scale="  293.887">  2  3  1 -1</clus>
</clustering>
</event>
<event>
 6    0  0.1849053E+002  0.3551289E+03  0.7546771E-02  0.1060529E+00
          2   -1    0    0  505    0 -0.00000000000E+00  0.00000000000E+00  0.45459389441E+04  0.45459389441E+04  0.00000000000E+00 0.  1.
         21   -1    0    0  504  502  0.00000000000E+00 -0.00000000000E+00 -0.96221106579E+02  0.96221106579E+02  0.00000000000E+00 0.  1.
         21    1    1    2  503  501 -0.69059223434E+02  0.16464543077E+03  0.15989404660E+04  0.16088778412E+04  0.00000000000E+00 0.  1.
         21    1    1    2  504  503  0.42108348561E+02 -0.16556199758E+02 -0.48251265013E+01  0.45502775901E+02  0.00000000000E+00 0.  1.
         21    1    1    2  505  502  0.81300932288E+02 -0.30749629337E+03  0.33641110159E+03  0.46296462208E+03  0.00000000000E+00 0.  1.
          2    1    1    2  501    0 -0.54350057416E+02  0.15940706236E+03  0.25191913964E+04  0.25248148114E+04  0.00000000000E+00 0.  1.
<scales pt_clust_3="88.00238" pt_clust_4="45.24622" pt_clust_5="343.44071" pt_clust_6="88.00238"></scales>
<clustering>
<clus scale="   45.246">  2  4  1 -1</clus>
<clus scale="   88.002">  3  6 -1 -1</clus>
<clus scale="  343.441">  2  5  1 -1</clus>
<clus scale="   45.246">  2  3  1 -1</clus>
</clustering>
</event>
<event>
 6    0  0.1849053E+002  0.8617861E+02  0.7546771E-02  0.1312379E+00
         21   -1    0    0  505  502  0.00000000000E+00  0.00000000000E+00  0.22799783153E+03  0.22799783153E+03  0.00000000000E+00 0.  1.
          1   -1    0    0  502    0 -0.00000000000E+00 -0.00000000000E+00 -0.47031002632E+03  0.47031002632E+03  0.00000000000E+00 0.  1.
         21    1    1    2  503  501 -0.52379584170E+01  0.34302741582E+02 -0.13983839170E+03  0.14407945753E+03  0.00000000000E+00 0.  1.
         21    1    1    2  504  503  0.25909927033E+02 -0.11921029503E+03  0.48388560333E+01  0.12208944790E+03  0.00000000000E+00 0.  1.
         21    1    1    2  505  504 -0.57012567224E+02  0.51519247998E+02  0.15085426647E+03  0.16929759433E+03  0.00000000000E+00 0.  1.
          1    1    1    2  501    0  0.36340598608E+02  0.33388305455E+02 -0.25816692559E+03  0.26284135808E+03  0.00000000000E+00 0.  1.
<scales pt_clust_3="33.82201" pt_clust_4="76.15699" pt_clust_5="76.84182" pt_clust_6="33.82201"></scales>
<clustering>
<clus scale="   33.822">  3  6 -1 -1</clus>
<clus scale="   76.842">  1  5  2 -1</clus>
<clus scale="   76.157">  1  4  2 -1</clus>
<clus scale="   76.842">  1  3  2 -1</clus>
</clustering>
</event>
<event>
 6    0  0.1849053E+002  0.1030977E+03  0.7546771E-02  0.1273914E+00
         21   -1    0    0  503  502  0.00000000000E+00  0.00000000000E+00  0.59420448584E+03  0.59420448584E+03  0.00000000000E+00 0.  1.
          1   -1    0    0  505    0 -0.00000000000E+00 -0.00000000000E+00 -0.69735285096E+03  0.69735285096E+03  0.00000000000E+00 0. -1.
         21    1    1    2  503  504 -0.26093951479E+02  0.99528468198E+02  0.27769517417E+03  0.29614425546E+03  0.00000000000E+00 0.  1.
         21    1    1    2  504  501 -0.57403093539E+02  0.36903609886E+02 -0.16493383377E+02  0.70207002967E+02  0.00000000000E+00 0.  1.
         21    1    1    2  505  502  0.26641169604E+02 -0.41827203709E+02  0.27345785770E+03  0.27791809374E+03  0.00000000000E+00 0. -1.
          1    1    1    2  501    0  0.56855875414E+02 -0.94604874375E+02 -0.63780801362E+03  0.64728798464E+03  0.00000000000E+00 0. -1.
<scales pt_clust_3="61.88601" pt_clust_4="103.09769" pt_clust_5="49.59100" pt_clust_6="14000.00000"></scales>
<clustering>
<clus scale="   49.591">  1  5  2 -1</clus>
<clus scale="   61.886">  1  3  2 -1</clus>
<clus scale="  103.098">  1  4  2 -1</clus>
<clus scale="   49.591">  1  3  2 -1</clus>
</clustering>
</event>
<event>
 6    0  0.1849053E+002  0.1079334E+03  0.7546771E-02  0.1264445E+00
         21   -1    0    0  505  502  0.00000000000E+00  0.00000000000E+00  0.61185127907E+03  0.61185127907E+03  0.00000000000E+00 0.  1.
          1   -1    0    0  504    0 -0.00000000000E+00 -0.00000000000E+00 -0.16751401054E+04  0.16751401054E+04  0.00000000000E+00 0.  1.
         21    1    1    2  503  502  0.58658137320E+02 -0.32998284537E+02  0.16740718477E+03  0.18042956900E+03  0.00000000000E+00 0.  1.
         21    1    1    2  504  503 -0.33579028737E+02 -0.37241386399E+02 -0.10245627688E+03  0.11406910495E+03  0.00000000000E+00 0. -1.
         21    1    1    2  505  501 -0.31903403123E+02 -0.72256256279E+02  0.42522128867E+03  0.43249501505E+03  0.00000000000E+00 0.  1.
          1    1    1    2  501    0  0.68242945401E+01  0.14249592722E+03 -0.15534610229E+04  0.15599976955E+04  0.00000000000E+00 0.  1.
<scales pt_clust_3="67.25735" pt_clust_4="50.14451" pt_clust_5="14000.00000" pt_clust_6="107.93343"></scales>
<clustering>
<clus scale="   50.145">  2  4  1 -1</clus>
<clus scale="   67.257">  1  3  2 -1</clus>
<clus scale="  107.933">  2  6  1 -1</clus>
<clus scale="   67.257">  1  3  2 -1</clus>
</clustering>
</event>
<event>
 6    0  0.1849053E+002  0.3976465E+03  0.7546771E-02  0.1044598E+00
          2   -1    0    0  503    0 -0.00000000000E+00  0.00000000000E+00  0.46346661314E+03  0.46346661314E+03  0.00000000000E+00 0. -1.
         21   -1    0    0  505  502  0.00000000000E+00 -0.00000000000E+00 -0.14763442720E+04  0.14763442720E+04  0.00000000000E+00 0. -1.
         21    1    1    2  503  504  0.16451849926E+03 -0.12050676888E+03 -0.50989813610E+03  0.54916693923E+03  0.00000000000E+00 0. -1.
         21    1    1    2  504  502  0.16454166170E+03 -0.17455591265E+03 -0.69494716081E+03  0.73518384190E+03  0.00000000000E+00 0. -1.
         21    1    1    2  505  501 -0.73153580622E+01  0.72671989814E+02 -0.12983410472E+03  0.14896854472E+03  0.00000000000E+00 0.  1.
          2    1    1    2  501    0 -0.32174480289E+03  0.22239069172E+03  0.32180174279E+03  0.50649155927E+03  0.00000000000E+00 0. -1.
<scales pt_clust_3="46.67094" pt_clust_4="46.67094" pt_clust_5="73.03925" pt_clust_6="394.41165"></scales>
<clustering>
<clus scale="   46.671">  3  4 -1 -1</clus>
<clus scale="   73.039">  2  5  1 -1</clus>
<clus scale="  394.412">  1  6  2 -1</clus>
<clus scale="   73.039">  2  3  1 -1</clus>
</clustering>
</event>
<event>
 6    0  0.1849053E+002  0.9744423E+02  0.7546771E-02  0.1285764E+00
         21   -1    0    0  504  502  0.00000000000E+00  0.00000000000E+00  0.64736094649E+02  0.64736094649E+02  0.00000000000E+00 0. -1.
          2   -1    0    0  503    0 -0.00000000000E+00 -0.00000000000E+00 -0.36784580151E+03  0.36784580151E+03  0.00000000000E+00 0. -1.
         21    1    1    2  503  505 -0.47316096591E+02 -0.45894428407E+02 -0.35239608173E+01  0.66011588795E+02  0.00000000000E+00 0.  1.
         21    1    1    2  504  501  0.71121857046E+02  0.21854035958E+02 -0.84109422413E+02  0.11229564718E+03  0.00000000000E+00 0. -1.
         21    1    1    2  505  502 -0.19896560333E+01 -0.44400099021E+02 -0.25658686181E+02  0.51319545017E+02  0.00000000000E+00 0. -1.
          2    1    1    2  501    0 -0.21816104421E+02  0.68440491471E+02 -0.18981763745E+03  0.20295511517E+03  0.00000000000E+00 0. -1.
<scales pt_clust_3="39.64267" pt_clust_4="84.64377" pt_clust_5="39.64267" pt_clust_6="71.83344"></scales>
<clustering>
<clus scale="   39.643">  3  5 -1 -1</clus>
<clus scale="   71.833">  2  6  1 -1</clus>
<clus scale="   84.644">  2  4  1 -1</clus>
<clus scale="   97.444">  1  3  2 -1</clus>
</clustering>
</event>
<event>
 6    0  0.1849053E+002  0.9414945E+02  0.7546771E-02  0.1293103E+00
         -1   -1    0    0    0  501 -0.00000000000E+00  0.00000000000E+00  0.81751148363E+03  0.81751148363E+03  0.00000000000E+00 0. -1.
         21   -1    0    0  505  502  0.00000000000E+00 -0.00000000000E+00 -0.31748435827E+02  0.31748435827E+02  0.00000000000E+00 0. -1.
         21    1    1    2  503  502 -0.29670138760E+02 -0.20372276127E+02  0.13897861713E+02  0.38581048830E+02  0.00000000000E+00 0. -1.
         21    1    1    2  504  503 -0.47112301063E+02 -0.63405022517E+02  0.14215066444E+03  0.16262403633E+03  0.00000000000E+00 0. -1.
         21    1    1    2  505  501  0.44251359008E+02 -0.16538348128E+02  0.21664598991E+03  0.22173674634E+03  0.00000000000E+00 0. -1.
         -1    1    1    2    0  504  0.32531080815E+02  0.10031564677E+03  0.41306853173E+03  0.42631808795E+03  0.00000000000E+00 0. -1.
<scales pt_clust_3="35.99093" pt_clust_4="94.14945" pt_clust_5="44.69850" pt_clust_6="14000.00000"></scales>
<clustering>
<clus scale="   35.991">  2  3  1 -1</clus>
<clus scale="   44.698">  1  5  2 -1</clus>
<clus scale="   94.149">  2  4  1 -1</clus>
<clus scale="   35.991">  2  3  1 -1</clus>
</clustering>
</event>
<event>
 6    0  0.1849053E+002  0.1017470E+03  0.7546771E-02  0.1276664E+00
          2   -1    0    0  504    0 -0.00000000000E+00  0.00000000000E+00  0.17366493627E+04  0.17366493627E+04  0.00000000000E+00 0. -1.
         21   -1    0    0  501  502  0.00000000000E+00 -0.00000000000E+00 -0.25516414785E+02  0.25516414785E+02  0.00000000000E+00 0. -1.
         21    1    1    2  503  502 -0.38955389740E+02  0.50299859701E+02  0.10971163766E+03  0.12682366386E+03  0.00000000000E+00 0. -1.
         21    1    1    2  504  505  0.30919341857E+02  0.70156134967E+02  0.56555684008E+03  0.57072973318E+03  0.00000000000E+00 0. -1.
         21    1    1    2  505  503 -0.74653841961E+02  0.20054322140E+02  0.44515805257E+03  0.45181972481E+03  0.00000000000E+00 0. -1.
          2    1    1    2  501    0  0.82689889844E+02 -0.14051031681E+03  0.59070641763E+03  0.61279265567E+03  0.00000000000E+00 0. -1.
<scales pt_clust_3="63.62074" pt_clust_4="81.73707" pt_clust_5="14000.00000" pt_clust_6="101.74704"></scales>
<clustering>
<clus scale="   63.621">  2  3  1 -1</clus>
<clus scale="   81.737">  1  4  2 -1</clus>
<clus scale="  101.747">  2  6  1 -1</clus>
<clus scale="   63.621">  2  3  1 -1</clus>
</clustering>
</event>
<event>
 6    0  0.1849053E+002  0.2089168E+03  0.7546771E-02  0.1142427E+00
          2   -1    0    0  503    0 -0.00000000000E+00  0.00000000000E+00  0.23851573557E+04  0.23851573557E+04  0.00000000000E+00 0. -1.
         21   -1    0    0  504  502  0.00000000000E+00 -0.00000000000E+00 -0.38281505021E+03  0.38281505021E+03  0.00000000000E+00 0. -1.
         21    1    1    2  503  502 -0.43237421585E+02 -0.92113705017E+01 -0.27215719571E+03  0.27572425201E+03  0.00000000000E+00 0. -1.
         21    1    1    2  504  505 -0.26921016632E+02  0.13139789810E+03 -0.36289008290E+02  0.13894977828E+03  0.00000000000E+00 0. -1.
         21    1    1    2  505  501 -0.14986572544E+03  0.16631717081E+02  0.45429140249E+03  0.47866170522E+03  0.00000000000E+00 0. -1.
          2    1    1    2  501    0  0.22002416366E+03 -0.13881824468E+03  0.18564971070E+04  0.18746366704E+04  0.00000000000E+00 0. -1.
<scales pt_clust_3="44.20774" pt_clust_4="138.49648" pt_clust_5="14000.00000" pt_clust_6="208.91683"></scales>
<clustering>
<clus scale="   44.208">  2  3  1 -1</clus>
<clus scale="  138.496">  2  4  1 -1</clus>
<clus scale="  208.917">  1  6  2 -1</clus>
<clus scale="   44.208">  2  3  1 -1</clus>
</clustering>
</event>
<event>
 6    0  0.1849053E+002  0.1355213E+03  0.7546771E-02  0.1219486E+00
          4   -1    0    0  503    0 -0.00000000000E+00  0.00000000000E+00  0.10142524808E+04  0.10142524808E+04  0.00000000000E+00 0. -1.
         21   -1    0    0  501  502  0.00000000000E+00 -0.00000000000E+00 -0.11405060232E+03  0.11405060232E+03  0.00000000000E+00 0. -1.
         21    1    1    2  503  504  0.53212897068E+02 -0.16942857496E+02  0.20810891987E+03  0.21547156510E+03  0.00000000000E+00 0.  1.
         21    1    1    2  504  505 -0.44332188129E+02  0.10739198118E+02  0.58473612160E+01  0.45987660451E+02  0.00000000000E+00 0. -1.
         21    1    1    2  505  502 -0.79775862731E+02  0.52959941198E+01 -0.70614118572E+02  0.10667047187E+03  0.00000000000E+00 0. -1.
          4    1    1    2  501    0  0.70895153793E+02  0.90766525770E+00  0.75685971598E+03  0.76017338572E+03  0.00000000000E+00 0. -1.
<scales pt_clust_3="55.84508" pt_clust_4="44.36465" pt_clust_5="44.36465" pt_clust_6="122.13189"></scales>
<clustering>
<clus scale="   44.365">  4  5 -1 -1</clus>
<clus scale="   55.845">  1  3  2 -1</clus>
<clus scale="  122.132">  1  6  2 -1</clus>
<clus scale="  135.521">  2  3  1 -1</clus>
</clustering>
</event>
<event>
 6    0  0.1849053E+002  0.1243373E+03  0.7546771E-02  0.1236109E+00
         21   -1    0    0  504  502  0.00000000000E+00  0.00000000000E+00  0.69677258823E+02  0.69677258823E+02  0.00000000000E+00 0.  1.
          2   -1    0    0  503    0 -0.00000000000E+00 -0.00000000000E+00 -0.21330915492E+04  0.21330915492E+04  0.00000000000E+00 0.  1.
         21    1    1    2  503  505  0.56574251788E+02  0.65641495511E+02 -0.73425789963E+03  0.73935384971E+03  0.00000000000E+00 0.  1.
         21    1    1    2  504  501 -0.19472499810E+01 -0.11243396086E+03 -0.77910005401E+02  0.13680334893E+03  0.00000000000E+00 0.  1.
         21    1    1    2  505  502 -0.64254155177E+02 -0.12792666409E+02  0.79264335604E+01  0.65993008117E+02  0.00000000000E+00 0.  1.
          2    1    1    2  501    0  0.96271533698E+01  0.59585131756E+02 -0.12591728189E+04  0.12606186012E+04  0.00000000000E+00 0.  1.
<scales pt_clust_3="14000.00000" pt_clust_4="124.33726" pt_clust_5="64.84175" pt_clust_6="60.35785"></scales>
<clustering>
<clus scale="   60.358">  2  6  1 -1</clus>
<clus scale="   64.842">  1  5  2 -1</clus>
<clus scale="  124.337">  1  4  2 -1</clus>
<clus scale="   64.842">  1  3  2 -1</clus>
</clustering>
</event>
<event>
 6    0  0.1849053E+002  0.1050649E+03  0.7546771E-02  0.1269992E+00
         21   -1    0    0  505  502  0.00000000000E+00  0.00000000000E+00  0.22868915456E+03  0.22868915456E+03  0.00000000000E+00 0. -1.
          2   -1    0    0  503    0 -0.00000000000E+00 -0.00000000000E+00 -0.10096125452E+04  0.10096125452E+04  0.00000000000E+00 0.  1.
         21    1    1    2  503  504 -0.33320008734E+02  0.23559421767E+02 -0.78529976666E+03  0.78635932807E+03  0.00000000000E+00 0.  1.
         21    1    1    2  504  502  0.37170760640E+02  0.11590162372E+03  0.15314524384E+03  0.19562289625E+03  0.00000000000E+00 0. -1.
         21    1    1    2  505  501 -0.12763775088E+01 -0.81075000507E+02  0.14977059129E+02  0.82456637980E+02  0.00000000000E+00 0. -1.
          2    1    1    2  501    0 -0.25743743969E+01 -0.58386044979E+02 -0.16374592698E+03  0.17386283747E+03  0.00000000000E+00 0.  1.
<scales pt_clust_3="40.80771" pt_clust_4="105.06489" pt_clust_5="14000.00000" pt_clust_6="49.16610"></scales>
<clustering>
<clus scale="   40.808">  2  3  1 -1</clus>
<clus scale="   49.166">  2  6  1 -1</clus>
<clus scale="  105.065">  1  4  2 -1</clus>
<clus scale="  105.065">  1  3  2 -1</clus>
</clustering>
</event>
<event>
 6    0  0.1849053E+002  0.5823348E+02  0.7546771E-02  0.1405398E+00
         21   -1    0    0  503  502  0.00000000000E+00  0.00000000000E+00  0.20440717968E+03  0.20440717968E+03  0.00000000000E+00 0.  1.
          1   -1    0    0  504    0 -0.00000000000E+00 -0.00000000000E+00 -0.13042471698E+04  0.13042471698E+04  0.00000000000E+00 0.  1.
         21    1    1    2  503  501 -0.36271510339E+02 -0.15808520375E+02 -0.57775101204E+01  0.39986390209E+02  0.00000000000E+00 0.  1.
         21    1    1    2  504  505  0.23022522065E+02  0.25109853276E+02 -0.10346337216E+03  0.10892754763E+03  0.00000000000E+00 0. -1.
         21    1    1    2  505  502  0.85185565288E+02  0.44139740019E+02  0.17025797446E+03  0.19542946310E+03  0.00000000000E+00 0.  1.
          1    1    1    2  501    0 -0.71936577013E+02 -0.53441072921E+02 -0.11608570823E+04  0.11643109486E+04  0.00000000000E+00 0.  1.
<scales pt_clust_3="38.97299" pt_clust_4="34.06672" pt_clust_5="58.23348" pt_clust_6="14000.00000"></scales>
<clustering>
<clus scale="   34.067">  2  4  1 -1</clus>
<clus scale="   38.973">  1  3  2 -1</clus>
<clus scale="   58.233">  1  5  2 -1</clus>
<clus scale="   38.973">  1  3  2 -1</clus>
</clustering>
</event>
<event>
 6    0  0.1849053E+002  0.7057068E+02  0.7546771E-02  0.1358163E+00
          2   -1    0    0  503    0 -0.00000000000E+00  0.00000000000E+00  0.14558432125E+04  0.14558432125E+04  0.00000000000E+00 0.  1.
         21   -1    0    0  504  502  0.00000000000E+00 -0.00000000000E+00 -0.26801023315E+03  0.26801023315E+03  0.00000000000E+00 0. -1.
         21    1    1    2  503  505  0.37149784705E+02  0.19804410262E+01  0.22864527128E+03  0.23165208553E+03  0.00000000000E+00 0.  1.
         21    1    1    2  504  501  0.54734315555E+02 -0.78345512283E+02 -0.24462612783E+03  0.26263245613E+03  0.00000000000E+00 0. -1.
         21    1    1    2  505  502  0.53657571732E+00  0.36335698079E+02  0.20002722833E+02  0.41481077482E+02  0.00000000000E+00 0. -1.
          2    1    1    2  501    0 -0.92420675977E+02  0.40029373178E+02  0.11838111131E+04  0.11880878265E+04  0.00000000000E+00 0.  1.
<scales pt_clust_3="37.21757" pt_clust_4="14000.00000" pt_clust_5="36.33966" pt_clust_6="70.57068"></scales>
<clustering>
<clus scale="   36.340">  2  5  1 -1</clus>
<clus scale="   37.218">  1  3  2 -1</clus>
<clus scale="   70.571">  1  6  2 -1</clus>
<clus scale="   36.340">  2  3  1 -1</clus>
</clustering>
</event>
<event>
 6    0  0.1849053E+002  0.1082420E+03  0.7546771E-02  0.1263861E+00
         21   -1    0    0  504  502  0.00000000000E+00  0.00000000000E+00  0.45986130037E+03  0.45986130037E+03  0.00000000000E+00 0. -1.
          1   -1    0    0  503    0 -0.00000000000E+00 -0.00000000000E+00 -0.32972530749E+03  0.32972530749E+03  0.00000000000E+00 0. -1.
         21    1    1    2  503  502 -0.50116037940E+02 -0.94160033499E+02  0.35381861297E+03  0.36954748011E+03  0.00000000000E+00 0. -1.
         21    1    1    2  504  505 -0.33289000746E+02  0.36582266283E+02  0.81970107086E+02  0.95736713087E+02  0.00000000000E+00 0. -1.
         21    1    1    2  505  501  0.44130874073E+02  0.18925341625E+02 -0.93488423697E+02  0.10509894370E+03  0.00000000000E+00 0. -1.
          1    1    1    2  501    0  0.39274164613E+02  0.38652425591E+02 -0.21216430348E+03  0.21920347096E+03  0.00000000000E+00 0. -1.
<scales pt_clust_3="101.19021" pt_clust_4="49.46130" pt_clust_5="35.87395" pt_clust_6="35.87395"></scales>
<clustering>
<clus scale="   35.874">  5  6 -1 -1</clus>
<clus scale="   49.461">  1  4  2 -1</clus>
<clus scale="  101.190">  1  3  2 -1</clus>
<clus scale="   49.461">  1  3  2 -1</clus>
</clustering>
</event>
<event>
 6    0  0.1849053E+002  0.2270483E+03  0.7546771E-02  0.1128735E+00
         21   -1    0    0  503  502  0.00000000000E+00  0.00000000000E+00  0.48789305295E+02  0.48789305295E+02  0.00000000000E+00 0.  1.
          2   -1    0    0  504    0 -0.00000000000E+00 -0.00000000000E+00 -0.36592173042E+04  0.36592173042E+04  0.00000000000E+00 0. -1.
         21    1    1    2  503  505 -0.39707816111E+01 -0.17547533570E+03 -0.17738773536E+03  0.24954712822E+03  0.00000000000E+00 0.  1.
         21    1    1    2  504  502  0.11152947483E+02  0.56164589377E+02 -0.41082498610E+03  0.41479635791E+03  0.00000000000E+00 0. -1.
         21    1    1    2  505  501 -0.46233472554E+02 -0.29649118802E+02 -0.77854995223E+02  0.95278562706E+02  0.00000000000E+00 0.  1.
          2    1    1    2  501    0  0.39051306681E+02  0.14895986513E+03 -0.29443602822E+04  0.29483845607E+04  0.00000000000E+00 0. -1.
<scales pt_clust_3="53.53643" pt_clust_4="57.26124" pt_clust_5="53.53643" pt_clust_6="205.89200"></scales>
<clustering>
<clus scale="   53.536">  3  5 -1 -1</clus>
<clus scale="   57.261">  2  4  1 -1</clus>
<clus scale="  205.892">  2  6  1 -1</clus>
<clus scale="  227.048">  1  3  2 -1</clus>
</clustering>
</event>
<event>
 6    0  0.1849053E+002  0.2516775E+03  0.7546771E-02  0.1112249E+00
         -1   -1    0    0    0  501 -0.00000000000E+00  0.00000000000E+00  0.29917506957E+04  0.29917506957E+04  0.00000000000E+00 0.  1.
         21   -1    0    0  504  502  0.00000000000E+00 -0.00000000000E+00 -0.23074334165E+04  0.23074334165E+04  0.00000000000E+00 0. -1.
         21    1    1    2  503  502  0.11967632639E+03  0.23170558323E+03 -0.16857624664E+04  0.17058150525E+04  0.00000000000E+00 0. -1.
         21    1    1    2  504  505 -0.18329317469E+03 -0.15850413234E+03 -0.58212524696E+03  0.63054718380E+03  0.00000000000E+00 0. -1.
         21    1    1    2  505  501  0.53105946274E+02 -0.67087911878E+01  0.14111757394E+03  0.15092852310E+03  0.00000000000E+00 0. -1.
         -1    1    1    2    0  503  0.10510902026E+02 -0.66492659701E+02  0.28110874186E+04  0.28118933528E+04  0.00000000000E+00 0.  1.
<scales pt_clust_3="14000.00000" pt_clust_4="251.67754" pt_clust_5="53.52802" pt_clust_6="96.50317"></scales>
<clustering>
<clus scale="   53.528">  1  5  2 -1</clus>
<clus scale="   96.503">  1  6  2 -1</clus>
<clus scale="  251.678">  1  4  2 -1</clus>
<clus scale="  251.678">  2  3  1 -1</clus>
</clustering>
</event>
<event>
 6    0  0.1849053E+002  0.2146788E+03  0.7546771E-02  0.1137914E+00
         21   -1    0    0  504  502  0.00000000000E+00  0.00000000000E+00  0.32448799575E+03  0.32448799575E+03  0.00000000000E+00 0. -1.
          1   -1    0    0  503    0 -0.00000000000E+00 -0.00000000000E+00 -0.23363154982E+04  0.23363154982E+04  0.00000000000E+00 0.  1.
         21    1    1    2  503  505  0.25304173767E+01 -0.35449121979E+02 -0.71898275352E+02  0.80202277148E+02  0.00000000000E+00 0.  1.
         21    1    1    2  504  501  0.71416142671E+02 -0.37723069472E+01  0.49169272723E+02  0.86787747486E+02  0.00000000000E+00 0.  1.
         21    1    1    2  505  502  0.98699373011E+02  0.13861277255E+03  0.21866921572E+03  0.27707633037E+03  0.00000000000E+00 0. -1.
          1    1    1    2  501    0 -0.17264593306E+03 -0.99391343622E+02 -0.22077677155E+04  0.22167371389E+04  0.00000000000E+00 0.  1.
<scales pt_clust_3="35.53932" pt_clust_4="71.55289" pt_clust_5="214.67882" pt_clust_6="14000.00000"></scales>
<clustering>
<clus scale="   35.539">  2  3  1 -1</clus>
<clus scale="   71.553">  1  4  2 -1</clus>
<clus scale="  214.679">  1  5  2 -1</clus>
<clus scale="   71.553">  1  3  2 -1</clus>
</clustering>
</event>
<event>
 6    0  0.1849053E+002  0.1052539E+03  0.7546771E-02  0.1269620E+00
          2   -1    0    0  504    0 -0.00000000000E+00  0.00000000000E+00  0.11202792773E+04  0.11202792773E+04  0.00000000000E+00 0. -1.
         21   -1    0    0  505  502  0.00000000000E+00 -0.00000000000E+00 -0.45192439746E+03  0.45192439746E+03  0.00000000000E+00 0.  1.
         21    1    1    2  503  502 -0.47987370321E+01  0.15810677568E+03 -0.33753845946E+03  0.37276398969E+03  0.00000000000E+00 0.  1.
         21    1    1    2  504  503 -0.36388447480E+02 -0.32981157995E+02  0.33096683591E+02  0.59222177919E+02  0.00000000000E+00 0.  1.
         21    1    1    2  505  501  0.32409246498E+02 -0.57456989699E+02 -0.69423014197E+02  0.95766485912E+02  0.00000000000E+00 0. -1.
          2    1    1    2  501    0  0.87779380144E+01 -0.67668627981E+02  0.10422196699E+04  0.10444510212E+04  0.00000000000E+00 0. -1.
<scales pt_clust_3="105.25392" pt_clust_4="49.11085" pt_clust_5="66.10280" pt_clust_6="14000.00000"></scales>
<clustering>
<clus scale="   49.111">  1  4  2 -1</clus>
<clus scale="   66.103">  2  5  1 -1</clus>
<clus scale="  105.254">  2  3  1 -1</clus>
<clus scale="   66.103">  2  3  1 -1</clus>
</clustering>
</event>
<event>
 6    0  0.1849053E+002  0.1830701E+03  0.7546771E-02  0.1164864E+00
         21   -1    0    0  505  502  0.00000000000E+00  0.00000000000E+00  0.24997302164E+03  0.24997302164E+03  0.00000000000E+00 0.  1.
          2   -1    0    0  503    0 -0.00000000000E+00 -0.00000000000E+00 -0.82722706935E+03  0.82722706935E+03  0.00000000000E+00 0. -1.
         21    1    1    2  503  502  0.29058019592E+02  0.19984925286E+02 -0.73880953454E+02  0.81866727213E+02  0.00000000000E+00 0.  1.
         21    1    1    2  504  501 -0.65428920470E+02  0.29564042860E+02  0.82866439054E+02  0.10964407410E+03  0.00000000000E+00 0.  1.
         21    1    1    2  505  504 -0.10733677025E+03 -0.33730262322E+02  0.12017988699E+03  0.16462720942E+03  0.00000000000E+00 0.  1.
          2    1    1    2  501    0  0.14370767113E+03 -0.15818705824E+02 -0.70641942030E+03  0.72106208025E+03  0.00000000000E+00 0. -1.
<scales pt_clust_3="35.26706" pt_clust_4="51.46015" pt_clust_5="51.46015" pt_clust_6="171.41491"></scales>
<clustering>
<clus scale="   35.267">  2  3  1 -1</clus>
<clus scale="   51.460">  4  5 -1 -1</clus>
<clus scale="  171.415">  2  6  1 -1</clus>
<clus scale="  183.070">  1  3  2 -1</clus>
</clustering>
</event>
<event>
 6    0  0.1849053E+002  0.8070408E+02  0.7546771E-02  0.1327065E+00
          1   -1    0    0  504    0 -0.00000000000E+00  0.00000000000E+00  0.36809036698E+03  0.36809036698E+03  0.00000000000E+00 0. -1.
         21   -1    0    0  505  502  0.00000000000E+00 -0.00000000000E+00 -0.94299083386E+03  0.94299083386E+03  0.00000000000E+00 0.  1.
         21    1    1    2  503  502  0.46311110380E+02 -0.76150071494E+01 -0.76428348768E+02  0.89688348039E+02  0.00000000000E+00 0.  1.
         21    1    1    2  504  503  0.52690885063E+02 -0.48849700850E+02  0.97168499357E-02  0.71851393419E+02  0.00000000000E+00 0.  1.
         21    1    1    2  505  501 -0.13005363475E+03  0.10218936407E+02 -0.81641169759E+03  0.82676867050E+03  0.00000000000E+00 0.  1.
          1    1    1    2  501    0  0.31051639308E+02  0.46245771592E+02  0.31792986262E+03  0.32277278888E+03  0.00000000000E+00 0. -1.
<scales pt_clust_3="46.93301" pt_clust_4="14000.00000" pt_clust_5="80.70408" pt_clust_6="55.75848"></scales>
<clustering>
<clus scale="   46.933">  2  3  1 -1</clus>
<clus scale="   55.758">  1  6  2 -1</clus>
<clus scale="   80.704">  2  5  1 -1</clus>
<clus scale="   46.933">  2  3  1 -1</clus>
</clustering>
</event>
<event>
 6    0  0.1849053E+002  0.1270931E+03  0.7546771E-02  0.1231834E+00
         21   -1    0    0  504  502  0.00000000000E+00  0.00000000000E+00  0.22016164163E+03  0.22016164163E+03  0.00000000000E+00 0. -1.
          2   -1    0    0  503    0 -0.00000000000E+00 -0.00000000000E+00 -0.11334918655E+04  0.11334918655E+04  0.00000000000E+00 0. -1.
         21    1    1    2  503  502  0.62713454711E+02  0.53494848993E+02 -0.39992716799E+03  0.40833370663E+03  0.00000000000E+00 0. -1.
         21    1    1    2  504  505  0.10926626480E+03  0.53297095927E+02  0.15593800997E+03  0.19772799501E+03  0.00000000000E+00 0. -1.
         21    1    1    2  505  501 -0.15875236308E+03 -0.14485449662E+03 -0.26473212254E+03  0.34098128200E+03  0.00000000000E+00 0. -1.
          2    1    1    2  501    0 -0.13227356436E+02  0.38062551696E+02 -0.40460894330E+03  0.40661052347E+03  0.00000000000E+00 0. -1.
<scales pt_clust_3="92.92508" pt_clust_4="127.09309" pt_clust_5="14000.00000" pt_clust_6="40.29542"></scales>
<clustering>
<clus scale="   40.295">  2  6  1 -1</clus>
<clus scale="   92.925">  2  3  1 -1</clus>
<clus scale="  127.093">  1  4  2 -1</clus>
<clus scale="  127.093">  1  3  2 -1</clus>
</clustering>
</event>
<event>
 6    0  0.1849053E+002  0.2477909E+03  0.7546771E-02  0.1114709E+00
         21   -1    0    0  505  502  0.00000000000E+00  0.00000000000E+00  0.24282568774E+03  0.24282568774E+03  0.00000000000E+00 0.  1.
          1   -1    0    0  504    0 -0.00000000000E+00 -0.00000000000E+00 -0.82057331632E+03  0.82057331632E+03  0.00000000000E+00 0.  1.
         21    1    1    2  503  501  0.53340002564E+02 -0.19628361259E+03 -0.23878063853E+01  0.20341611063E+03  0.00000000000E+00 0.  1.
         21    1    1    2  504  502  0.78377451103E+02  0.33808086684E+02 -0.15386707527E+03  0.17595763245E+03  0.00000000000E+00 0.  1.
         21    1    1    2  505  503  0.49897348064E+00 -0.68294133476E+02  0.86744989133E+02  0.11040394369E+03  0.00000000000E+00 0.  1.
          1    1    1    2  501    0 -0.13221642715E+03  0.23076965938E+03 -0.50823773606E+03  0.57362131729E+03  0.00000000000E+00 0.  1.
<scales pt_clust_3="247.79089" pt_clust_4="83.46116" pt_clust_5="68.29596" pt_clust_6="14000.00000"></scales>
<clustering>
<clus scale="   68.296">  1  5  2 -1</clus>
<clus scale="   83.461">  2  4  1 -1</clus>
<clus scale="  247.791">  1  3  2 -1</clus>
<clus scale="   68.296">  1  3  2 -1</clus>
</clustering>
</event>
<event>
 6    0  0.1849053E+002  0.1136341E+03  0.7546771E-02  0.1253984E+00
         21   -1    0    0  505  502  0.00000000000E+00  0.00000000000E+00  0.59621245732E+02  0.59621245732E+02  0.00000000000E+00 0.  1.
          3   -1    0    0  504    0 -0.00000000000E+00 -0.00000000000E+00 -0.13398415454E+04  0.13398415454E+04  0.00000000000E+00 0.  1.
         21    1    1    2  503  502 -0.36786710581E+02  0.20994622209E+02 -0.19549626366E+02  0.46650017451E+02  0.00000000000E+00 0.  1.
         21    1    1    2  504  503  0.26439421119E+02  0.11272498265E+03 -0.49358671895E+02  0.12586597314E+03  0.00000000000E+00 0.  1.
         21    1    1    2  505  501  0.46096886766E+02 -0.25997162062E+02 -0.14050383871E+03  0.15014028140E+03  0.00000000000E+00 0. -1.
          3    1    1    2  501    0 -0.35749597304E+02 -0.10772244280E+03 -0.10708081627E+04  0.10768065192E+04  0.00000000000E+00 0.  1.
<scales pt_clust_3="42.35606" pt_clust_4="14000.00000" pt_clust_5="48.49272" pt_clust_6="113.63410"></scales>
<clustering>
<clus scale="   42.356">  1  3  2 -1</clus>
<clus scale="   48.493">  1  5  2 -1</clus>
<clus scale="  113.634">  2  6  1 -1</clus>
<clus scale="   42.356">  1  3  2 -1</clus>
</clustering>
</event>
<event>
 6    0  0.1849053E+002  0.1950995E+03  0.7546771E-02  0.1153941E+00
          2   -1    0    0  504    0 -0.00000000000E+00  0.00000000000E+00  0.11056946747E+04  0.11056946747E+04  0.00000000000E+00 0.  1.
         21   -1    0    0  505  502  0.00000000000E+00 -0.00000000000E+00 -0.14480699164E+03  0.14480699164E+03  0.00000000000E+00 0.  1.
         21    1    1    2  503  501 -0.68286832160E+01  0.86366255432E+02  0.47606508704E+03  0.48388400273E+03  0.00000000000E+00 0. -1.
         21    1    1    2  504  502 -0.52098483210E+02 -0.40525546412E+00  0.10705587320E+02  0.53188586977E+02  0.00000000000E+00 0. -1.
         21    1    1    2  505  503  0.23061004437E+02 -0.18833766767E+03 -0.34946866367E+02  0.19293566403E+03  0.00000000000E+00 0.  1.
          2    1    1    2  501    0  0.35866161988E+02  0.10237666770E+03  0.50906387505E+03  0.52049341259E+03  0.00000000000E+00 0.  1.
<scales pt_clust_3="38.20759" pt_clust_4="52.10006" pt_clust_5="190.35745" pt_clust_6="38.20759"></scales>
<clustering>
<clus scale="   38.208">  3  6 -1 -1</clus>
<clus scale="   52.100">  2  4  1 -1</clus>
<clus scale="  190.357">  2  5  1 -1</clus>
<clus scale="   52.100">  2  3  1 -1</clus>
</clustering>
</event>
<event>
 6    0  0.1849053E+002  0.7126699E+02  0.7546771E-02  0.1355837E+00
          1   -1    0    0  505    0 -0.00000000000E+00  0.00000000000E+00  0.17752492508E+04  0.17752492508E+04  0.00000000000E+00 0.  1.
         21   -1    0    0  504  502  0.00000000000E+00 -0.00000000000E+00 -0.73657389464E+03  0.73657389464E+03  0.00000000000E+00 0.  1.
         21    1    1    2  503  502 -0.78451215274E+02 -0.20874658938E+02 -0.31817805099E+03  0.32837115692E+03  0.00000000000E+00 0.  1.
         21    1    1    2  504  501  0.17876230672E+02  0.58806163360E+02 -0.40919790844E+03  0.41378817376E+03  0.00000000000E+00 0.  1.
         21    1    1    2  505  503  0.31715360637E+02  0.26620573384E+02  0.76355162615E+03  0.76467352827E+03  0.00000000000E+00 0.  1.
          1    1    1    2  501    0  0.28859623965E+02 -0.64552077806E+02  0.10024996894E+04  0.10049902865E+04  0.00000000000E+00 0.  1.
<scales pt_clust_3="71.26699" pt_clust_4="61.54197" pt_clust_5="41.40675" pt_clust_6="14000.00000"></scales>
<clustering>
<clus scale="   41.407">  1  5  2 -1</clus>
<clus scale="   61.542">  2  4  1 -1</clus>
<clus scale="   71.267">  2  3  1 -1</clus>
<clus scale="   61.542">  2  3  1 -1</clus>
</clustering>
</event>
<event>
 6    0  0.1849053E+002  0.1196544E+03  0.7546771E-02  0.1243668E+00
          1   -1    0    0  504    0 -0.00000000000E+00  0.00000000000E+00  0.31940470284E+03  0.31940470284E+03  0.00000000000E+00 0.  1.
         21   -1    0    0  505  502  0.00000000000E+00 -0.00000000000E+00 -0.59414000415E+03  0.59414000415E+03  0.00000000000E+00 0. -1.
         21    1    1    2  503  502 -0.22362406991E+02  0.23624563477E+02 -0.74114341538E+02  0.80939068857E+02  0.00000000000E+00 0.  1.
         21    1    1    2  504  503  0.42486093374E+02 -0.12288432172E+02  0.64418128816E+02  0.78139420369E+02  0.00000000000E+00 0.  1.
         21    1    1    2  505  501  0.11348891026E+02  0.97195920951E+02 -0.49162261755E+03  0.50126703708E+03  0.00000000000E+00 0. -1.
          1    1    1    2  501    0 -0.31472577408E+02 -0.10853205226E+03  0.22658352897E+03  0.25319918068E+03  0.00000000000E+00 0.  1.
<scales pt_clust_3="32.52994" pt_clust_4="43.85562" pt_clust_5="119.65439" pt_clust_6="14000.00000"></scales>
<clustering>
<clus scale="   32.530">  2  3  1 -1</clus>
<clus scale="   43.856">  1  4  2 -1</clus>
<clus scale="  119.654">  2  5  1 -1</clus>
<clus scale="   32.530">  2  3  1 -1</clus>
</clustering>
</event>
<event>
 6    0  0.1849053E+002  0.1807291E+03  0.7546771E-02  0.1167099E+00
         21   -1    0    0  503  502  0.00000000000E+00  0.00000000000E+00  0.62952626395E+03  0.62952626395E+03  0.00000000000E+00 0.  1.
         -4   -1    0    0    0  501 -0.00000000000E+00 -0.00000000000E+00 -0.66930848517E+03  0.66930848517E+03  0.00000000000E+00 0.  1.
         21    1    1    2  503  501  0.66711899492E+02  0.14481965462E+03 -0.55005739980E+02  0.16866784320E+03  0.00000000000E+00 0. -1.
         21    1    1    2  504  505  0.59550515508E+02 -0.47609956873E+02  0.42517815825E+03  0.43195999600E+03  0.00000000000E+00 0.  1.
         21    1    1    2  505  502  0.42788930429E+02 -0.10139205603E+01  0.12333683843E+03  0.13055227427E+03  0.00000000000E+00 0. -1.
         -4    1    1    2    0  504 -0.16905134543E+03 -0.96195777190E+02 -0.53329147793E+03  0.56765463565E+03  0.00000000000E+00 0.  1.
<scales pt_clust_3="14000.00000" pt_clust_4="124.70506" pt_clust_5="39.03092" pt_clust_6="180.72912"></scales>
<clustering>
<clus scale="   39.031">  4  5 -1 -1</clus>
<clus scale="  124.705">  1  4  2 -1</clus>
<clus scale="  180.729">  2  6  1 -1</clus>
<clus scale="  124.705">  1  3  2 -1</clus>
</clustering>
</event>
<event>
 6    0  0.1849053E+002  0.1008953E+03  0.7546771E-02  0.1278424E+00
         21   -1    0    0  504  502  0.00000000000E+00  0.00000000000E+00  0.10940727101E+02  0.10940727101E+02  0.00000000000E+00 0. -1.
          2   -1    0    0  505    0 -0.00000000000E+00 -0.00000000000E+00 -0.28456341920E+04  0.28456341920E+04  0.00000000000E+00 0.  1.
         21    1    1    2  503  502 -0.73691117866E+02 -0.21939541474E+02 -0.84834150003E+03  0.85181865735E+03  0.00000000000E+00 0. -1.
         21    1    1    2  504  501  0.10063241002E+03 -0.40736711348E+02 -0.43846582366E+03  0.45170636492E+03  0.00000000000E+00 0. -1.
         21    1    1    2  505  503  0.23638370745E+02 -0.18562257904E+02 -0.44891504117E+03  0.44992004198E+03  0.00000000000E+00 0. -1.
          2    1    1    2  501    0 -0.50579662900E+02  0.81238510726E+02 -0.10989711000E+04  0.11031298548E+04  0.00000000000E+00 0.  1.
<scales pt_clust_3="71.26307" pt_clust_4="100.89534" pt_clust_5="30.05545" pt_clust_6="14000.00000"></scales>
<clustering>
<clus scale="   30.055">  2  5  1 -1</clus>
<clus scale="   71.263">  2  3  1 -1</clus>
<clus scale="  100.895">  1  4  2 -1</clus>
<clus scale="  100.895">  1  3  2 -1</clus>
</clustering>
</event>
<event>
 6    0  0.1849053E+002  0.1504452E+03  0.7546771E-02  0.1199927E+00
          1   -1    0    0  502    0 -0.00000000000E+00  0.00000000000E+00  0.97771858590E+03  0.97771858590E+03  0.00000000000E+00 0. -1.
         21   -1    0    0  503  502  0.00000000000E+00 -0.00000000000E+00 -0.83047239108E+02  0.83047239108E+02  0.00000000000E+00 0.  1.
         21    1    1    2  503  505  0.72854158733E+02 -0.11826493613E+02 -0.12018747390E+02  0.74779975158E+02  0.00000000000E+00 0.  1.
         21    1    1    2  504  501 -0.40408955142E+02  0.30777191155E+02  0.19727182260E+03  0.20370638464E+03  0.00000000000E+00 0.  1.
         21    1    1    2  505  504  0.55917460270E+02 -0.45960148095E+02  0.57926803351E+01  0.72613034102E+02  0.00000000000E+00 0.  1.
          1    1    1    2  501    0 -0.88362663861E+02  0.27009450554E+02  0.70362559124E+03  0.70966643110E+03  0.00000000000E+00 0. -1.
<scales pt_clust_3="147.26145" pt_clust_4="38.61433" pt_clust_5="41.59824" pt_clust_6="38.61433"></scales>
<clustering>
<clus scale="   38.614">  4  6 -1 -1</clus>
<clus scale="   41.598">  3  5 -1 -1</clus>
<clus scale="  147.261">  2  3  1 -1</clus>
<clus scale="  147.261">  2  3  1 -1</clus>
</clustering>
</event>
<event>
 6    0  0.1849053E+002  0.3392539E+03  0.7546771E-02  0.1067114E+00
         21   -1    0    0  505  502  0.00000000000E+00  0.00000000000E+00  0.24044802029E+04  0.24044802029E+04  0.00000000000E+00 0. -1.
         -4   -1    0    0    0  501 -0.00000000000E+00 -0.00000000000E+00 -0.48656380063E+03  0.48656380063E+03  0.00000000000E+00 0.  1.
         21    1    1    2  503  504  0.16470998838E+03 -0.15214335769E+03  0.36813327575E+03  0.43104418599E+03  0.00000000000E+00 0. -1.
         21    1    1    2  504  501 -0.15471084231E+03 -0.69367382950E+02 -0.89198303342E+02  0.19158187770E+03  0.00000000000E+00 0.  1.
         21    1    1    2  505  503  0.19948037523E+03 -0.33615157779E+02  0.18601185689E+04  0.18710861791E+04  0.00000000000E+00 0. -1.
         -4    1    1    2    0  502 -0.20947952130E+03  0.25512589842E+03 -0.22113713905E+03  0.39733176082E+03  0.00000000000E+00 0.  1.
<scales pt_clust_3="339.25394" pt_clust_4="169.55022" pt_clust_5="200.06428" pt_clust_6="14000.00000"></scales>
<clustering>
<clus scale="  169.550">  2  4  1 -1</clus>
<clus scale="  200.064">  1  5  2 -1</clus>
<clus scale="  339.254">  1  3  2 -1</clus>
<clus scale="  200.064">  1  3  2 -1</clus>
</clustering>
</event>
<event>
 6    0  0.2616728E+002  0.8660955E+02  0.7546771E-02  0.1311276E+00
          2   -1    0    0  504    0 -0.00000000000E+00  0.00000000000E+00  0.13345361235E+04  0.13345361235E+04  0.00000000000E+00 0.  1.
         21   -1    0    0  503  502  0.00000000000E+00 -0.00000000000E+00 -0.11805141374E+03  0.11805141374E+03  0.00000000000E+00 0.  1.
         21    1    1    2  503  501  0.14021595086E+02  0.27611874291E+02  0.47118381455E+02  0.56384063365E+02  0.00000000000E+00 0. -1.
         21    1    1    2  504  505  0.29356633617E+02 -0.18385580096E+02  0.93303620235E+02  0.99525911409E+02  0.00000000000E+00 0. -1.
         21    1    1    2  505  502 -0.92305373518E+02 -0.64932250789E+02 -0.79939824047E+02  0.13829987217E+03  0.00000000000E+00 0.  1.
          2    1    1    2  501    0  0.48927144815E+02  0.55705956595E+02  0.11560025321E+04  0.11583776903E+04  0.00000000000E+00 0.  1.
<scales pt_clust_3="30.96806" pt_clust_4="34.57303" pt_clust_5="14000.00000" pt_clust_6="86.60955"></scales>
<clustering>
<clus scale="   30.968">  2  3  1 -1</clus>
<clus scale="   34.573">  1  4  2 -1</clus>
<clus scale="   86.610">  1  6  2 -1</clus>
<clus scale="   30.968">  2  3  1 -1</clus>
</clustering>
</event>
<event>
 6    0  0.1849053E+002  0.1081642E+03  0.7546771E-02  0.1264008E+00
         21   -1    0    0  501  502  0.00000000000E+00  0.00000000000E+00  0.13480136291E+02  0.13480136291E+02  0.00000000000E+00 0.  1.
          2   -1    0    0  505    0 -0.00000000000E+00 -0.00000000000E+00 -0.29366466154E+04  0.29366466154E+04  0.00000000000E+00 0.  1.
         21    1    1    2  503  502 -0.10556595037E+03  0.13637773737E+02 -0.32549790936E+03  0.34246028638E+03  0.00000000000E+00 0.  1.
         21    1    1    2  504  503  0.38039771622E+02  0.47889113781E+02 -0.10389915564E+04  0.10407900104E+04  0.00000000000E+00 0. -1.
         21    1    1    2  505  504 -0.39405119694E+02 -0.12463412122E+02 -0.49123425603E+03  0.49296977027E+03  0.00000000000E+00 0.  1.
          2    1    1    2  501    0  0.10693129844E+03 -0.49063475396E+02 -0.10674427574E+04  0.10739066847E+04  0.00000000000E+00 0.  1.
<scales pt_clust_3="108.16420" pt_clust_4="47.60664" pt_clust_5="41.32917" pt_clust_6="14000.00000"></scales>
<clustering>
<clus scale="   41.329">  2  5  1 -1</clus>
<clus scale="   47.607">  2  4  1 -1</clus>
<clus scale="  108.164">  1  3  2 -1</clus>
<clus scale="  108.164">  1  3  2 -1</clus>
</clustering>
</event>
<event>
 6    0  0.1849053E+002  0.1322646E+03  0.7546771E-02  0.1224134E+00
         21   -1    0    0  504  502  0.00000000000E+00  0.00000000000E+00  0.80538342848E+01  0.80538342848E+01  0.00000000000E+00 0. -1.
          2   -1    0    0  505    0 -0.00000000000E+00 -0.00000000000E+00 -0.34384244727E+04  0.34384244727E+04  0.00000000000E+00 0. -1.
         21    1    1    2  503  501  0.25980697833E+02 -0.18809755121E+02 -0.34212010930E+03  0.34362039045E+03  0.00000000000E+00 0.  1.
         21    1    1    2  504  503  0.71720875468E+02 -0.61578367200E+02 -0.40492289465E+03  0.41581044948E+03  0.00000000000E+00 0. -1.
         21    1    1    2  505  502 -0.32183441574E+00  0.30066232318E+02 -0.42582186354E+03  0.42688211649E+03  0.00000000000E+00 0. -1.
          2    1    1    2  501    0 -0.97379738885E+02  0.50321890003E+02 -0.22575057710E+04  0.22601653506E+04  0.00000000000E+00 0. -1.
<scales pt_clust_3="30.00951" pt_clust_4="30.00951" pt_clust_5="30.06795" pt_clust_6="121.81882"></scales>
<clustering>
<clus scale="   30.010">  3  4 -1 -1</clus>
<clus scale="   30.068">  2  5  1 -1</clus>
<clus scale="  121.819">  2  6  1 -1</clus>
<clus scale="  132.265">  1  3  2 -1</clus>
</clustering>
</event>
<event>
 6    0  0.1849053E+002  0.1634637E+03  0.7546771E-02  0.1184841E+00
         21   -1    0    0  505  502  0.00000000000E+00  0.00000000000E+00  0.22012100484E+03  0.22012100484E+03  0.00000000000E+00 0.  1.
          1   -1    0    0  504    0 -0.00000000000E+00 -0.00000000000E+00 -0.80742357642E+03  0.80742357642E+03  0.00000000000E+00 0. -1.
         21    1    1    2  503  501 -0.73679498405E+01  0.98477496056E+02  0.14385482779E+03  0.17448872569E+03  0.00000000000E+00 0.  1.
         21    1    1    2  504  502 -0.29282475345E+02 -0.11275701861E+02 -0.17850106105E+03  0.18123805784E+03  0.00000000000E+00 0.  1.
         21    1    1    2  505  503  0.36876197863E+02  0.45837241143E+02  0.35561606607E+02  0.68742523295E+02  0.00000000000E+00 0.  1.
          1    1    1    2  501    0 -0.22577267787E+00 -0.13303903534E+03 -0.58821794493E+03  0.60307527444E+03  0.00000000000E+00 0. -1.
<scales pt_clust_3="55.77022" pt_clust_4="31.37841" pt_clust_5="55.77022" pt_clust_6="146.44687"></scales>
<clustering>
<clus scale="   31.378">  2  4  1 -1</clus>
<clus scale="   55.770">  3  5 -1 -1</clus>
<clus scale="  146.447">  2  6  1 -1</clus>
<clus scale="  163.464">  1  3  2 -1</clus>
</clustering>
</event>
<event>
 6    0  0.1849053E+002  0.1318038E+03  0.7546771E-02  0.1224804E+00
         21   -1    0    0  504  502  0.00000000000E+00  0.00000000000E+00  0.95206999604E+03  0.95206999604E+03  0.00000000000E+00 0. -1.
          2   -1    0    0  505    0 -0.00000000000E+00 -0.00000000000E+00 -0.38768129143E+04  0.38768129143E+04  0.00000000000E+00 0. -1.
         21    1    1    2  503  501  0.50753698935E+02  0.46235662104E+02 -0.15260415400E+04  0.15275851715E+04  0.00000000000E+00 0. -1.
         21    1    1    2  504  503 -0.10054841895E+03 -0.47264075765E+02  0.92568271343E+03  0.93232631806E+03  0.00000000000E+00 0. -1.
         21    1    1    2  505  502  0.26951940926E+01 -0.31835358628E+02  0.10309602546E+02  0.33571446719E+02  0.00000000000E+00 0.  1.
          2    1    1    2  501    0  0.47099525925E+02  0.32863772289E+02 -0.23346936943E+04  0.23353999741E+04  0.00000000000E+00 0. -1.
<scales pt_clust_3="35.96069" pt_clust_4="125.80351" pt_clust_5="31.94924" pt_clust_6="35.96069"></scales>
<clustering>
<clus scale="   31.949">  1  5  2 -1</clus>
<clus scale="   35.961">  3  6 -1 -1</clus>
<clus scale="  125.804">  1  4  2 -1</clus>
<clus scale="   31.949">  1  3  2 -1</clus>
</clustering>
</event>
<event>
 6    0  0.1849053E+002  0.9717279E+02  0.7546771E-02  0.1286356E+00
         21   -1    0    0  503  502  0.00000000000E+00  0.00000000000E+00  0.25788975648E+03  0.25788975648E+03  0.00000000000E+00 0. -1.
          2   -1    0    0  504    0 -0.00000000000E+00 -0.00000000000E+00 -0.27525630460E+03  0.27525630460E+03  0.00000000000E+00 0.  1.
         21    1    1    2  503  501 -0.17759089994E+02  0.54876076206E+02  0.16854311454E+03  0.17813913235E+03  0.00000000000E+00 0. -1.
         21    1    1    2  504  505  0.54364672313E+02 -0.86946734830E+02 -0.21186817641E+03  0.23537921843E+03  0.00000000000E+00 0.  1.
         21    1    1    2  505  502  0.14549257606E+02 -0.28570356141E+02  0.24376860689E+02  0.40276264523E+02  0.00000000000E+00 0.  1.
          2    1    1    2  501    0 -0.51154839926E+02  0.60641014765E+02  0.15816530602E+01  0.79351445771E+02  0.00000000000E+00 0.  1.
<scales pt_clust_3="33.57110" pt_clust_4="97.17279" pt_clust_5="32.06160" pt_clust_6="14000.00000"></scales>
<clustering>
<clus scale="   32.062">  1  5  2 -1</clus>
<clus scale="   33.571">  1  3  2 -1</clus>
<clus scale="   97.173">  2  4  1 -1</clus>
<clus scale="   32.062">  1  3  2 -1</clus>
</clustering>
</event>
<event>
 6    0  0.1849053E+002  0.7817878E+02  0.7546771E-02  0.1334301E+00
         21   -1    0    0  503  502  0.00000000000E+00  0.00000000000E+00  0.18488211193E+03  0.18488211193E+03  0.00000000000E+00 0. -1.
          2   -1    0    0  505    0 -0.00000000000E+00 -0.00000000000E+00 -0.12449759999E+04  0.12449759999E+04  0.00000000000E+00 0.  1.
         21    1    1    2  503  501  0.22832014212E+02 -0.68633816634E+02 -0.34606252262E+03  0.35354090459E+03  0.00000000000E+00 0.  1.
         21    1    1    2  504  502 -0.87555573911E+00  0.78419902238E+02  0.15528144928E+03  0.17396199630E+03  0.00000000000E+00 0. -1.
         21    1    1    2  505  504 -0.46925166196E+02  0.29467364707E+02 -0.32475586242E+02  0.64225855441E+02  0.00000000000E+00 0. -1.
          2    1    1    2  501    0  0.24968707723E+02 -0.39253450311E+02 -0.83683722842E+03  0.83812935552E+03  0.00000000000E+00 0.  1.
<scales pt_clust_3="78.17878" pt_clust_4="14000.00000" pt_clust_5="50.47998" pt_clust_6="46.52171"></scales>
<clustering>
<clus scale="   46.522">  2  6  1 -1</clus>
<clus scale="   50.480">  2  5  1 -1</clus>
<clus scale="   78.179">  2  3  1 -1</clus>
<clus scale="   78.179">  1  3  2 -1</clus>
</clustering>
</event>
<event>
 6    0  0.1849053E+002  0.1309168E+03  0.7546771E-02  0.1226102E+00
          2   -1    0    0  503    0 -0.00000000000E+00  0.00000000000E+00  0.16603629542E+04  0.16603629542E+04  0.00000000000E+00 0. -1.
         21   -1    0    0  505  502  0.00000000000E+00 -0.00000000000E+00 -0.34706183395E+02  0.34706183395E+02  0.00000000000E+00 0.  1.
         21    1    1    2  503  502 -0.33102381158E+02  0.33388930486E+02  0.19741270640E+03  0.20293438587E+03  0.00000000000E+00 0.  1.
         21    1    1    2  504  501  0.21973385635E+01 -0.54938390944E+02  0.79461679288E+02  0.96629258362E+02  0.00000000000E+00 0.  1.
         21    1    1    2  505  504 -0.15855937426E+02 -0.70627740202E+02  0.40105934454E+02  0.82753697296E+02  0.00000000000E+00 0.  1.
          2    1    1    2  501    0  0.46760980020E+02  0.92177200660E+02  0.13086764507E+04  0.13127517961E+04  0.00000000000E+00 0. -1.
<scales pt_clust_3="47.01689" pt_clust_4="38.27242" pt_clust_5="38.27242" pt_clust_6="123.33203"></scales>
<clustering>
<clus scale="   38.272">  4  5 -1 -1</clus>
<clus scale="   47.017">  1  3  2 -1</clus>
<clus scale="  123.332">  1  6  2 -1</clus>
<clus scale="  130.917">  2  3  1 -1</clus>
</clustering>
</event>
<event>
 6    0  0.1849053E+002  0.1126176E+03  0.7546771E-02  0.1255798E+00
          2   -1    0    0  504    0 -0.00000000000E+00  0.00000000000E+00  0.57700497493E+03  0.57700497493E+03  0.00000000000E+00 0. -1.
         21   -1    0    0  505  502  0.00000000000E+00 -0.00000000000E+00 -0.12186195368E+03  0.12186195368E+03  0.00000000000E+00 0. -1.
         21    1    1    2  503  501 -0.69423912798E+02  0.19857205175E+02  0.56568311151E+02  0.91727651730E+02  0.00000000000E+00 0. -1.
         21    1    1    2  504  502  0.12321605106E+03  0.67265103449E+01  0.66935261868E+02  0.14038436687E+03  0.00000000000E+00 0. -1.
         21    1    1    2  505  503  0.48271350339E+02  0.18771180756E+02 -0.48251542552E+02  0.70786240536E+02  0.00000000000E+00 0. -1.
          2    1    1    2  501    0 -0.10206348860E+03 -0.45354896275E+02  0.37989099078E+03  0.39596866947E+03  0.00000000000E+00 0. -1.
<scales pt_clust_3="61.21719" pt_clust_4="14000.00000" pt_clust_5="51.79267" pt_clust_6="112.61762"></scales>
<clustering>
<clus scale="   51.793">  2  5  1 -1</clus>
<clus scale="   61.217">  2  3  1 -1</clus>
<clus scale="  112.618">  1  6  2 -1</clus>
<clus scale="   51.793">  2  3  1 -1</clus>
</clustering>
</event>
<event>
 6    0  0.1849053E+002  0.1266473E+03  0.7546771E-02  0.1232517E+00
         21   -1    0    0  504  502  0.00000000000E+00  0.00000000000E+00  0.79005759050E+03  0.79005759050E+03  0.00000000000E+00 0.  1.
         -4   -1    0    0    0  501 -0.00000000000E+00 -0.00000000000E+00 -0.11321045748E+03  0.11321045748E+03  0.00000000000E+00 0.  1.
         21    1    1    2  503  505  0.64410706188E+02  0.85431229349E+02  0.28240623388E+03  0.30199423001E+03  0.00000000000E+00 0.  1.
         21    1    1    2  504  501  0.44865326670E+02 -0.67266688866E+02  0.29953701243E+02  0.86226035433E+02  0.00000000000E+00 0. -1.
         21    1    1    2  505  502 -0.10638584529E+02  0.47568063749E+02  0.39063538858E+03  0.39366471392E+03  0.00000000000E+00 0. -1.
         -4    1    1    2    0  503 -0.98637448329E+02 -0.65732604232E+02 -0.26148190696E+02  0.12138306862E+03  0.00000000000E+00 0.  1.
<scales pt_clust_3="126.64727" pt_clust_4="74.26122" pt_clust_5="48.74321" pt_clust_6="14000.00000"></scales>
<clustering>
<clus scale="   48.743">  1  5  2 -1</clus>
<clus scale="   74.261">  2  4  1 -1</clus>
<clus scale="  126.647">  1  3  2 -1</clus>
<clus scale="   48.743">  1  3  2 -1</clus>
</clustering>
</event>
<event>
 6    0  0.1849053E+002  0.2647072E+03  0.7546771E-02  0.1104348E+00
         21   -1    0    0  505  502  0.00000000000E+00  0.00000000000E+00  0.40961524678E+02  0.40961524678E+02  0.00000000000E+00 0. -1.
          1   -1    0    0  503    0 -0.00000000000E+00 -0.00000000000E+00 -0.16751128756E+04  0.16751128756E+04  0.00000000000E+00 0.  1.
         21    1    1    2  503  504 -0.76727857285E+02 -0.92157802156E+02 -0.53569765216E+03  0.54895555295E+03  0.00000000000E+00 0. -1.
         21    1    1    2  504  502 -0.12441541993E+03 -0.33195663737E+02 -0.39824969067E+03  0.41854983565E+03  0.00000000000E+00 0. -1.
         21    1    1    2  505  501  0.10666794970E+03  0.84583121959E+01 -0.38116224082E+03  0.39589676479E+03  0.00000000000E+00 0.  1.
          1    1    1    2  501    0  0.94475327520E+02  0.11689515370E+03 -0.31904176732E+03  0.35267224694E+03  0.00000000000E+00 0.  1.
<scales pt_clust_3="84.33292" pt_clust_4="252.60451" pt_clust_5="99.46980" pt_clust_6="99.46980"></scales>
<clustering>
<clus scale="   84.333">  3  4 -1 -1</clus>
<clus scale="   99.470">  5  6 -1 -1</clus>
<clus scale="  252.605">  2  3  1 -1</clus>
<clus scale="  264.707">  1  3  2 -1</clus>
</clustering>
</event>
<event>
 6    0  0.1849053E+002  0.2301589E+03  0.7546771E-02  0.1126528E+00
          2   -1    0    0  503    0 -0.00000000000E+00  0.00000000000E+00  0.43877061549E+04  0.43877061549E+04  0.00000000000E+00 0.  1.
         21   -1    0    0  504  502  0.00000000000E+00 -0.00000000000E+00 -0.80203445761E+02  0.80203445761E+02  0.00000000000E+00 0.  1.
         21    1    1    2  503  505 -0.43324795888E+02  0.22162492856E+02  0.56871202566E+02  0.74850168401E+02  0.00000000000E+00 0. -1.
         21    1    1    2  504  501  0.20269538384E+03 -0.29583534202E+02  0.27248022778E+04  0.27324911815E+04  0.00000000000E+00 0.  1.
         21    1    1    2  505  502 -0.15376969173E+03  0.78290863213E+02  0.45390084732E+02  0.17842319678E+03  0.00000000000E+00 0.  1.
          2    1    1    2  501    0 -0.56008962238E+01 -0.70869821868E+02  0.14804391441E+04  0.14821450540E+04  0.00000000000E+00 0.  1.
<scales pt_clust_3="36.61203" pt_clust_4="219.59097" pt_clust_5="36.61203" pt_clust_6="71.09080"></scales>
<clustering>
<clus scale="   36.612">  3  5 -1 -1</clus>
<clus scale="   71.091">  1  6  2 -1</clus>
<clus scale="  219.591">  1  4  2 -1</clus>
<clus scale="  230.159">  2  3  1 -1</clus>
</clustering>
</event>
<event>
 6    0  0.1849053E+002  0.1548826E+03  0.7546771E-02  0.1194598E+00
          2   -1    0    0  503    0 -0.00000000000E+00  0.00000000000E+00  0.10744262156E+04  0.10744262156E+04  0.00000000000E+00 0.  1.
         21   -1    0    0  504  502  0.00000000000E+00 -0.00000000000E+00 -0.25947148333E+03  0.25947148333E+03  0.00000000000E+00 0.  1.
         21    1    1    2  503  502 -0.73786421052E+01  0.13937961938E+03  0.27910316300E+03  0.31205720350E+03  0.00000000000E+00 0.  1.
         21    1    1    2  504  505 -0.36973022964E+02 -0.39692908947E+02 -0.11768035809E+03  0.12958085556E+03  0.00000000000E+00 0.  1.
         21    1    1    2  505  501 -0.34175593761E+02 -0.89619427769E+02 -0.97673929527E+02  0.13689342406E+03  0.00000000000E+00 0.  1.
          2    1    1    2  501    0  0.78527258830E+02 -0.10067282663E+02  0.75120585692E+03  0.75536621584E+03  0.00000000000E+00 0.  1.
<scales pt_clust_3="145.40072" pt_clust_4="40.12841" pt_clust_5="40.12841" pt_clust_6="79.16995"></scales>
<clustering>
<clus scale="   40.128">  4  5 -1 -1</clus>
<clus scale="   79.170">  1  6  2 -1</clus>
<clus scale="  145.401">  1  3  2 -1</clus>
<clus scale="  154.883">  2  3  1 -1</clus>
</clustering>
</event>
<event>
 6    0  0.1849053E+002  0.1084126E+03  0.7546771E-02  0.1263538E+00
          1   -1    0    0  504    0 -0.00000000000E+00  0.00000000000E+00  0.67921348987E+03  0.67921348987E+03  0.00000000000E+00 0. -1.
         21   -1    0    0  505  502  0.00000000000E+00 -0.00000000000E+00 -0.34042913350E+03  0.34042913350E+03  0.00000000000E+00 0. -1.
         21    1    1    2  503  502 -0.39706095224E+02  0.10597161279E+02 -0.10179040760E+03  0.10977322490E+03  0.00000000000E+00 0. -1.
         21    1    1    2  504  503  0.20883281635E+01  0.33152301744E+02  0.28491227896E+02  0.43762841458E+02  0.00000000000E+00 0.  1.
         21    1    1    2  505  501 -0.17634787299E+02 -0.10419669626E+03 -0.21189033322E+03  0.23678144046E+03  0.00000000000E+00 0. -1.
          1    1    1    2  501    0  0.55252554359E+02  0.60447233240E+02  0.62397386929E+03  0.62932511656E+03  0.00000000000E+00 0. -1.
<scales pt_clust_3="41.13694" pt_clust_4="33.21801" pt_clust_5="14000.00000" pt_clust_6="108.41256"></scales>
<clustering>
<clus scale="   33.218">  1  4  2 -1</clus>
<clus scale="   41.137">  2  3  1 -1</clus>
<clus scale="  108.413">  1  6  2 -1</clus>
<clus scale="   41.137">  2  3  1 -1</clus>
</clustering>
</event>
<event>
 6    0  0.1849053E+002  0.2013216E+03  0.7546771E-02  0.1148629E+00
          1   -1    0    0  503    0 -0.00000000000E+00  0.00000000000E+00  0.12265798682E+03  0.12265798682E+03  0.00000000000E+00 0. -1.
         21   -1    0    0  504  502  0.00000000000E+00 -0.00000000000E+00 -0.10564718214E+04  0.10564718214E+04  0.00000000000E+00 0. -1.
         21    1    1    2  503  502 -0.89216252843E+02 -0.96850320570E+02 -0.37703917796E+03  0.39937208977E+03  0.00000000000E+00 0. -1.
         21    1    1    2  504  505  0.73481634673E+02 -0.10964517872E+03 -0.54620368409E+03  0.56192533344E+03  0.00000000000E+00 0. -1.
         21    1    1    2  505  501  0.40065642787E+02  0.89585171799E+02 -0.31596767973E+01  0.98187281741E+02  0.00000000000E+00 0. -1.
          1    1    1    2  501    0 -0.24331024617E+02  0.11691032749E+03 -0.74112957200E+01  0.11964510327E+03  0.00000000000E+00 0. -1.
<scales pt_clust_3="131.67963" pt_clust_4="189.94513" pt_clust_5="60.48187" pt_clust_6="60.48187"></scales>
<clustering>
<clus scale="   60.482">  5  6 -1 -1</clus>
<clus scale="  131.680">  2  3  1 -1</clus>
<clus scale="  189.945">  2  4  1 -1</clus>
<clus scale="  131.680">  2  3  1 -1</clus>
</clustering>
</event>
<event>
 6    0  0.1849053E+002  0.7500748E+02  0.7546771E-02  0.1343848E+00
         21   -1    0    0  503  502  0.00000000000E+00  0.00000000000E+00  0.29588902978E+03  0.29588902978E+03  0.00000000000E+00 0.  1.
         -1   -1    0    0    0  501 -0.00000000000E+00 -0.00000000000E+00 -0.24372478482E+04  0.24372478482E+04  0.00000000000E+00 0. -1.
         21    1    1    2  503  504 -0.33842775088E+02 -0.45864562788E+02  0.25905355233E+03  0.26525013576E+03  0.00000000000E+00 0.  1.
         21    1    1    2  504  501  0.54652666286E+02 -0.50446121103E+02 -0.17171018592E+03  0.18712592822E+03  0.00000000000E+00 0.  1.
         21    1    1    2  505  502 -0.37981421795E+02  0.20249870161E+02  0.70787428306E+01  0.43620571330E+02  0.00000000000E+00 0.  1.
         -1    1    1    2    0  505  0.17171530597E+02  0.76060813730E+02 -0.22357809277E+04  0.22371402427E+04  0.00000000000E+00 0. -1.
<scales pt_clust_3="75.00748" pt_clust_4="73.18975" pt_clust_5="43.04237" pt_clust_6="14000.00000"></scales>
<clustering>
<clus scale="   43.042">  1  5  2 -1</clus>
<clus scale="   73.190">  2  4  1 -1</clus>
<clus scale="   75.007">  1  3  2 -1</clus>
<clus scale="   43.042">  1  3  2 -1</clus>
</clustering>
</event>
<event>
 6    0  0.1849053E+002  0.1754083E+03  0.7546771E-02  0.1172322E+00
         21   -1    0    0  504  502  0.00000000000E+00  0.00000000000E+00  0.43091205069E+03  0.43091205069E+03  0.00000000000E+00 0.  1.
         -1   -1    0    0    0  501 -0.00000000000E+00 -0.00000000000E+00 -0.50232147088E+03  0.50232147088E+03  0.00000000000E+00 0.  1.
         21    1    1    2  503  501  0.19265891780E+02  0.23847668709E+02 -0.34985525877E+02  0.46517447370E+02  0.00000000000E+00 0.  1.
         21    1    1    2  504  503 -0.11976323089E+03  0.12655645502E+03  0.33984952628E+03  0.38191290668E+03  0.00000000000E+00 0.  1.
         21    1    1    2  505  502 -0.34511364171E+02 -0.41093443255E+02  0.31040043708E+02  0.61993464566E+02  0.00000000000E+00 0.  1.
         -1    1    1    2    0  505  0.13500870328E+03 -0.10931068047E+03 -0.40731346430E+03  0.44280970295E+03  0.00000000000E+00 0.  1.
<scales pt_clust_3="30.65756" pt_clust_4="175.40825" pt_clust_5="52.63511" pt_clust_6="14000.00000"></scales>
<clustering>
<clus scale="   30.658">  2  3  1 -1</clus>
<clus scale="   52.635">  1  5  2 -1</clus>
<clus scale="  175.408">  1  4  2 -1</clus>
<clus scale="   52.635">  1  3  2 -1</clus>
</clustering>
</event>
<event>
 6    0  0.1849053E+002  0.1409459E+03  0.7546771E-02  0.1212062E+00
         21   -1    0    0  504  502  0.00000000000E+00  0.00000000000E+00  0.59495769591E+02  0.59495769591E+02  0.00000000000E+00 0.  1.
          2   -1    0    0  505    0 -0.00000000000E+00 -0.00000000000E+00 -0.84591573871E+03  0.84591573871E+03  0.00000000000E+00 0. -1.
         21    1    1    2  503  501  0.17014515072E+02 -0.28697745258E+02 -0.18607928585E+03  0.18904643590E+03  0.00000000000E+00 0.  1.
         21    1    1    2  504  503 -0.63119027578E+02 -0.32825600995E+02 -0.19698118347E+02  0.73821051127E+02  0.00000000000E+00 0.  1.
         21    1    1    2  505  502 -0.71109168514E+02  0.74797594720E+02 -0.86937664856E+02  0.13494203049E+03  0.00000000000E+00 0.  1.
          2    1    1    2  501    0  0.11721368102E+03 -0.13274248467E+02 -0.49370490007E+03  0.50760199078E+03  0.00000000000E+00 0. -1.
<scales pt_clust_3="31.16257" pt_clust_4="71.14444" pt_clust_5="128.18779" pt_clust_6="31.16257"></scales>
<clustering>
<clus scale="   31.163">  3  6 -1 -1</clus>
<clus scale="   71.144">  1  4  2 -1</clus>
<clus scale="  128.188">  1  5  2 -1</clus>
<clus scale="   71.144">  1  3  2 -1</clus>
</clustering>
</event>
<event>
 6    0  0.1849053E+002  0.2383792E+03  0.7546771E-02  0.1120877E+00
          2   -1    0    0  504    0 -0.00000000000E+00  0.00000000000E+00  0.65368120258E+03  0.65368120258E+03  0.00000000000E+00 0.  1.
         21   -1    0    0  501  502  0.00000000000E+00 -0.00000000000E+00 -0.14103062672E+03  0.14103062672E+03  0.00000000000E+00 0.  1.
         21    1    1    2  503  502 -0.29194881463E+02 -0.33597470155E+02  0.10356691357E+02  0.45698929531E+02  0.00000000000E+00 0. -1.
         21    1    1    2  504  505 -0.11446175627E+03  0.84219694724E+02  0.22414941626E+03  0.26540047370E+03  0.00000000000E+00 0.  1.
         21    1    1    2  505  503 -0.82630585137E+02  0.37748841189E+02  0.21380730381E+03  0.23230659004E+03  0.00000000000E+00 0.  1.
          2    1    1    2  501    0  0.22628722287E+03 -0.88371065758E+02  0.64337164428E+02  0.25130583603E+03  0.00000000000E+00 0.  1.
<scales pt_clust_3="44.50990" pt_clust_4="37.36973" pt_clust_5="37.36973" pt_clust_6="233.75229"></scales>
<clustering>
<clus scale="   37.370">  4  5 -1 -1</clus>
<clus scale="   44.510">  2  3  1 -1</clus>
<clus scale="  233.752">  2  6  1 -1</clus>
<clus scale="   44.510">  2  3  1 -1</clus>
</clustering>
</event>
<event>
 6    0  0.1849053E+002  0.1039790E+03  0.7546771E-02  0.1272144E+00
          1   -1    0    0  505    0 -0.00000000000E+00  0.00000000000E+00  0.12255013179E+04  0.12255013179E+04  0.00000000000E+00 0.  1.
         21   -1    0    0  501  502  0.00000000000E+00 -0.00000000000E+00 -0.97270327789E+02  0.97270327789E+02  0.00000000000E+00 0.  1.
         21    1    1    2  503  502  0.54187897543E+02  0.22443470073E+02 -0.67832818923E+02  0.89673457121E+02  0.00000000000E+00 0.  1.
         21    1    1    2  504  503  0.63087913858E+02 -0.29884634390E+02  0.79785779090E+02  0.10601389905E+03  0.00000000000E+00 0.  1.
         21    1    1    2  505  504 -0.26673121312E+01 -0.31485790786E+02  0.15279206918E+03  0.15602527353E+03  0.00000000000E+00 0.  1.
          1    1    1    2  501    0 -0.11460849927E+03  0.38926955103E+02  0.96348596072E+03  0.97105901595E+03  0.00000000000E+00 0.  1.
<scales pt_clust_3="58.50457" pt_clust_4="103.97903" pt_clust_5="31.59857" pt_clust_6="14000.00000"></scales>
<clustering>
<clus scale="   31.599">  1  5  2 -1</clus>
<clus scale="   58.505">  2  3  1 -1</clus>
<clus scale="  103.979">  2  4  1 -1</clus>
<clus scale="   58.505">  2  3  1 -1</clus>
</clustering>
</event>
<event>
 6    0  0.1849053E+002  0.7312449E+02  0.7546771E-02  0.1349779E+00
         21   -1    0    0  505  502  0.00000000000E+00  0.00000000000E+00  0.48589573092E+03  0.48589573092E+03  0.00000000000E+00 0. -1.
          1   -1    0    0  504    0 -0.00000000000E+00 -0.00000000000E+00 -0.21841263692E+04  0.21841263692E+04  0.00000000000E+00 0. -1.
         21    1    1    2  503  502  0.43275391720E+02 -0.22053134922E+01  0.25847178325E+02  0.50454926057E+02  0.00000000000E+00 0.  1.
         21    1    1    2  504  503  0.45012181805E+02 -0.53355117279E+02 -0.34612955763E+03  0.35309847878E+03  0.00000000000E+00 0.  1.
         21    1    1    2  505  501  0.30855160482E+02  0.22545453526E+02  0.44133654681E+03  0.44298790724E+03  0.00000000000E+00 0. -1.
          1    1    1    2  501    0 -0.11914273401E+03  0.33014977245E+02 -0.18192848058E+04  0.18234807881E+04  0.00000000000E+00 0. -1.
<scales pt_clust_3="14000.00000" pt_clust_4="70.08399" pt_clust_5="38.21437" pt_clust_6="73.12449"></scales>
<clustering>
<clus scale="   38.214">  1  5  2 -1</clus>
<clus scale="   70.084">  2  4  1 -1</clus>
<clus scale="   73.124">  2  6  1 -1</clus>
<clus scale="   38.214">  1  3  2 -1</clus>
</clustering>
</event>
<event>
 6    0  0.1849053E+002  0.3251370E+03  0.7546771E-02  0.1073309E+00
         -1   -1    0    0    0  501 -0.00000000000E+00  0.00000000000E+00  0.74979121856E+02  0.74979121856E+02  0.00000000000E+00 0. -1.
         21   -1    0    0  503  502  0.00000000000E+00 -0.00000000000E+00 -0.18014603797E+04  0.18014603797E+04  0.00000000000E+00 0. -1.
         21    1    1    2  503  501  0.20343470629E+02  0.40128363295E+02 -0.22851301900E+02  0.50461117076E+02  0.00000000000E+00 0.  1.
         21    1    1    2  504  502 -0.15458317655E+03 -0.68658036497E+02 -0.63948107003E+03  0.66147254167E+03  0.00000000000E+00 0. -1.
         21    1    1    2  505  504 -0.14160547442E+03 -0.89462533373E+02 -0.46897202319E+03  0.49798635905E+03  0.00000000000E+00 0. -1.
         -1    1    1    2    0  505  0.27584518034E+03  0.11799220657E+03 -0.59517686277E+03  0.66651948382E+03  0.00000000000E+00 0. -1.
<scales pt_clust_3="44.99047" pt_clust_4="53.52612" pt_clust_5="53.52612" pt_clust_6="320.57331"></scales>
<clustering>
<clus scale="   44.990">  1  3  2 -1</clus>
<clus scale="   53.526">  4  5 -1 -1</clus>
<clus scale="  320.573">  1  6  2 -1</clus>
<clus scale="  325.137">  2  3  1 -1</clus>
</clustering>
</event>
<event>
 6    0  0.1849053E+002  0.6622365E+02  0.7546771E-02  0.1373427E+00
         21   -1    0    0  503  502  0.00000000000E+00  0.00000000000E+00  0.66973068179E+02  0.66973068179E+02  0.00000000000E+00 0.  1.
         -2   -1    0    0    0  501 -0.00000000000E+00 -0.00000000000E+00 -0.80850818790E+03  0.80850818790E+03  0.00000000000E+00 0. -1.
         21    1    1    2  503  505 -0.33766041985E+02 -0.10520334004E+02 -0.35228328501E+02  0.49918515081E+02  0.00000000000E+00 0.  1.
         21    1    1    2  504  502  0.60222364521E+02  0.63218384536E+02  0.15525077912E+02  0.88681031659E+02  0.00000000000E+00 0.  1.
         21    1    1    2  505  501  0.12624378872E+02  0.42248380130E+02 -0.17319197408E+03  0.17871698423E+03  0.00000000000E+00 0. -1.
         -2    1    1    2    0  504 -0.39080701408E+02 -0.94946430663E+02 -0.54863989505E+03  0.55816472511E+03  0.00000000000E+00 0. -1.
<scales pt_clust_3="35.36698" pt_clust_4="14000.00000" pt_clust_5="43.20074" pt_clust_6="66.22365"></scales>
<clustering>
<clus scale="   35.367">  1  3  2 -1</clus>
<clus scale="   43.201">  2  5  1 -1</clus>
<clus scale="   66.224">  2  6  1 -1</clus>
<clus scale="   35.367">  1  3  2 -1</clus>
</clustering>
</event>
<event>
 6    0  0.1849053E+002  0.1171701E+03  0.7546771E-02  0.1247840E+00
         -1   -1    0    0    0  501 -0.00000000000E+00  0.00000000000E+00  0.18372702796E+03  0.18372702796E+03  0.00000000000E+00 0.  1.
         21   -1    0    0  504  502  0.00000000000E+00 -0.00000000000E+00 -0.16223714313E+04  0.16223714313E+04  0.00000000000E+00 0. -1.
         21    1    1    2  503  505 -0.42234788393E+01  0.64139227554E+02 -0.62073587202E+03  0.62405504653E+03  0.00000000000E+00 0.  1.
         21    1    1    2  504  503 -0.28539482886E+02  0.37288397821E+02 -0.93508596947E+03  0.93626422392E+03  0.00000000000E+00 0. -1.
         21    1    1    2  505  501  0.83181086186E+02 -0.54724938608E+02 -0.11166824538E+02  0.10019286389E+03  0.00000000000E+00 0.  1.
         -1    1    1    2    0  502 -0.50418124460E+02 -0.46702686766E+02  0.12834426271E+03  0.14558632489E+03  0.00000000000E+00 0.  1.
<scales pt_clust_3="44.02898" pt_clust_4="44.02898" pt_clust_5="105.23868" pt_clust_6="68.72502"></scales>
<clustering>
<clus scale="   44.029">  3  4 -1 -1</clus>
<clus scale="   68.725">  1  6  2 -1</clus>
<clus scale="  105.239">  1  5  2 -1</clus>
<clus scale="  117.170">  2  3  1 -1</clus>
</clustering>
</event>
<event>
 6    0  0.1849053E+002  0.1234403E+03  0.7546771E-02  0.1237527E+00
         21   -1    0    0  503  502  0.00000000000E+00  0.00000000000E+00  0.25595467647E+03  0.25595467647E+03  0.00000000000E+00 0.  1.
         -3   -1    0    0    0  501 -0.00000000000E+00 -0.00000000000E+00 -0.12525746398E+03  0.12525746398E+03  0.00000000000E+00 0. -1.
         21    1    1    2  503  501 -0.42940836613E+02 -0.29780245666E+02 -0.87380686513E+01  0.52982377492E+02  0.00000000000E+00 0. -1.
         21    1    1    2  504  505  0.22762741778E+02  0.74180763787E+02  0.93592342001E+02  0.12157489301E+03  0.00000000000E+00 0.  1.
         21    1    1    2  505  502 -0.15191450967E+02  0.49027166039E+02  0.85050305140E+02  0.99337795409E+02  0.00000000000E+00 0.  1.
         -3    1    1    2    0  504  0.35369545802E+02 -0.93427684160E+02 -0.39207366001E+02  0.10731707453E+03  0.00000000000E+00 0. -1.
<scales pt_clust_3="52.25685" pt_clust_4="33.05386" pt_clust_5="33.05386" pt_clust_6="116.55820"></scales>
<clustering>
<clus scale="   33.054">  4  5 -1 -1</clus>
<clus scale="   52.257">  2  3  1 -1</clus>
<clus scale="  116.558">  2  6  1 -1</clus>
<clus scale="  123.440">  1  3  2 -1</clus>
</clustering>
</event>
<event>
 6    0  0.1849053E+002  0.1106831E+03  0.7546771E-02  0.1259310E+00
          2   -1    0    0  504    0 -0.00000000000E+00  0.00000000000E+00  0.13536910591E+04  0.13536910591E+04  0.00000000000E+00 0.  1.
         21   -1    0    0  505  502  0.00000000000E+00 -0.00000000000E+00 -0.36374593582E+02  0.36374593582E+02  0.00000000000E+00 0.  1.
         21    1    1    2  503  502  0.19271948898E+02  0.89595390136E+02  0.11862925322E+03  0.14990544242E+03  0.00000000000E+00 0.  1.
         21    1    1    2  504  503  0.38688140067E+02  0.28267858224E+02  0.24757927181E+03  0.25217323375E+03  0.00000000000E+00 0.  1.
         21    1    1    2  505  501 -0.73454129477E+02  0.16386736691E+02  0.94609041327E+02  0.12089212124E+03  0.00000000000E+00 0.  1.
          2    1    1    2  501    0  0.15494040512E+02 -0.13424998505E+03  0.85649889913E+03  0.86709485524E+03  0.00000000000E+00 0.  1.
<scales pt_clust_3="110.68311" pt_clust_4="47.91497" pt_clust_5="72.26017" pt_clust_6="14000.00000"></scales>
<clustering>
<clus scale="   47.915">  1  4  2 -1</clus>
<clus scale="   72.260">  2  5  1 -1</clus>
<clus scale="  110.683">  2  3  1 -1</clus>
<clus scale="   72.260">  2  3  1 -1</clus>
</clustering>
</event>
<event>
 6    0  0.1849053E+002  0.1292774E+03  0.7546771E-02  0.1228532E+00
         21   -1    0    0  504  502  0.00000000000E+00  0.00000000000E+00  0.25790783634E+03  0.25790783634E+03  0.00000000000E+00 0.  1.
          2   -1    0    0  505    0 -0.00000000000E+00 -0.00000000000E+00 -0.25043688171E+04  0.25043688171E+04  0.00000000000E+00 0. -1.
         21    1    1    2  503  502  0.22174169819E+02  0.24431484285E+02  0.16727044296E+03  0.17049337911E+03  0.00000000000E+00 0. -1.
         21    1    1    2  504  501 -0.16049053246E+03 -0.23428120031E+02  0.64340329042E+01  0.16231908267E+03  0.00000000000E+00 0.  1.
         21    1    1    2  505  503  0.72530682046E+02  0.92907589850E+01 -0.32020212278E+03  0.32844545586E+03  0.00000000000E+00 0.  1.
          2    1    1    2  501    0  0.65785680596E+02 -0.10294123240E+02 -0.20999633338E+04  0.21010187358E+04  0.00000000000E+00 0. -1.
<scales pt_clust_3="32.99381" pt_clust_4="14000.00000" pt_clust_5="129.27739" pt_clust_6="66.69389"></scales>
<clustering>
<clus scale="   32.994">  1  3  2 -1</clus>
<clus scale="   66.694">  2  6  1 -1</clus>
<clus scale="  129.277">  2  5  1 -1</clus>
<clus scale="   32.994">  1  3  2 -1</clus>
</clustering>
</event>
<event>
 6    0  0.1849053E+002  0.1035920E+03  0.7546771E-02  0.1272919E+00
          2   -1    0    0  503    0 -0.00000000000E+00  0.00000000000E+00  0.17308386554E+04  0.17308386554E+04  0.00000000000E+00 0. -1.
         21   -1    0    0  505  502  0.00000000000E+00 -0.00000000000E+00 -0.44864987172E+02  0.44864987172E+02  0.00000000000E+00 0.  1.
         21    1    1    2  503  502 -0.14283024479E+03  0.11950088111E+02  0.13361579745E+03  0.19595015886E+03  0.00000000000E+00 0.  1.
         21    1    1    2  504  501  0.56251331999E+02 -0.50065173178E+02  0.18937861626E+03  0.20380135969E+03  0.00000000000E+00 0.  1.
         21    1    1    2  505  504 -0.14252438438E+02  0.29230033747E+02  0.53793440374E+02  0.62859057435E+02  0.00000000000E+00 0.  1.
          2    1    1    2  501    0  0.10083135123E+03  0.88850513198E+01  0.13091858141E+04  0.13130930665E+04  0.00000000000E+00 0. -1.
<scales pt_clust_3="103.59195" pt_clust_4="69.96096" pt_clust_5="32.51964" pt_clust_6="14000.00000"></scales>
<clustering>
<clus scale="   32.520">  2  5  1 -1</clus>
<clus scale="   69.961">  2  4  1 -1</clus>
<clus scale="  103.592">  2  3  1 -1</clus>
<clus scale="   32.520">  2  3  1 -1</clus>
</clustering>
</event>
<event>
 6    0  0.1849053E+002  0.1573857E+03  0.7546771E-02  0.1191680E+00
          2   -1    0    0  502    0 -0.00000000000E+00  0.00000000000E+00  0.56133552444E+03  0.56133552444E+03  0.00000000000E+00 0. -1.
         21   -1    0    0  503  502  0.00000000000E+00 -0.00000000000E+00 -0.25410141630E+03  0.25410141630E+03  0.00000000000E+00 0. -1.
         21    1    1    2  503  505 -0.25390849491E+02  0.58367758634E+02 -0.12434183006E+03  0.13968672517E+03  0.00000000000E+00 0. -1.
         21    1    1    2  504  501  0.33695906479E+02 -0.72374478255E+02  0.30982677566E+03  0.31994704269E+03  0.00000000000E+00 0.  1.
         21    1    1    2  505  504 -0.76790836701E+02  0.44744642589E+02 -0.92803842946E+02  0.12849696069E+03  0.00000000000E+00 0. -1.
          2    1    1    2  501    0  0.68485779713E+02 -0.30737922967E+02  0.21455300549E+03  0.22730621218E+03  0.00000000000E+00 0. -1.
<scales pt_clust_3="51.45594" pt_clust_4="56.86293" pt_clust_5="51.45594" pt_clust_6="156.56299"></scales>
<clustering>
<clus scale="   51.456">  3  5 -1 -1</clus>
<clus scale="   56.863">  4  6 -1 -1</clus>
<clus scale="  156.563">  1  4  2 -1</clus>
<clus scale="  157.386">  2  3  1 -1</clus>
</clustering>
</event>
<event>
 6    0  0.1849053E+002  0.2190565E+03  0.7546771E-02  0.1134588E+00
         21   -1    0    0  504  502  0.00000000000E+00  0.00000000000E+00  0.60664370100E+03  0.60664370100E+03  0.00000000000E+00 0. -1.
          2   -1    0    0  503    0 -0.00000000000E+00 -0.00000000000E+00 -0.12724293625E+04  0.12724293625E+04  0.00000000000E+00 0.  1.
         21    1    1    2  503  502 -0.17836805533E+03 -0.19495982021E+02  0.42255797892E+03  0.45907570402E+03  0.00000000000E+00 0. -1.
         21    1    1    2  504  505 -0.26467690995E+02  0.67923712696E+02  0.14761178200E+03  0.16463112585E+03  0.00000000000E+00 0. -1.
         21    1    1    2  505  501  0.64569399423E+02 -0.31271944351E+02 -0.28110117695E+03  0.29011207064E+03  0.00000000000E+00 0.  1.
          2    1    1    2  501    0  0.14026634690E+03 -0.17155786324E+02 -0.95485424551E+03  0.96525416303E+03  0.00000000000E+00 0.  1.
<scales pt_clust_3="209.59505" pt_clust_4="72.89835" pt_clust_5="45.37667" pt_clust_6="45.37667"></scales>
<clustering>
<clus scale="   45.377">  5  6 -1 -1</clus>
<clus scale="   72.898">  1  4  2 -1</clus>
<clus scale="  209.595">  1  3  2 -1</clus>
<clus scale="   72.898">  1  3  2 -1</clus>
</clustering>
</event>
<event>
 6    0  0.1849053E+002  0.1193475E+03  0.7546771E-02  0.1244177E+00
         21   -1    0    0  504  502  0.00000000000E+00  0.00000000000E+00  0.15025085380E+04  0.15025085380E+04  0.00000000000E+00 0.  1.
         -4   -1    0    0    0  501 -0.00000000000E+00 -0.00000000000E+00 -0.32431805541E+03  0.32431805541E+03  0.00000000000E+00 0. -1.
         21    1    1    2  503  501 -0.10882933562E+03  0.12378694062E+03 -0.10750409409E+03  0.19678455530E+03  0.00000000000E+00 0.  1.
         21    1    1    2  504  503  0.36821833266E+02  0.24780649121E+01  0.12214657519E+03  0.12760005502E+03  0.00000000000E+00 0.  1.
         21    1    1    2  505  502  0.51088021549E+02 -0.82147508483E+02  0.13276809880E+04  0.13312005878E+04  0.00000000000E+00 0.  1.
         -4    1    1    2    0  505  0.20919480806E+02 -0.44117497046E+02 -0.16413298647E+03  0.17124139532E+03  0.00000000000E+00 0. -1.
<scales pt_clust_3="14000.00000" pt_clust_4="36.90512" pt_clust_5="119.34749" pt_clust_6="48.86100"></scales>
<clustering>
<clus scale="   36.905">  1  4  2 -1</clus>
<clus scale="   48.861">  2  6  1 -1</clus>
<clus scale="  119.347">  1  5  2 -1</clus>
<clus scale="   36.905">  1  3  2 -1</clus>
</clustering>
</event>
<event>
 6    0  0.1849053E+002  0.2799689E+03  0.7546771E-02  0.1095706E+00
          2   -1    0    0  504    0 -0.00000000000E+00  0.00000000000E+00  0.50257931669E+03  0.50257931669E+03  0.00000000000E+00 0. -1.
         21   -1    0    0  501  502  0.00000000000E+00 -0.00000000000E+00 -0.16300898870E+04  0.16300898870E+04  0.00000000000E+00 0. -1.
         21    1    1    2  503  505 -0.15287790136E+03 -0.42288097928E+02 -0.76480765962E+03  0.78108302514E+03  0.00000000000E+00 0. -1.
         21    1    1    2  504  503  0.29131788086E+02 -0.95366522329E+01  0.11500160573E+02  0.32739311326E+02  0.00000000000E+00 0. -1.
         21    1    1    2  505  502 -0.11129592874E+03 -0.38946370423E+02 -0.80833829154E+03  0.81689313689E+03  0.00000000000E+00 0. -1.
          2    1    1    2  501    0  0.23504204201E+03  0.90771120583E+02  0.43413522031E+03  0.50195373030E+03  0.00000000000E+00 0. -1.
<scales pt_clust_3="41.83967" pt_clust_4="30.65304" pt_clust_5="41.83967" pt_clust_6="275.73500"></scales>
<clustering>
<clus scale="   30.653">  1  4  2 -1</clus>
<clus scale="   41.840">  3  5 -1 -1</clus>
<clus scale="  275.735">  1  6  2 -1</clus>
<clus scale="  279.969">  2  3  1 -1</clus>
</clustering>
</event>
<event>
 6    0  0.1849053E+002  0.7579084E+02  0.7546771E-02  0.1341439E+00
         -1   -1    0    0    0  501 -0.00000000000E+00  0.00000000000E+00  0.23434728493E+03  0.23434728493E+03  0.00000000000E+00 0.  1.
         21   -1    0    0  504  502  0.00000000000E+00 -0.00000000000E+00 -0.16552700559E+03  0.16552700559E+03  0.00000000000E+00 0.  1.
         21    1    1    2  503  505  0.67468673990E+02 -0.65308352190E+02 -0.60637480434E+02  0.11177704089E+03  0.00000000000E+00 0.  1.
         21    1    1    2  504  501  0.24791680855E+02  0.64205188945E+02 -0.32635646293E+02  0.76170986183E+02  0.00000000000E+00 0.  1.
         21    1    1    2  505  502 -0.16923546624E+02  0.29820538775E+02  0.40767400610E+01  0.34529563749E+02  0.00000000000E+00 0. -1.
         -1    1    1    2    0  503 -0.75336808221E+02 -0.28717375531E+02  0.15801666600E+03  0.17739669970E+03  0.00000000000E+00 0.  1.
<scales pt_clust_3="75.23360" pt_clust_4="14000.00000" pt_clust_5="34.28806" pt_clust_6="75.79084"></scales>
<clustering>
<clus scale="   34.288">  2  5  1 -1</clus>
<clus scale="   75.234">  2  3  1 -1</clus>
<clus scale="   75.791">  1  6  2 -1</clus>
<clus scale="   34.288">  2  3  1 -1</clus>
</clustering>
</event>
<event>
 6    0  0.1849053E+002  0.9848893E+02  0.7546771E-02  0.1283506E+00
         -1   -1    0    0    0  501 -0.00000000000E+00  0.00000000000E+00  0.11532354248E+03  0.11532354248E+03  0.00000000000E+00 0. -1.
         21   -1    0    0  503  502  0.00000000000E+00 -0.00000000000E+00 -0.58049274516E+03  0.58049274516E+03  0.00000000000E+00 0. -1.
         21    1    1    2  503  505 -0.18717028503E+02 -0.58628696746E+02 -0.89275823144E+02  0.10843349960E+03  0.00000000000E+00 0. -1.
         21    1    1    2  504  502  0.67258823059E+02 -0.33816636995E+02 -0.41042007595E+03  0.41726724405E+03  0.00000000000E+00 0. -1.
         21    1    1    2  505  501  0.42973114920E+02  0.31809447043E+02 -0.43812775268E+01  0.53644432329E+02  0.00000000000E+00 0. -1.
         -1    1    1    2    0  504 -0.91514909476E+02  0.60635886697E+02  0.38907973946E+02  0.11647111165E+03  0.00000000000E+00 0. -1.
<scales pt_clust_3="57.05861" pt_clust_4="14000.00000" pt_clust_5="53.46522" pt_clust_6="98.48893"></scales>
<clustering>
<clus scale="   53.465">  1  5  2 -1</clus>
<clus scale="   57.059">  2  3  1 -1</clus>
<clus scale="   98.489">  1  6  2 -1</clus>
<clus scale="   57.059">  2  3  1 -1</clus>
</clustering>
</event>
<event>
 6    0  0.1849053E+002  0.1425364E+03  0.7546771E-02  0.1209956E+00
         21   -1    0    0  501  502  0.00000000000E+00  0.00000000000E+00  0.35552984880E+02  0.35552984880E+02  0.00000000000E+00 0.  1.
          2   -1    0    0  503    0 -0.00000000000E+00 -0.00000000000E+00 -0.26851703771E+04  0.26851703771E+04  0.00000000000E+00 0.  1.
         21    1    1    2  503  504 -0.39902396892E+02 -0.41658959568E+02 -0.25759843703E+03  0.26397845546E+03  0.00000000000E+00 0.  1.
         21    1    1    2  504  505  0.27592538157E+02  0.78414900751E+02 -0.10410792699E+03  0.13322426687E+03  0.00000000000E+00 0.  1.
         21    1    1    2  505  502 -0.38544160192E+01  0.58200945567E+02 -0.33923701293E+02  0.67476100193E+02  0.00000000000E+00 0.  1.
          2    1    1    2  501    0  0.16164274754E+02 -0.94956886750E+02 -0.22539873269E+04  0.22560445395E+04  0.00000000000E+00 0.  1.
<scales pt_clust_3="57.68596" pt_clust_4="37.46607" pt_clust_5="37.46607" pt_clust_6="135.33701"></scales>
<clustering>
<clus scale="   37.466">  4  5 -1 -1</clus>
<clus scale="   57.686">  2  3  1 -1</clus>
<clus scale="  135.337">  2  6  1 -1</clus>
<clus scale="  142.536">  1  3  2 -1</clus>
</clustering>
</event>
<event>
 6    0  0.1849053E+002  0.4917592E+03  0.7546771E-02  0.1015953E+00
         21   -1    0    0  501  502  0.00000000000E+00  0.00000000000E+00  0.88301626513E+03  0.88301626513E+03  0.00000000000E+00 0. -1.
          2   -1    0    0  505    0 -0.00000000000E+00 -0.00000000000E+00 -0.54130673460E+03  0.54130673460E+03  0.00000000000E+00 0. -1.
         21    1    1    2  503  504  0.31742136808E+03  0.36552783309E+03  0.52764512004E+03  0.71608399953E+03  0.00000000000E+00 0. -1.
         21    1    1    2  504  502 -0.25147747000E+01  0.32238160432E+02  0.78987357323E+02  0.85350018727E+02  0.00000000000E+00 0. -1.
         21    1    1    2  505  503  0.32877640042E+02 -0.91316546453E+02 -0.21837736940E+02  0.99481343102E+02  0.00000000000E+00 0. -1.
          2    1    1    2  501    0 -0.34778423342E+03 -0.30644944707E+03 -0.24308520990E+03  0.52340763837E+03  0.00000000000E+00 0. -1.
<scales pt_clust_3="14000.00000" pt_clust_4="32.33610" pt_clust_5="95.54411" pt_clust_6="491.75915"></scales>
<clustering>
<clus scale="   32.336">  1  4  2 -1</clus>
<clus scale="   95.544">  2  5  1 -1</clus>
<clus scale="  491.759">  2  6  1 -1</clus>
<clus scale="   32.336">  1  3  2 -1</clus>
</clustering>
</event>
<event>
 6    0  0.1849053E+002  0.1092806E+03  0.7546771E-02  0.1261908E+00
         -1   -1    0    0    0  501 -0.00000000000E+00  0.00000000000E+00  0.16964431969E+04  0.16964431969E+04  0.00000000000E+00 0. -1.
         21   -1    0    0  505  502  0.00000000000E+00 -0.00000000000E+00 -0.44552881899E+03  0.44552881899E+03  0.00000000000E+00 0.  1.
         21    1    1    2  503  501 -0.36521714516E+02 -0.52124663896E+02  0.76975945605E+02  0.99880490684E+02  0.00000000000E+00 0.  1.
         21    1    1    2  504  502 -0.49973944096E+02 -0.46272114630E+02 -0.34894615201E+03  0.35553047785E+03  0.00000000000E+00 0.  1.
         21    1    1    2  505  503 -0.35061479358E+02 -0.24362248026E+02 -0.71266232266E+02  0.83076484790E+02  0.00000000000E+00 0. -1.
         -1    1    1    2    0  504  0.12155713797E+03  0.12275902655E+03  0.15941508166E+04  0.16034845625E+04  0.00000000000E+00 0. -1.
<scales pt_clust_3="64.89346" pt_clust_4="14000.00000" pt_clust_5="42.69457" pt_clust_6="109.28065"></scales>
<clustering>
<clus scale="   42.695">  2  5  1 -1</clus>
<clus scale="   64.893">  1  3  2 -1</clus>
<clus scale="  109.281">  1  6  2 -1</clus>
<clus scale="   42.695">  2  3  1 -1</clus>
</clustering>
</event>
<event>
 6    0  0.1849053E+002  0.1253893E+03  0.7546771E-02  0.1234462E+00
         21   -1    0    0  504  502  0.00000000000E+00  0.00000000000E+00  0.37879554602E+03  0.37879554602E+03  0.00000000000E+00 0. -1.
          2   -1    0    0  505    0 -0.00000000000E+00 -0.00000000000E+00 -0.46199481475E+03  0.46199481475E+03  0.00000000000E+00 0.  1.
         21    1    1    2  503  501 -0.42290712600E+02 -0.21625086717E+02 -0.13602895747E+03  0.14408339952E+03  0.00000000000E+00 0. -1.
         21    1    1    2  504  503  0.42247117347E+02  0.10159853228E+02  0.60902287111E+02  0.74813970066E+02  0.00000000000E+00 0. -1.
         21    1    1    2  505  502  0.13649844681E+02  0.87552244176E+02  0.29557020271E+03  0.30856678119E+03  0.00000000000E+00 0. -1.
          2    1    1    2  501    0 -0.13606249428E+02 -0.76087010688E+02 -0.30364280108E+03  0.31332620999E+03  0.00000000000E+00 0.  1.
<scales pt_clust_3="44.44219" pt_clust_4="43.45160" pt_clust_5="111.72428" pt_clust_6="44.44219"></scales>
<clustering>
<clus scale="   43.452">  1  4  2 -1</clus>
<clus scale="   44.442">  3  6 -1 -1</clus>
<clus scale="  111.724">  1  5  2 -1</clus>
<clus scale="   43.452">  1  3  2 -1</clus>
</clustering>
</event>
<event>
 6    0  0.1849053E+002  0.1253667E+03  0.7546771E-02  0.1234497E+00
         -1   -1    0    0    0  501 -0.00000000000E+00  0.00000000000E+00  0.42933575866E+03  0.42933575866E+03  0.00000000000E+00 0. -1.
         21   -1    0    0  505  502  0.00000000000E+00 -0.00000000000E+00 -0.21643330474E+03  0.21643330474E+03  0.00000000000E+00 0. -1.
         21    1    1    2  503  501 -0.14419094345E+03  0.25617951738E+02  0.11197070583E+03  0.18434952289E+03  0.00000000000E+00 0.  1.
         21    1    1    2  504  502  0.33835717759E+02  0.48432037817E+01  0.91562541686E+01  0.35385723244E+02  0.00000000000E+00 0. -1.
         21    1    1    2  505  503  0.17547946130E+02 -0.13571387063E+03 -0.11322057363E+03  0.17760935614E+03  0.00000000000E+00 0. -1.
         -1    1    1    2    0  504  0.92807279560E+02  0.10525271511E+03  0.20499606755E+03  0.24842446113E+03  0.00000000000E+00 0. -1.
<scales pt_clust_3="125.36671" pt_clust_4="34.18059" pt_clust_5="138.68277" pt_clust_6="14000.00000"></scales>
<clustering>
<clus scale="   34.181">  2  4  1 -1</clus>
<clus scale="  138.683">  2  5  1 -1</clus>
<clus scale="  125.367">  2  3  1 -1</clus>
<clus scale="   34.181">  2  3  1 -1</clus>
</clustering>
</event>
<event>
 6    0  0.1849053E+002  0.1064750E+03  0.7546771E-02  0.1267241E+00
         21   -1    0    0  505  502  0.00000000000E+00  0.00000000000E+00  0.29934958839E+02  0.29934958839E+02  0.00000000000E+00 0.  1.
          2   -1    0    0  503    0 -0.00000000000E+00 -0.00000000000E+00 -0.31023620772E+04  0.31023620772E+04  0.00000000000E+00 0.  1.
         21    1    1    2  503  502  0.32717864069E+02  0.55412869316E+02 -0.11276526933E+04  0.11294873357E+04  0.00000000000E+00 0.  1.
         21    1    1    2  504  501 -0.49933358215E+02 -0.59407817356E+02 -0.11824347887E+03  0.14143602554E+03  0.00000000000E+00 0.  1.
         21    1    1    2  505  504 -0.57760680192E+02  0.10493433046E+01 -0.33514417842E+02  0.66787824496E+02  0.00000000000E+00 0.  1.
          2    1    1    2  501    0  0.74976174337E+02  0.29456047349E+01 -0.17930165283E+04  0.17945858503E+04  0.00000000000E+00 0.  1.
<scales pt_clust_3="62.48382" pt_clust_4="106.47495" pt_clust_5="57.77021" pt_clust_6="14000.00000"></scales>
<clustering>
<clus scale="   57.770">  1  5  2 -1</clus>
<clus scale="   62.484">  2  3  1 -1</clus>
<clus scale="  106.475">  1  4  2 -1</clus>
<clus scale="   57.770">  1  3  2 -1</clus>
</clustering>
</event>
<event>
 6    0  0.1849053E+002  0.1663648E+03  0.7546771E-02  0.1181693E+00
         21   -1    0    0  501  502  0.00000000000E+00  0.00000000000E+00  0.21625172442E+03  0.21625172442E+03  0.00000000000E+00 0. -1.
         -3   -1    0    0    0  501 -0.00000000000E+00 -0.00000000000E+00 -0.99429029177E+03  0.99429029177E+03  0.00000000000E+00 0. -1.
         21    1    1    2  503  502  0.19770844069E+02 -0.29872652998E+02  0.11428264774E+03  0.11976554282E+03  0.00000000000E+00 0. -1.
         21    1    1    2  504  503  0.12713288358E+03 -0.21524003569E+02  0.46432637322E+02  0.13704759256E+03  0.00000000000E+00 0. -1.
         21    1    1    2  505  504 -0.81391480284E+02  0.15078268906E+02 -0.32309954224E+03  0.33353446816E+03  0.00000000000E+00 0. -1.
         -3    1    1    2    0  505 -0.65512247366E+02  0.36318387661E+02 -0.61565431018E+03  0.62019441265E+03  0.00000000000E+00 0. -1.
<scales pt_clust_3="35.82264" pt_clust_4="153.49136" pt_clust_5="61.22721" pt_clust_6="61.22721"></scales>
<clustering>
<clus scale="   35.823">  1  3  2 -1</clus>
<clus scale="   61.227">  5  6 -1 -1</clus>
<clus scale="  153.491">  1  4  2 -1</clus>
<clus scale="   35.823">  1  3  2 -1</clus>
</clustering>
</event>
<event>
 6    0  0.1849053E+002  0.9704720E+02  0.7546771E-02  0.1286631E+00
         21   -1    0    0  503  502  0.00000000000E+00  0.00000000000E+00  0.14928659235E+02  0.14928659235E+02  0.00000000000E+00 0. -1.
          2   -1    0    0  504    0 -0.00000000000E+00 -0.00000000000E+00 -0.48599620931E+04  0.48599620931E+04  0.00000000000E+00 0. -1.
         21    1    1    2  503  505 -0.78868430103E+01 -0.31437303430E+02 -0.66749795557E+02  0.74202705789E+02  0.00000000000E+00 0.  1.
         21    1    1    2  504  502  0.14522282383E+03  0.47272394975E+02 -0.66884682442E+03  0.68606152962E+03  0.00000000000E+00 0. -1.
         21    1    1    2  505  501 -0.59197442482E+02  0.35284127407E+02 -0.59952443636E+03  0.60347233295E+03  0.00000000000E+00 0. -1.
          2    1    1    2  501    0 -0.78138538337E+02 -0.51119218952E+02 -0.35099123775E+04  0.35111541839E+04  0.00000000000E+00 0. -1.
<scales pt_clust_3="32.41152" pt_clust_4="97.04720" pt_clust_5="67.49478" pt_clust_6="14000.00000"></scales>
<clustering>
<clus scale="   32.412">  1  3  2 -1</clus>
<clus scale="   67.495">  1  5  2 -1</clus>
<clus scale="   97.047">  1  4  2 -1</clus>
<clus scale="   32.412">  1  3  2 -1</clus>
</clustering>
</event>
<event>
 6    0  0.1849053E+002  0.3900965E+03  0.7546771E-02  0.1047264E+00
         21   -1    0    0  504  502  0.00000000000E+00  0.00000000000E+00  0.19102302712E+04  0.19102302712E+04  0.00000000000E+00 0.  1.
          2   -1    0    0  505    0 -0.00000000000E+00 -0.00000000000E+00 -0.10147491524E+04  0.10147491524E+04  0.00000000000E+00 0. -1.
         21    1    1    2  503  501  0.12976983337E+03  0.39828188512E+03  0.50443625739E+03  0.65568636362E+03  0.00000000000E+00 0.  1.
         21    1    1    2  504  503 -0.18059062127E+03 -0.33583074411E+03  0.12871138413E+04  0.13424072786E+04  0.00000000000E+00 0.  1.
         21    1    1    2  505  502 -0.88449189539E+02 -0.18759875215E+02 -0.37637885186E+03  0.38708685353E+03  0.00000000000E+00 0. -1.
          2    1    1    2  501    0  0.13926997744E+03 -0.43691265801E+02 -0.51969012800E+03  0.53979892781E+03  0.00000000000E+00 0. -1.
<scales pt_clust_3="390.09647" pt_clust_4="14000.00000" pt_clust_5="90.41677" pt_clust_6="88.23200"></scales>
<clustering>
<clus scale="   90.417">  2  5  1 -1</clus>
<clus scale="   88.232">  2  6  1 -1</clus>
<clus scale="  390.096">  2  3  1 -1</clus>
<clus scale="  390.096">  1  3  2 -1</clus>
</clustering>
</event>
<event>
 6    0  0.1849053E+002  0.1087119E+03  0.7546771E-02  0.1262974E+00
          2   -1    0    0  505    0 -0.00000000000E+00  0.00000000000E+00  0.12782919893E+04  0.12782919893E+04  0.00000000000E+00 0. -1.
         21   -1    0    0  503  502  0.00000000000E+00 -0.00000000000E+00 -0.32349965417E+02  0.32349965417E+02  0.00000000000E+00 0. -1.
         21    1    1    2  503  501 -0.43994894564E+02  0.36924424325E+01  0.71016309004E+02  0.83621175688E+02  0.00000000000E+00 0. -1.
         21    1    1    2  504  502  0.31896030306E+02  0.12474054372E+02  0.26129770195E+01  0.34348019312E+02  0.00000000000E+00 0.  1.
         21    1    1    2  505  504  0.76536511957E+01 -0.11759277775E+03  0.61487513932E+03  0.62606555305E+03  0.00000000000E+00 0. -1.
          2    1    1    2  501    0  0.44452130628E+01  0.10142628095E+03  0.55743759851E+03  0.56660720664E+03  0.00000000000E+00 0. -1.
<scales pt_clust_3="32.90544" pt_clust_4="34.24849" pt_clust_5="108.71187" pt_clust_6="14000.00000"></scales>
<clustering>
<clus scale="   34.248">  2  4  1 -1</clus>
<clus scale="   32.905">  2  3  1 -1</clus>
<clus scale="  108.712">  2  5  1 -1</clus>
<clus scale="   34.248">  2  3  1 -1</clus>
</clustering>
</event>
<event>
 6    0  0.1849053E+002  0.1461850E+03  0.7546771E-02  0.1205241E+00
          1   -1    0    0  503    0 -0.00000000000E+00  0.00000000000E+00  0.13599103871E+04  0.13599103871E+04  0.00000000000E+00 0. -1.
         21   -1    0    0  505  502  0.00000000000E+00 -0.00000000000E+00 -0.15929979015E+03  0.15929979015E+03  0.00000000000E+00 0. -1.
         21    1    1    2  503  504 -0.30060502325E+02 -0.27610518280E+02  0.28048742020E+03  0.28344164727E+03  0.00000000000E+00 0.  1.
         21    1    1    2  504  502 -0.11237294817E+03  0.13399400375E+03 -0.90721568595E+02  0.19700882095E+03  0.00000000000E+00 0. -1.
         21    1    1    2  505  501  0.11995581654E+02 -0.29767260478E+02  0.23209586505E+02  0.39606422223E+02  0.00000000000E+00 0.  1.
          1    1    1    2  501    0  0.13043786884E+03 -0.76616224996E+02  0.98763515880E+03  0.99915328677E+03  0.00000000000E+00 0. -1.
<scales pt_clust_3="40.92789" pt_clust_4="14000.00000" pt_clust_5="32.09336" pt_clust_6="146.18502"></scales>
<clustering>
<clus scale="   32.093">  2  5  1 -1</clus>
<clus scale="   40.928">  1  3  2 -1</clus>
<clus scale="  146.185">  1  6  2 -1</clus>
<clus scale="   32.093">  2  3  1 -1</clus>
</clustering>
</event>
<event>
 6    0  0.1849053E+002  0.2160455E+03  0.7546771E-02  0.1136866E+00
         21   -1    0    0  503  502  0.00000000000E+00  0.00000000000E+00  0.10342529400E+04  0.10342529400E+04  0.00000000000E+00 0. -1.
          2   -1    0    0  505    0 -0.00000000000E+00 -0.00000000000E+00 -0.20322261630E+03  0.20322261630E+03  0.00000000000E+00 0. -1.
         21    1    1    2  503  501 -0.77886465490E+02  0.17129687543E+03 -0.12557118704E+00  0.18817262502E+03  0.00000000000E+00 0. -1.
         21    1    1    2  504  502 -0.59346290666E+02 -0.12332869492E+03  0.61155815377E+03  0.62668598568E+03  0.00000000000E+00 0. -1.
         21    1    1    2  505  504 -0.39656644898E+02 -0.76005589610E+02  0.22773286798E+03  0.24333466316E+03  0.00000000000E+00 0. -1.
          2    1    1    2  501    0  0.17688940105E+03  0.28037409106E+02 -0.81351268527E+01  0.17928228246E+03  0.00000000000E+00 0. -1.
<scales pt_clust_3="209.00926" pt_clust_4="43.28230" pt_clust_5="43.28230" pt_clust_6="179.09762"></scales>
<clustering>
<clus scale="   43.282">  4  5 -1 -1</clus>
<clus scale="  179.098">  2  6  1 -1</clus>
<clus scale="  209.009">  2  3  1 -1</clus>
<clus scale="  216.045">  1  3  2 -1</clus>
</clustering>
</event>
<event>
 6    0  0.1849053E+002  0.1311155E+03  0.7546771E-02  0.1225810E+00
         -2   -1    0    0    0  501 -0.00000000000E+00  0.00000000000E+00  0.26015127517E+03  0.26015127517E+03  0.00000000000E+00 0. -1.
         21   -1    0    0  503  502  0.00000000000E+00 -0.00000000000E+00 -0.19601628213E+03  0.19601628213E+03  0.00000000000E+00 0. -1.
         21    1    1    2  503  505 -0.63231485146E+02 -0.28052715640E+02 -0.98058617305E+02  0.12000278329E+03  0.00000000000E+00 0. -1.
         21    1    1    2  504  501 -0.26508471308E+02  0.51815347375E+02  0.57108865141E+02  0.81541104680E+02  0.00000000000E+00 0.  1.
         21    1    1    2  505  504 -0.45174612678E+02 -0.32707741031E+02 -0.30141346812E+02  0.63395920544E+02  0.00000000000E+00 0. -1.
         -2    1    1    2    0  502  0.13491456913E+03  0.89451092958E+01  0.13522609201E+03  0.19122774879E+03  0.00000000000E+00 0. -1.
<scales pt_clust_3="37.62824" pt_clust_4="58.20249" pt_clust_5="37.62824" pt_clust_6="124.23821"></scales>
<clustering>
<clus scale="   37.628">  3  5 -1 -1</clus>
<clus scale="   58.202">  1  4  2 -1</clus>
<clus scale="  124.238">  1  6  2 -1</clus>
<clus scale="  131.115">  2  3  1 -1</clus>
</clustering>
</event>
<event>
 6    0  0.1849053E+002  0.1227725E+03  0.7546771E-02  0.1238592E+00
          1   -1    0    0  503    0 -0.00000000000E+00  0.00000000000E+00  0.21392878119E+03  0.21392878119E+03  0.00000000000E+00 0.  1.
         21   -1    0    0  504  502  0.00000000000E+00 -0.00000000000E+00 -0.68374320326E+03  0.68374320326E+03  0.00000000000E+00 0.  1.
         21    1    1    2  503  502  0.30060060293E+01  0.29861443827E+02 -0.10412005321E+03  0.10835925147E+03  0.00000000000E+00 0.  1.
         21    1    1    2  504  505 -0.83974633495E+02 -0.10429122048E+03 -0.55119064429E+03  0.56722087769E+03  0.00000000000E+00 0.  1.
         21    1    1    2  505  501  0.27472353042E+02  0.60962024866E+02  0.97177039728E+02  0.11795963593E+03  0.00000000000E+00 0.  1.
          1    1    1    2  501    0  0.53496274424E+02  0.13467751788E+02  0.88319235696E+02  0.10413221936E+03  0.00000000000E+00 0.  1.
<scales pt_clust_3="30.01236" pt_clust_4="110.69273" pt_clust_5="48.11366" pt_clust_6="48.11366"></scales>
<clustering>
<clus scale="   30.012">  2  3  1 -1</clus>
<clus scale="   48.114">  5  6 -1 -1</clus>
<clus scale="  110.693">  2  4  1 -1</clus>
<clus scale="   30.012">  2  3  1 -1</clus>
</clustering>
</event>
<event>
 6    0  0.1849053E+002  0.2162390E+03  0.7546771E-02  0.1136719E+00
         -1   -1    0    0    0  501 -0.00000000000E+00  0.00000000000E+00  0.42695998685E+03  0.42695998685E+03  0.00000000000E+00 0. -1.
         21   -1    0    0  505  502  0.00000000000E+00 -0.00000000000E+00 -0.20577405431E+03  0.20577405431E+03  0.00000000000E+00 0.  1.
         21    1    1    2  503  502 -0.57770228130E+02  0.81013678957E+02  0.14011860496E+03  0.17185412096E+03  0.00000000000E+00 0.  1.
         21    1    1    2  504  501  0.76629433747E+02 -0.16674955657E+03 -0.21593248930E+02  0.18478028340E+03  0.00000000000E+00 0.  1.
         21    1    1    2  505  504  0.21134428871E+02 -0.35227044813E+02 -0.57987645829E+02  0.71064589204E+02  0.00000000000E+00 0.  1.
         -1    1    1    2    0  503 -0.39993634489E+02  0.12096292243E+03  0.16064822234E+03  0.20503504759E+03  0.00000000000E+00 0. -1.
<scales pt_clust_3="31.02478" pt_clust_4="213.37022" pt_clust_5="41.08052" pt_clust_6="31.02478"></scales>
<clustering>
<clus scale="   31.025">  3  6 -1 -1</clus>
<clus scale="   41.081">  2  5  1 -1</clus>
<clus scale="  213.370">  2  4  1 -1</clus>
<clus scale="   41.081">  2  3  1 -1</clus>
</clustering>
</event>
<event>
 6    0  0.1849053E+002  0.1442468E+03  0.7546771E-02  0.1207726E+00
         21   -1    0    0  503  502  0.00000000000E+00  0.00000000000E+00  0.23498392494E+03  0.23498392494E+03  0.00000000000E+00 0. -1.
          2   -1    0    0  504    0 -0.00000000000E+00 -0.00000000000E+00 -0.16774222038E+04  0.16774222038E+04  0.00000000000E+00 0. -1.
         21    1    1    2  503  505  0.45671672630E+02  0.63793955824E+01  0.14237344078E+02  0.48262825604E+02  0.00000000000E+00 0. -1.
         21    1    1    2  504  502  0.77659798352E+02 -0.53046704760E+02  0.18952925415E+03  0.21158056467E+03  0.00000000000E+00 0. -1.
         21    1    1    2  505  501 -0.24978510746E+02  0.31752671944E+02 -0.30336501019E+03  0.30604327731E+03  0.00000000000E+00 0. -1.
          2    1    1    2  501    0 -0.98352960237E+02  0.14914637234E+02 -0.13428398668E+04  0.13465194611E+04  0.00000000000E+00 0. -1.
<scales pt_clust_3="46.11506" pt_clust_4="131.23459" pt_clust_5="38.15485" pt_clust_6="38.15485"></scales>
<clustering>
<clus scale="   38.155">  5  6 -1 -1</clus>
<clus scale="   46.115">  1  3  2 -1</clus>
<clus scale="  131.235">  1  4  2 -1</clus>
<clus scale="   46.115">  1  3  2 -1</clus>
</clustering>
</event>
<event>
 6    0  0.1849053E+002  0.7903265E+02  0.7546771E-02  0.1331819E+00
         21   -1    0    0  505  502  0.00000000000E+00  0.00000000000E+00  0.21770797271E+03  0.21770797271E+03  0.00000000000E+00 0.  1.
          4   -1    0    0  503    0 -0.00000000000E+00 -0.00000000000E+00 -0.12564009177E+03  0.12564009177E+03  0.00000000000E+00 0. -1.
         21    1    1    2  503  502 -0.39943266437E+02  0.25298808021E+02  0.43683491815E+02  0.64371901309E+02  0.00000000000E+00 0.  1.
         21    1    1    2  504  501  0.92291159297E+02  0.18355112370E+02  0.27743205931E+02  0.98103280831E+02  0.00000000000E+00 0.  1.
         21    1    1    2  505  504  0.22060546217E+02 -0.37374534627E+02  0.76272381335E+02  0.87755339966E+02  0.00000000000E+00 0.  1.
          4    1    1    2  501    0 -0.74408439076E+02 -0.62793857643E+01 -0.55631198147E+02  0.93117542379E+02  0.00000000000E+00 0. -1.
<scales pt_clust_3="32.85509" pt_clust_4="79.03265" pt_clust_5="43.39958" pt_clust_6="14000.00000"></scales>
<clustering>
<clus scale="   43.400">  1  5  2 -1</clus>
<clus scale="   32.855">  1  3  2 -1</clus>
<clus scale="   79.033">  1  4  2 -1</clus>
<clus scale="   43.400">  1  3  2 -1</clus>
</clustering>
</event>
<event>
 6    0  0.1849053E+002  0.1215928E+03  0.7546771E-02  0.1240492E+00
          1   -1    0    0  505    0 -0.00000000000E+00  0.00000000000E+00  0.78632998515E+03  0.78632998515E+03  0.00000000000E+00 0. -1.
         21   -1    0    0  504  502  0.00000000000E+00 -0.00000000000E+00 -0.37569836244E+02  0.37569836244E+02  0.00000000000E+00 0.  1.
         21    1    1    2  503  501 -0.44272300063E+02  0.50243936909E+02  0.70949883351E+02  0.97562163242E+02  0.00000000000E+00 0.  1.
         21    1    1    2  504  503 -0.17554371804E+02  0.52733967833E+02  0.32330615258E+02  0.64298491552E+02  0.00000000000E+00 0.  1.
         21    1    1    2  505  502 -0.16504045747E+02 -0.29990539526E+02  0.89053352395E+02  0.95406056202E+02  0.00000000000E+00 0.  1.
          1    1    1    2  501    0  0.78330717614E+02 -0.72987365216E+02  0.55642629790E+03  0.56663311040E+03  0.00000000000E+00 0. -1.
<scales pt_clust_3="30.28399" pt_clust_4="30.28399" pt_clust_5="34.23180" pt_clust_6="116.96061"></scales>
<clustering>
<clus scale="   30.284">  3  4 -1 -1</clus>
<clus scale="   34.232">  1  5  2 -1</clus>
<clus scale="  116.961">  1  6  2 -1</clus>
<clus scale="  121.593">  2  3  1 -1</clus>
</clustering>
</event>
<event>
 6    0  0.1849053E+002  0.2265791E+03  0.7546771E-02  0.1129071E+00
         21   -1    0    0  505  502  0.00000000000E+00  0.00000000000E+00  0.26515174071E+02  0.26515174071E+02  0.00000000000E+00 0. -1.
          2   -1    0    0  503    0 -0.00000000000E+00 -0.00000000000E+00 -0.28540735023E+04  0.28540735023E+04  0.00000000000E+00 0. -1.
         21    1    1    2  503  502  0.15471570667E+02 -0.26590557733E+02 -0.44392409464E+02  0.54010307141E+02  0.00000000000E+00 0.  1.
         21    1    1    2  504  501 -0.45521750327E+02  0.70032263711E+01 -0.79593465497E+03  0.79726610985E+03  0.00000000000E+00 0.  1.
         21    1    1    2  505  504  0.19875420285E+03 -0.24421883769E+02 -0.63339984937E+03  0.66430040700E+03  0.00000000000E+00 0. -1.
          2    1    1    2  501    0 -0.16870402319E+03  0.44009215131E+02 -0.13538314144E+04  0.13650118524E+04  0.00000000000E+00 0. -1.
<scales pt_clust_3="30.76406" pt_clust_4="38.33305" pt_clust_5="214.19895" pt_clust_6="38.33305"></scales>
<clustering>
<clus scale="   30.764">  1  3  2 -1</clus>
<clus scale="   38.333">  4  6 -1 -1</clus>
<clus scale="  214.199">  1  5  2 -1</clus>
<clus scale="   30.764">  1  3  2 -1</clus>
</clustering>
</event>
<event>
 6    0  0.1849053E+002  0.2584431E+03  0.7546771E-02  0.1108082E+00
         21   -1    0    0  504  502  0.00000000000E+00  0.00000000000E+00  0.33652345290E+03  0.33652345290E+03  0.00000000000E+00 0.  1.
          2   -1    0    0  505    0 -0.00000000000E+00 -0.00000000000E+00 -0.97898211086E+03  0.97898211086E+03  0.00000000000E+00 0.  1.
         21    1    1    2  503  501 -0.86630670657E+01 -0.75737743205E+02 -0.32823098366E+03  0.33696710983E+03  0.00000000000E+00 0.  1.
         21    1    1    2  504  503 -0.25258388584E+02  0.27891935945E+03  0.17178678253E+03  0.32854937822E+03  0.00000000000E+00 0.  1.
         21    1    1    2  505  502  0.68766954417E+01 -0.21823030425E+03 -0.64957909220E+02  0.22779658602E+03  0.00000000000E+00 0.  1.
          2    1    1    2  501    0  0.27044760208E+02  0.15048688001E+02 -0.42105654761E+03  0.42219248969E+03  0.00000000000E+00 0.  1.
<scales pt_clust_3="67.17482" pt_clust_4="14000.00000" pt_clust_5="258.44313" pt_clust_6="30.94967"></scales>
<clustering>
<clus scale="   30.950">  2  6  1 -1</clus>
<clus scale="   67.175">  2  3  1 -1</clus>
<clus scale="  258.443">  2  5  1 -1</clus>
<clus scale="  258.443">  1  3  2 -1</clus>
</clustering>
</event>
<event>
 6    0  0.1849053E+002  0.3177261E+03  0.7546771E-02  0.1076701E+00
         -3   -1    0    0    0  501 -0.00000000000E+00  0.00000000000E+00  0.12675002450E+04  0.12675002450E+04  0.00000000000E+00 0. -1.
         21   -1    0    0  501  502  0.00000000000E+00 -0.00000000000E+00 -0.14641844330E+03  0.14641844330E+03  0.00000000000E+00 0.  1.
         21    1    1    2  503  505 -0.21470437050E+03  0.64357214840E+02  0.10858962593E+03  0.24906128698E+03  0.00000000000E+00 0.  1.
         21    1    1    2  504  503  0.48253928004E+02  0.14549708168E+02  0.28946045109E+03  0.29381539837E+03  0.00000000000E+00 0.  1.
         21    1    1    2  505  502 -0.72403185079E+02 -0.67930567637E+01 -0.29311374503E+02  0.78406144562E+02  0.00000000000E+00 0.  1.
         -3    1    1    2    0  504  0.23885362757E+03 -0.72113866244E+02  0.75234309914E+03  0.79263585834E+03  0.00000000000E+00 0. -1.
<scales pt_clust_3="70.23744" pt_clust_4="43.29004" pt_clust_5="70.23744" pt_clust_6="308.25589"></scales>
<clustering>
<clus scale="   43.290">  4  6 -1 -1</clus>
<clus scale="   70.237">  3  5 -1 -1</clus>
<clus scale="  308.256">  1  4  2 -1</clus>
<clus scale="  317.726">  2  3  1 -1</clus>
</clustering>
</event>
<event>
 6    0  0.1849053E+002  0.1499396E+03  0.7546771E-02  0.1200547E+00
          1   -1    0    0  502    0 -0.00000000000E+00  0.00000000000E+00  0.18969732468E+04  0.18969732468E+04  0.00000000000E+00 0. -1.
         21   -1    0    0  505  502  0.00000000000E+00 -0.00000000000E+00 -0.41904795339E+03  0.41904795339E+03  0.00000000000E+00 0. -1.
         21    1    1    2  503  504 -0.53087850414E+02  0.35845564600E+01 -0.20818757133E+03  0.21487957968E+03  0.00000000000E+00 0. -1.
         21    1    1    2  504  501  0.69015281364E+02 -0.41075197839E+02  0.10329979506E+04  0.10361153637E+04  0.00000000000E+00 0. -1.
         21    1    1    2  505  503 -0.85129123006E+02  0.30325083674E+02 -0.19454844828E+03  0.21451265000E+03  0.00000000000E+00 0. -1.
          1    1    1    2  501    0  0.69201692056E+02  0.71655577050E+01  0.84766336244E+03  0.85051360684E+03  0.00000000000E+00 0. -1.
<scales pt_clust_3="33.68905" pt_clust_4="43.93283" pt_clust_5="148.93416" pt_clust_6="43.93283"></scales>
<clustering>
<clus scale="   33.689">  3  5 -1 -1</clus>
<clus scale="   43.933">  4  6 -1 -1</clus>
<clus scale="  148.934">  2  3  1 -1</clus>
<clus scale="  148.934">  2  3  1 -1</clus>
</clustering>
</event>
<event>
 6    0  0.1849053E+002  0.1020996E+03  0.7546771E-02  0.1275942E+00
          1   -1    0    0  505    0 -0.00000000000E+00  0.00000000000E+00  0.12462888740E+04  0.12462888740E+04  0.00000000000E+00 0.  1.
         21   -1    0    0  504  502  0.00000000000E+00 -0.00000000000E+00 -0.19307622110E+02  0.19307622110E+02  0.00000000000E+00 0.  1.
         21    1    1    2  503  502  0.27754107194E+02  0.76853617878E+02  0.22029852002E+03  0.23496426743E+03  0.00000000000E+00 0.  1.
         21    1    1    2  504  501 -0.53188577607E+02 -0.52433900947E+02  0.34976584149E+03  0.35765134227E+03  0.00000000000E+00 0.  1.
         21    1    1    2  505  503  0.66687620441E+02  0.24207104624E+02  0.47371623107E+03  0.47899925910E+03  0.00000000000E+00 0.  1.
          1    1    1    2  501    0 -0.41253150028E+02 -0.48626821556E+02  0.18320065928E+03  0.19398162728E+03  0.00000000000E+00 0.  1.
<scales pt_clust_3="96.49457" pt_clust_4="30.82829" pt_clust_5="70.94521" pt_clust_6="30.82829"></scales>
<clustering>
<clus scale="   30.828">  4  6 -1 -1</clus>
<clus scale="   70.945">  1  5  2 -1</clus>
<clus scale="   96.495">  2  3  1 -1</clus>
<clus scale="   96.495">  2  3  1 -1</clus>
</clustering>
</event>
<event>
 6    0  0.1849053E+002  0.1368352E+03  0.7546771E-02  0.1217652E+00
          1   -1    0    0  505    0 -0.00000000000E+00  0.00000000000E+00  0.48753307417E+03  0.48753307417E+03  0.00000000000E+00 0.  1.
         21   -1    0    0  503  502  0.00000000000E+00 -0.00000000000E+00 -0.13737204252E+04  0.13737204252E+04  0.00000000000E+00 0.  1.
         21    1    1    2  503  501 -0.43839765769E+02  0.33861724285E+02 -0.12173774200E+03  0.13374834302E+03  0.00000000000E+00 0.  1.
         21    1    1    2  504  502 -0.23994456278E+02  0.86589620524E+02 -0.12315214179E+04  0.12347949219E+04  0.00000000000E+00 0.  1.
         21    1    1    2  505  504  0.38535027622E+02 -0.98719793546E+01  0.16433687135E+03  0.16908285429E+03  0.00000000000E+00 0.  1.
          1    1    1    2  501    0  0.29299194425E+02 -0.11057936545E+03  0.30273493749E+03  0.32362738023E+03  0.00000000000E+00 0.  1.
<scales pt_clust_3="54.71140" pt_clust_4="136.83523" pt_clust_5="39.77945" pt_clust_6="14000.00000"></scales>
<clustering>
<clus scale="   39.779">  1  5  2 -1</clus>
<clus scale="   54.711">  2  3  1 -1</clus>
<clus scale="  136.835">  2  4  1 -1</clus>
<clus scale="   54.711">  2  3  1 -1</clus>
</clustering>
</event>
<event>
 6    0  0.1849053E+002  0.1196326E+03  0.7546771E-02  0.1243704E+00
         21   -1    0    0  505  502  0.00000000000E+00  0.00000000000E+00  0.42212581313E+02  0.42212581313E+02  0.00000000000E+00 0. -1.
         -2   -1    0    0    0  501 -0.00000000000E+00 -0.00000000000E+00 -0.26800963281E+04  0.26800963281E+04  0.00000000000E+00 0. -1.
         21    1    1    2  503  501 -0.18162069125E+01  0.59494440051E+02 -0.52077376869E+03  0.52416429215E+03  0.00000000000E+00 0.  1.
         21    1    1    2  504  503  0.63722336659E+02 -0.98893664786E+02 -0.10014746838E+03  0.15449921860E+03  0.00000000000E+00 0. -1.
         21    1    1    2  505  504 -0.23686627332E+02 -0.19150492187E+02 -0.54809299150E+01  0.30948962148E+02  0.00000000000E+00 0. -1.
         -2    1    1    2    0  502 -0.38219502415E+02  0.58549716922E+02 -0.20114815798E+04  0.20126964365E+04  0.00000000000E+00 0. -1.
<scales pt_clust_3="58.47957" pt_clust_4="14000.00000" pt_clust_5="30.45977" pt_clust_6="119.63259"></scales>
<clustering>
<clus scale="   30.460">  1  5  2 -1</clus>
<clus scale="   58.480">  2  3  1 -1</clus>
<clus scale="  119.633">  2  6  1 -1</clus>
<clus scale="   30.460">  1  3  2 -1</clus>
</clustering>
</event>
<event>
 6    0  0.1849053E+002  0.1598701E+03  0.7546771E-02  0.1188844E+00
          2   -1    0    0  504    0 -0.00000000000E+00  0.00000000000E+00  0.42447390925E+03  0.42447390925E+03  0.00000000000E+00 0. -1.
         21   -1    0    0  501  502  0.00000000000E+00 -0.00000000000E+00 -0.24133718461E+03  0.24133718461E+03  0.00000000000E+00 0. -1.
         21    1    1    2  503  505 -0.22252743522E+02  0.30430167250E+02 -0.25731888551E+02  0.45643288241E+02  0.00000000000E+00 0. -1.
         21    1    1    2  504  503 -0.32783451501E+02 -0.35682353812E+02  0.14718351440E+03  0.15495474171E+03  0.00000000000E+00 0. -1.
         21    1    1    2  505  502  0.19462763725E+02  0.12081406374E+03 -0.16670078068E+03  0.20679455372E+03  0.00000000000E+00 0. -1.
          2    1    1    2  501    0  0.35573431299E+02 -0.11556187717E+03  0.22838587947E+03  0.25841851019E+03  0.00000000000E+00 0. -1.
<scales pt_clust_3="34.26843" pt_clust_4="48.45601" pt_clust_5="34.26843" pt_clust_6="147.46696"></scales>
<clustering>
<clus scale="   34.268">  3  5 -1 -1</clus>
<clus scale="   48.456">  1  4  2 -1</clus>
<clus scale="  147.467">  1  6  2 -1</clus>
<clus scale="  159.870">  2  3  1 -1</clus>
</clustering>
</event>
<event>
 6    0  0.1849053E+002  0.9095178E+02  0.7546771E-02  0.1300563E+00
          1   -1    0    0  503    0 -0.00000000000E+00  0.00000000000E+00  0.55801515459E+03  0.55801515459E+03  0.00000000000E+00 0.  1.
         21   -1    0    0  505  502  0.00000000000E+00 -0.00000000000E+00 -0.53210956945E+02  0.53210956945E+02  0.00000000000E+00 0.  1.
         21    1    1    2  503  502 -0.45239253115E+02  0.46521512046E+02  0.12254276203E+03  0.13866351226E+03  0.00000000000E+00 0.  1.
         21    1    1    2  504  501  0.38193239345E+02 -0.72322664124E+02  0.20503091919E+02  0.84318847572E+02  0.00000000000E+00 0.  1.
         21    1    1    2  505  504 -0.22956001739E+02 -0.44097483877E+02  0.64661180525E+02  0.81563682893E+02  0.00000000000E+00 0.  1.
          1    1    1    2  501    0  0.30002015509E+02  0.69898635954E+02  0.29709716317E+03  0.30668006881E+03  0.00000000000E+00 0.  1.
<scales pt_clust_3="62.65907" pt_clust_4="90.95178" pt_clust_5="49.71485" pt_clust_6="14000.00000"></scales>
<clustering>
<clus scale="   49.715">  2  5  1 -1</clus>
<clus scale="   62.659">  1  3  2 -1</clus>
<clus scale="   90.952">  2  4  1 -1</clus>
<clus scale="   49.715">  2  3  1 -1</clus>
</clustering>
</event>
<event>
 6    0  0.1849053E+002  0.9601228E+02  0.7546771E-02  0.1288912E+00
         21   -1    0    0  503  502  0.00000000000E+00  0.00000000000E+00  0.10475651535E+03  0.10475651535E+03  0.00000000000E+00 0. -1.
          2   -1    0    0  504    0 -0.00000000000E+00 -0.00000000000E+00 -0.47510725188E+04  0.47510725188E+04  0.00000000000E+00 0.  1.
         21    1    1    2  503  505  0.36549093469E+02  0.54448129387E+02  0.81126943328E+02  0.10431690161E+03  0.00000000000E+00 0. -1.
         21    1    1    2  504  502  0.32303382097E+02 -0.38908311199E+01 -0.16042511691E+03  0.16369137178E+03  0.00000000000E+00 0. -1.
         21    1    1    2  505  501  0.64879596218E+02 -0.39861088549E+02 -0.14508610912E+03  0.16385434826E+03  0.00000000000E+00 0. -1.
          2    1    1    2  501    0 -0.13373207178E+03 -0.10696209718E+02 -0.44219317208E+04  0.44239664125E+04  0.00000000000E+00 0.  1.
<scales pt_clust_3="65.61507" pt_clust_4="32.53686" pt_clust_5="96.01228" pt_clust_6="14000.00000"></scales>
<clustering>
<clus scale="   32.537">  2  4  1 -1</clus>
<clus scale="   65.615">  1  3  2 -1</clus>
<clus scale="   96.012">  1  5  2 -1</clus>
<clus scale="   65.615">  1  3  2 -1</clus>
</clustering>
</event>
<event>
 6    0  0.1849053E+002  0.2112449E+03  0.7546771E-02  0.1140584E+00
          1   -1    0    0  504    0 -0.00000000000E+00  0.00000000000E+00  0.81438232642E+03  0.81438232642E+03  0.00000000000E+00 0. -1.
         21   -1    0    0  505  502  0.00000000000E+00 -0.00000000000E+00 -0.98273450253E+03  0.98273450253E+03  0.00000000000E+00 0. -1.
         21    1    1    2  503  502 -0.25362606546E+03 -0.37682125056E+02 -0.51434651314E+03  0.57471598134E+03  0.00000000000E+00 0. -1.
         21    1    1    2  504  503 -0.46241122519E+02 -0.58166418885E+02  0.75385480315E+02  0.10585152025E+03  0.00000000000E+00 0. -1.
         21    1    1    2  505  501  0.98757091958E+02 -0.98778911029E+02 -0.38185272219E+03  0.40659775936E+03  0.00000000000E+00 0. -1.
          1    1    1    2  501    0  0.20111009602E+03  0.19462745497E+03  0.65246157891E+03  0.70995156800E+03  0.00000000000E+00 0. -1.
<scales pt_clust_3="211.24486" pt_clust_4="74.30729" pt_clust_5="139.82903" pt_clust_6="14000.00000"></scales>
<clustering>
<clus scale="   74.307">  1  4  2 -1</clus>
<clus scale="  139.829">  2  5  1 -1</clus>
<clus scale="  211.245">  2  3  1 -1</clus>
<clus scale="  139.829">  2  3  1 -1</clus>
</clustering>
</event>
<event>
 6    0  0.1849053E+002  0.1248543E+03  0.7546771E-02  0.1235297E+00
         -2   -1    0    0    0  501 -0.00000000000E+00  0.00000000000E+00  0.12985200572E+04  0.12985200572E+04  0.00000000000E+00 0. -1.
         21   -1    0    0  505  502  0.00000000000E+00 -0.00000000000E+00 -0.26221215971E+03  0.26221215971E+03  0.00000000000E+00 0. -1.
         21    1    1    2  503  501 -0.59561008004E+02 -0.66048432268E+02  0.71828523457E+02  0.11432080240E+03  0.00000000000E+00 0. -1.
         21    1    1    2  504  502 -0.41639750756E+02  0.34499612729E+02  0.24979711432E+03  0.25558304021E+03  0.00000000000E+00 0. -1.
         21    1    1    2  505  503  0.13784247070E+03  0.36324952236E+01 -0.21749021981E+03  0.25751842160E+03  0.00000000000E+00 0. -1.
         -2    1    1    2    0  504 -0.36641711943E+02  0.27916324315E+02  0.93217247953E+03  0.93330995270E+03  0.00000000000E+00 0. -1.
<scales pt_clust_3="14000.00000" pt_clust_4="85.88078" pt_clust_5="124.85432" pt_clust_6="46.06448"></scales>
<clustering>
<clus scale="   46.064">  1  6  2 -1</clus>
<clus scale="   85.881">  1  4  2 -1</clus>
<clus scale="  124.854">  2  5  1 -1</clus>
<clus scale="  124.854">  2  3  1 -1</clus>
</clustering>
</event>
<event>
 6    0  0.1849053E+002  0.1307393E+03  0.7546771E-02  0.1226363E+00
          4   -1    0    0  502    0 -0.00000000000E+00  0.00000000000E+00  0.62201381220E+02  0.62201381220E+02  0.00000000000E+00 0. -1.
         21   -1    0    0  504  502  0.00000000000E+00 -0.00000000000E+00 -0.38608512186E+03  0.38608512186E+03  0.00000000000E+00 0. -1.
         21    1    1    2  503  505  0.21279974548E+02 -0.39114261458E+02 -0.10367369246E+03  0.11283172105E+03  0.00000000000E+00 0. -1.
         21    1    1    2  504  503 -0.29067040669E+02 -0.91083845601E+02 -0.13324313667E+03  0.16399662574E+03  0.00000000000E+00 0. -1.
         21    1    1    2  505  501 -0.14085851411E+02  0.10078468323E+03 -0.88367267829E+02  0.13477662115E+03  0.00000000000E+00 0. -1.
          4    1    1    2  501    0  0.21872917532E+02  0.29413423825E+02  0.14003563285E+01  0.36681535141E+02  0.00000000000E+00 0. -1.
<scales pt_clust_3="42.46165" pt_clust_4="42.46165" pt_clust_5="116.62165" pt_clust_6="36.65480"></scales>
<clustering>
<clus scale="   36.655">  1  6  2 -1</clus>
<clus scale="   42.462">  3  4 -1 -1</clus>
<clus scale="  116.622">  1  5  2 -1</clus>
<clus scale="  130.739">  2  3  1 -1</clus>
</clustering>
</event>
<event>
 6    0  0.1849053E+002  0.3003391E+03  0.7546771E-02  0.1085071E+00
          2   -1    0    0  505    0 -0.00000000000E+00  0.00000000000E+00  0.23230284947E+04  0.23230284947E+04  0.00000000000E+00 0. -1.
         21   -1    0    0  503  502  0.00000000000E+00 -0.00000000000E+00 -0.15223125482E+03  0.15223125482E+03  0.00000000000E+00 0.  1.
         21    1    1    2  503  504 -0.85580075698E+02 -0.27807287099E+03  0.17146959993E+02  0.29144894780E+03  0.00000000000E+00 0.  1.
         21    1    1    2  504  501  0.21893413621E+02  0.11232844548E+03  0.66513619840E+03  0.67490974481E+03  0.00000000000E+00 0. -1.
         21    1    1    2  505  502  0.28818687815E+02 -0.14406380034E+02  0.55400367741E+02  0.64087918509E+02  0.00000000000E+00 0. -1.
          2    1    1    2  501    0  0.34867974263E+02  0.18015080554E+03  0.14331137137E+04  0.14448131384E+04  0.00000000000E+00 0. -1.
<scales pt_clust_3="297.31658" pt_clust_4="33.55538" pt_clust_5="32.21895" pt_clust_6="33.55538"></scales>
<clustering>
<clus scale="   32.219">  2  5  1 -1</clus>
<clus scale="   33.555">  4  6 -1 -1</clus>
<clus scale="  297.317">  2  3  1 -1</clus>
<clus scale="   32.219">  2  3  1 -1</clus>
</clustering>
</event>
<event>
 6    0  0.1849053E+002  0.1762537E+03  0.7546771E-02  0.1171479E+00
          1   -1    0    0  505    0 -0.00000000000E+00  0.00000000000E+00  0.15921463848E+04  0.15921463848E+04  0.00000000000E+00 0.  1.
         21   -1    0    0  501  502  0.00000000000E+00 -0.00000000000E+00 -0.68364859982E+02  0.68364859982E+02  0.00000000000E+00 0.  1.
         21    1    1    2  503  502  0.51866232438E+02 -0.50675692274E+02  0.42205745405E+02  0.83901470785E+02  0.00000000000E+00 0. -1.
         21    1    1    2  504  503  0.41607240481E+02 -0.11572030659E+03  0.67825902957E+02  0.14043754815E+03  0.00000000000E+00 0.  1.
         21    1    1    2  505  504 -0.90885734411E+01  0.72759862785E+02  0.10223448395E+04  0.10249710096E+04  0.00000000000E+00 0.  1.
          1    1    1    2  501    0 -0.84384899478E+02  0.93636136081E+02  0.39140503704E+03  0.41120121627E+03  0.00000000000E+00 0.  1.
<scales pt_clust_3="32.54392" pt_clust_4="32.54392" pt_clust_5="73.32530" pt_clust_6="171.08256"></scales>
<clustering>
<clus scale="   32.544">  3  4 -1 -1</clus>
<clus scale="   73.325">  1  5  2 -1</clus>
<clus scale="  171.083">  1  6  2 -1</clus>
<clus scale="  176.254">  2  3  1 -1</clus>
</clustering>
</event>
<event>
 6    0  0.1849053E+002  0.1438711E+03  0.7546771E-02  0.1208213E+00
         21   -1    0    0  503  502  0.00000000000E+00  0.00000000000E+00  0.26902710626E+03  0.26902710626E+03  0.00000000000E+00 0. -1.
         -2   -1    0    0    0  501 -0.00000000000E+00 -0.00000000000E+00 -0.64939515582E+03  0.64939515582E+03  0.00000000000E+00 0.  1.
         21    1    1    2  503  504 -0.76318768536E+02  0.29616172781E+02 -0.30943489169E+02  0.87516693511E+02  0.00000000000E+00 0. -1.
         21    1    1    2  504  501 -0.38684803298E+01 -0.77030070296E+02 -0.47126496689E+03  0.47753457036E+03  0.00000000000E+00 0.  1.
         21    1    1    2  505  502  0.65868717214E+02  0.15088105405E+03  0.17148519715E+03  0.23772032563E+03  0.00000000000E+00 0. -1.
         -2    1    1    2    0  505  0.14318531652E+02 -0.10346715653E+03 -0.49644790644E+02  0.11565067258E+03  0.00000000000E+00 0.  1.
<scales pt_clust_3="77.70898" pt_clust_4="77.12715" pt_clust_5="143.87113" pt_clust_6="14000.00000"></scales>
<clustering>
<clus scale="   77.127">  2  4  1 -1</clus>
<clus scale="   77.709">  2  3  1 -1</clus>
<clus scale="  143.871">  1  5  2 -1</clus>
<clus scale="  143.871">  1  3  2 -1</clus>
</clustering>
</event>
<event>
 6    0  0.1849053E+002  0.1048043E+03  0.7546771E-02  0.1270506E+00
         21   -1    0    0  505  502  0.00000000000E+00  0.00000000000E+00  0.30316028266E+02  0.30316028266E+02  0.00000000000E+00 0.  1.
          2   -1    0    0  504    0 -0.00000000000E+00 -0.00000000000E+00 -0.30507912372E+04  0.30507912372E+04  0.00000000000E+00 0.  1.
         21    1    1    2  503  501 -0.96898426419E+01 -0.88622040477E+02 -0.81289582644E+02  0.12064723517E+03  0.00000000000E+00 0.  1.
         21    1    1    2  504  502 -0.30050976815E+02 -0.97983598391E+00 -0.62414340015E+03  0.62486719008E+03  0.00000000000E+00 0. -1.
         21    1    1    2  505  503  0.41639068285E+02 -0.13684866219E+02 -0.43668146648E+02  0.61870789576E+02  0.00000000000E+00 0.  1.
          2    1    1    2  501    0 -0.18982488279E+01  0.10328674268E+03 -0.22713740795E+04  0.22737220506E+04  0.00000000000E+00 0.  1.
<scales pt_clust_3="14000.00000" pt_clust_4="30.06695" pt_clust_5="43.21654" pt_clust_6="104.80434"></scales>
<clustering>
<clus scale="   30.067">  2  4  1 -1</clus>
<clus scale="   43.217">  1  5  2 -1</clus>
<clus scale="  104.804">  2  6  1 -1</clus>
<clus scale="   43.217">  1  3  2 -1</clus>
</clustering>
</event>
<event>
 6    0  0.1849053E+002  0.4394045E+03  0.7546771E-02  0.1030930E+00
         21   -1    0    0  503  502  0.00000000000E+00  0.00000000000E+00  0.38369259965E+03  0.38369259965E+03  0.00000000000E+00 0. -1.
          2   -1    0    0  505    0 -0.00000000000E+00 -0.00000000000E+00 -0.19128085224E+04  0.19128085224E+04  0.00000000000E+00 0. -1.
         21    1    1    2  503  504 -0.86776730441E+02  0.29206477441E+03  0.22688408839E+03  0.37987948478E+03  0.00000000000E+00 0. -1.
         21    1    1    2  504  501  0.87951519508E+02 -0.27952111561E+03 -0.98363985360E+03  0.10263600175E+04  0.00000000000E+00 0. -1.
         21    1    1    2  505  502 -0.10040156081E+03  0.10307677048E+03 -0.50500523404E+02  0.15249785864E+03  0.00000000000E+00 0. -1.
          2    1    1    2  501    0  0.99226771745E+02 -0.11562042927E+03 -0.72185963415E+03  0.73776376118E+03  0.00000000000E+00 0. -1.
<scales pt_clust_3="425.25839" pt_clust_4="79.74858" pt_clust_5="143.89334" pt_clust_6="79.74858"></scales>
<clustering>
<clus scale="   79.749">  4  6 -1 -1</clus>
<clus scale="  143.893">  1  5  2 -1</clus>
<clus scale="  425.258">  1  3  2 -1</clus>
<clus scale="  143.893">  1  3  2 -1</clus>
</clustering>
</event>
<event>
 6    0  0.1849053E+002  0.1073485E+03  0.7546771E-02  0.1265560E+00
         21   -1    0    0  501  502  0.00000000000E+00  0.00000000000E+00  0.17696544201E+03  0.17696544201E+03  0.00000000000E+00 0.  1.
          2   -1    0    0  505    0 -0.00000000000E+00 -0.00000000000E+00 -0.36729648875E+03  0.36729648875E+03  0.00000000000E+00 0.  1.
         21    1    1    2  503  502 -0.70665716064E+02 -0.44205509237E+01  0.94418657828E+02  0.11801723452E+03  0.00000000000E+00 0.  1.
         21    1    1    2  504  503  0.36125805864E+02 -0.45623339147E+02 -0.29329639560E+02  0.65167405050E+02  0.00000000000E+00 0. -1.
         21    1    1    2  505  504  0.78998020266E+02 -0.24359777588E+02  0.86754459099E+01  0.83122495943E+02  0.00000000000E+00 0. -1.
          2    1    1    2  501    0 -0.44458110067E+02  0.74403667658E+02 -0.26409551092E+03  0.27795479525E+03  0.00000000000E+00 0.  1.
<scales pt_clust_3="70.80385" pt_clust_4="49.01001" pt_clust_5="49.01001" pt_clust_6="90.06408"></scales>
<clustering>
<clus scale="   49.010">  4  5 -1 -1</clus>
<clus scale="   70.804">  1  3  2 -1</clus>
<clus scale="   90.064">  2  6  1 -1</clus>
<clus scale="   70.804">  1  3  2 -1</clus>
</clustering>
</event>
<event>
 6    0  0.2245950E+002  0.1899040E+03  0.7546771E-02  0.1158548E+00
         21   -1    0    0  505  502  0.00000000000E+00  0.00000000000E+00  0.79093566307E+03  0.79093566307E+03  0.00000000000E+00 0. -1.
          1   -1    0    0  504    0 -0.00000000000E+00 -0.00000000000E+00 -0.22648278848E+04  0.22648278848E+04  0.00000000000E+00 0.  1.
         21    1    1    2  503  502 -0.30068107388E+02 -0.33701640807E+02  0.26590668896E+02  0.52411404745E+02  0.00000000000E+00 0. -1.
         21    1    1    2  504  503 -0.86218527235E+02  0.44133286741E+02 -0.13443080518E+03  0.16568953745E+03  0.00000000000E+00 0.  1.
         21    1    1    2  505  501  0.46007174876E+02 -0.15692562181E+03  0.72352634458E+03  0.74177670644E+03  0.00000000000E+00 0. -1.
          1    1    1    2  501    0  0.70279459747E+02  0.14649397588E+03 -0.20895784300E+04  0.20958858992E+04  0.00000000000E+00 0.  1.
<scales pt_clust_3="45.16516" pt_clust_4="97.09909" pt_clust_5="189.90401" pt_clust_6="14000.00000"></scales>
<clustering>
<clus scale="   45.165">  1  3  2 -1</clus>
<clus scale="   97.099">  2  4  1 -1</clus>
<clus scale="  189.904">  1  5  2 -1</clus>
<clus scale="   45.165">  1  3  2 -1</clus>
</clustering>
</event>
<event>
 6    0  0.1849053E+002  0.1343493E+03  0.7546771E-02  0.1221141E+00
          3   -1    0    0  505    0 -0.00000000000E+00  0.00000000000E+00  0.19637602573E+03  0.19637602573E+03  0.00000000000E+00 0.  1.
         21   -1    0    0  503  502  0.00000000000E+00 -0.00000000000E+00 -0.81129525107E+03  0.81129525107E+03  0.00000000000E+00 0.  1.
         21    1    1    2  503  501 -0.11061740222E+03 -0.94345585811E+02 -0.67007308983E+03  0.68566409046E+03  0.00000000000E+00 0.  1.
         21    1    1    2  504  502 -0.13987712823E+02  0.37276461749E+02 -0.83296874356E+02  0.92323128132E+02  0.00000000000E+00 0.  1.
         21    1    1    2  505  504  0.41074295161E+02  0.18763966558E+02 -0.17697951437E+02  0.48501563367E+02  0.00000000000E+00 0.  1.
          3    1    1    2  501    0  0.83530819877E+02  0.38305157505E+02  0.15614869028E+03  0.18118249484E+03  0.00000000000E+00 0.  1.
<scales pt_clust_3="134.34931" pt_clust_4="39.81445" pt_clust_5="45.32033" pt_clust_6="14000.00000"></scales>
<clustering>
<clus scale="   39.814">  2  4  1 -1</clus>
<clus scale="   45.320">  1  5  2 -1</clus>
<clus scale="  134.349">  2  3  1 -1</clus>
<clus scale="   39.814">  2  3  1 -1</clus>
</clustering>
</event>
<event>
 6    0  0.1849053E+002  0.1957264E+03  0.7546771E-02  0.1153396E+00
          2   -1    0    0  505    0 -0.00000000000E+00  0.00000000000E+00  0.38569830966E+04  0.38569830966E+04  0.00000000000E+00 0.  1.
         21   -1    0    0  504  502  0.00000000000E+00 -0.00000000000E+00 -0.14701547981E+04  0.14701547981E+04  0.00000000000E+00 0.  1.
         21    1    1    2  503  502 -0.20151787584E+03  0.29202974592E+01 -0.13807545969E+04  0.13953856955E+04  0.00000000000E+00 0.  1.
         21    1    1    2  504  501  0.27124584185E+02 -0.88749751272E+02  0.71044860396E+03  0.71648411028E+03  0.00000000000E+00 0. -1.
         21    1    1    2  505  503  0.10775521350E+03  0.14998445954E+03  0.30452830418E+02  0.18717344635E+03  0.00000000000E+00 0. -1.
          2    1    1    2  501    0  0.66638078156E+02 -0.64155005724E+02  0.30266814610E+04  0.30280946426E+04  0.00000000000E+00 0.  1.
<scales pt_clust_3="14000.00000" pt_clust_4="166.86329" pt_clust_5="195.72640" pt_clust_6="92.50134"></scales>
<clustering>
<clus scale="   92.501">  1  6  2 -1</clus>
<clus scale="  166.863">  1  4  2 -1</clus>
<clus scale="  195.726">  1  5  2 -1</clus>
<clus scale="  195.726">  2  3  1 -1</clus>
</clustering>
</event>
<event>
 6    0  0.1849053E+002  0.9866781E+02  0.7546771E-02  0.1283123E+00
         21   -1    0    0  504  502  0.00000000000E+00  0.00000000000E+00  0.20208501135E+02  0.20208501135E+02  0.00000000000E+00 0. -1.
          2   -1    0    0  503    0 -0.00000000000E+00 -0.00000000000E+00 -0.20351266398E+04  0.20351266398E+04  0.00000000000E+00 0.  1.
         21    1    1    2  503  502 -0.40063028665E+02 -0.18490012630E+02 -0.41873013811E+03  0.42104851905E+03  0.00000000000E+00 0.  1.
         21    1    1    2  504  505 -0.24052263171E+02  0.20493568092E+02 -0.56133669604E+02  0.64416508443E+02  0.00000000000E+00 0.  1.
         21    1    1    2  505  501  0.39025896847E+02  0.83436807046E+02 -0.14375613669E+03  0.17073531630E+03  0.00000000000E+00 0. -1.
          2    1    1    2  501    0  0.25089394989E+02 -0.85440362508E+02 -0.13962981942E+04  0.13991347971E+04  0.00000000000E+00 0.  1.
<scales pt_clust_3="45.12749" pt_clust_4="31.59901" pt_clust_5="98.66781" pt_clust_6="14000.00000"></scales>
<clustering>
<clus scale="   31.599">  1  4  2 -1</clus>
<clus scale="   45.127">  2  3  1 -1</clus>
<clus scale="   98.668">  1  5  2 -1</clus>
<clus scale="   31.599">  1  3  2 -1</clus>
</clustering>
</event>
<event>
 6    0  0.1849053E+002  0.3301059E+03  0.7546771E-02  0.1071090E+00
          2   -1    0    0  505    0 -0.00000000000E+00  0.00000000000E+00  0.21855270621E+04  0.21855270621E+04  0.00000000000E+00 0. -1.
         21   -1    0    0  504  502  0.00000000000E+00 -0.00000000000E+00 -0.46220433505E+03  0.46220433505E+03  0.00000000000E+00 0. -1.
         21    1    1    2  503  501 -0.63222331919E+02  0.91820129509E+02  0.66241579546E+03  0.67173111102E+03  0.00000000000E+00 0. -1.
         21    1    1    2  504  503  0.30201193710E+02 -0.88306433887E+01  0.18532004731E+01  0.31520258821E+02  0.00000000000E+00 0.  1.
         21    1    1    2  505  502  0.60275846864E+02 -0.30000899121E+03 -0.38056971093E+03  0.48833582441E+03  0.00000000000E+00 0. -1.
          2    1    1    2  501    0 -0.27254708655E+02  0.21701950509E+03  0.14396234420E+04  0.14561442029E+04  0.00000000000E+00 0. -1.
<scales pt_clust_3="53.94442" pt_clust_4="31.46573" pt_clust_5="321.33088" pt_clust_6="53.94442"></scales>
<clustering>
<clus scale="   31.466">  2  4  1 -1</clus>
<clus scale="   53.944">  3  6 -1 -1</clus>
<clus scale="  321.331">  2  5  1 -1</clus>
<clus scale="   31.466">  2  3  1 -1</clus>
</clustering>
</event>
<event>
 6    0  0.1849053E+002  0.1259983E+03  0.7546771E-02  0.1233517E+00
         21   -1    0    0  503  502  0.00000000000E+00  0.00000000000E+00  0.27651374418E+03  0.27651374418E+03  0.00000000000E+00 0. -1.
          4   -1    0    0  504    0 -0.00000000000E+00 -0.00000000000E+00 -0.11985699894E+03  0.11985699894E+03  0.00000000000E+00 0. -1.
         21    1    1    2  503  505 -0.51431575488E+02 -0.48394885589E+02  0.96696995478E+02  0.11973963773E+03  0.00000000000E+00 0. -1.
         21    1    1    2  504  502  0.55311094951E+02  0.24154490462E+02  0.34416007363E+02  0.69478185044E+02  0.00000000000E+00 0. -1.
         21    1    1    2  505  501 -0.45180765212E+02 -0.73685060816E+02  0.47505929877E+02  0.98628612006E+02  0.00000000000E+00 0. -1.
          4    1    1    2  501    0  0.41301245749E+02  0.97925455943E+02 -0.21962187481E+02  0.10852430834E+03  0.00000000000E+00 0. -1.
<scales pt_clust_3="46.55565" pt_clust_4="60.35525" pt_clust_5="46.55565" pt_clust_6="114.99047"></scales>
<clustering>
<clus scale="   46.556">  3  5 -1 -1</clus>
<clus scale="   60.355">  1  4  2 -1</clus>
<clus scale="  114.990">  2  6  1 -1</clus>
<clus scale="   60.355">  1  3  2 -1</clus>
</clustering>
</event>
<event>
 6    0  0.1849053E+002  0.1302102E+03  0.7546771E-02  0.1227144E+00
         21   -1    0    0  505  502  0.00000000000E+00  0.00000000000E+00  0.82275550818E+02  0.82275550818E+02  0.00000000000E+00 0. -1.
          2   -1    0    0  503    0 -0.00000000000E+00 -0.00000000000E+00 -0.16949456282E+04  0.16949456282E+04  0.00000000000E+00 0.  1.
         21    1    1    2  503  502  0.33714784467E+02  0.49042404828E+02 -0.12469602453E+04  0.12483796287E+04  0.00000000000E+00 0.  1.
         21    1    1    2  504  501  0.76085154438E+02  0.39578941528E+02 -0.17131783031E+03  0.19158612246E+03  0.00000000000E+00 0.  1.
         21    1    1    2  505  504 -0.13952703994E+03 -0.56435230066E+02 -0.13476760380E+02  0.15111040050E+03  0.00000000000E+00 0. -1.
          2    1    1    2  501    0  0.29727101038E+02 -0.32186116289E+02 -0.18091524143E+03  0.18614502733E+03  0.00000000000E+00 0.  1.
<scales pt_clust_3="62.43883" pt_clust_4="130.21023" pt_clust_5="14000.00000" pt_clust_6="43.81377"></scales>
<clustering>
<clus scale="   43.814">  2  6  1 -1</clus>
<clus scale="   62.439">  2  3  1 -1</clus>
<clus scale="  130.210">  2  4  1 -1</clus>
<clus scale="  130.210">  1  3  2 -1</clus>
</clustering>
</event>
<event>
 6    0  0.1849053E+002  0.1544211E+03  0.7546771E-02  0.1195143E+00
          1   -1    0    0  503    0 -0.00000000000E+00  0.00000000000E+00  0.47674576787E+03  0.47674576787E+03  0.00000000000E+00 0. -1.
         21   -1    0    0  505  502  0.00000000000E+00 -0.00000000000E+00 -0.84855774795E+03  0.84855774795E+03  0.00000000000E+00 0.  1.
         21    1    1    2  503  504  0.62019463876E+02  0.12284520320E+03  0.28632347843E+03  0.31767671012E+03  0.00000000000E+00 0. -1.
         21    1    1    2  504  502 -0.45644707762E+02 -0.40960940298E+02 -0.52710826754E+02  0.80868221409E+02  0.00000000000E+00 0.  1.
         21    1    1    2  505  501  0.11031471201E+02 -0.11245181789E+03 -0.75921790483E+03  0.76757991878E+03  0.00000000000E+00 0.  1.
          1    1    1    2  501    0 -0.27406227315E+02  0.30567554994E+02  0.15379327306E+03  0.15917866551E+03  0.00000000000E+00 0. -1.
<scales pt_clust_3="154.42112" pt_clust_4="61.35467" pt_clust_5="14000.00000" pt_clust_6="41.05456"></scales>
<clustering>
<clus scale="   41.055">  1  6  2 -1</clus>
<clus scale="   61.355">  2  4  1 -1</clus>
<clus scale="  154.421">  1  3  2 -1</clus>
<clus scale="   61.355">  2  3  1 -1</clus>
</clustering>
</event>
<event>
 6    0  0.1849053E+002  0.1956655E+03  0.7546771E-02  0.1153448E+00
         21   -1    0    0  504  502  0.00000000000E+00  0.00000000000E+00  0.15550738636E+03  0.15550738636E+03  0.00000000000E+00 0. -1.
          2   -1    0    0  505    0 -0.00000000000E+00 -0.00000000000E+00 -0.22331998015E+04  0.22331998015E+04  0.00000000000E+00 0.  1.
         21    1    1    2  503  501 -0.15204600687E+03  0.24450877649E+02  0.33801105631E+02  0.15766530489E+03  0.00000000000E+00 0. -1.
         21    1    1    2  504  503 -0.30386155322E+02  0.10497672623E+02  0.43897932950E+02  0.54410918786E+02  0.00000000000E+00 0. -1.
         21    1    1    2  505  502  0.62481396177E+02  0.34157474345E+02 -0.14562766040E+03  0.16210513069E+03  0.00000000000E+00 0. -1.
          2    1    1    2  501    0  0.11995076602E+03 -0.69106024616E+02 -0.20097637933E+04  0.20145258335E+04  0.00000000000E+00 0.  1.
<scales pt_clust_3="30.43197" pt_clust_4="30.43197" pt_clust_5="71.20855" pt_clust_6="183.98016"></scales>
<clustering>
<clus scale="   30.432">  3  4 -1 -1</clus>
<clus scale="   71.209">  2  5  1 -1</clus>
<clus scale="  183.980">  2  6  1 -1</clus>
<clus scale="  195.665">  1  3  2 -1</clus>
</clustering>
</event>
<event>
 6    0  0.1849053E+002  0.1075208E+03  0.7546771E-02  0.1265231E+00
          2   -1    0    0  503    0 -0.00000000000E+00  0.00000000000E+00  0.10990499802E+04  0.10990499802E+04  0.00000000000E+00 0.  1.
         21   -1    0    0  505  502  0.00000000000E+00 -0.00000000000E+00 -0.15292593070E+03  0.15292593070E+03  0.00000000000E+00 0.  1.
         21    1    1    2  503  504 -0.16748252274E+02  0.40525385787E+02  0.25714978325E+03  0.26086169108E+03  0.00000000000E+00 0.  1.
         21    1    1    2  504  502 -0.64336689066E+02  0.87544976798E+02 -0.45796555837E+02  0.11790104770E+03  0.00000000000E+00 0.  1.
         21    1    1    2  505  501 -0.99124444593E+01 -0.12356449124E+03 -0.86193248766E+01  0.12426074526E+03  0.00000000000E+00 0.  1.
          2    1    1    2  501    0  0.90997385800E+02 -0.45058713415E+01  0.74339014694E+03  0.74895242683E+03  0.00000000000E+00 0.  1.
<scales pt_clust_3="43.84987" pt_clust_4="14000.00000" pt_clust_5="107.52082" pt_clust_6="82.37742"></scales>
<clustering>
<clus scale="   43.850">  1  3  2 -1</clus>
<clus scale="   82.377">  1  6  2 -1</clus>
<clus scale="  107.521">  1  5  2 -1</clus>
<clus scale="  107.521">  2  3  1 -1</clus>
</clustering>
</event>
<event>
 6    0  0.1849053E+002  0.7602398E+02  0.7546771E-02  0.1340729E+00
         21   -1    0    0  505  502  0.00000000000E+00  0.00000000000E+00  0.82396012361E+02  0.82396012361E+02  0.00000000000E+00 0.  1.
          2   -1    0    0  503    0 -0.00000000000E+00 -0.00000000000E+00 -0.88368280076E+03  0.88368280076E+03  0.00000000000E+00 0.  1.
         21    1    1    2  503  502 -0.26759266534E+02 -0.40868811744E+02 -0.12347266456E+03  0.13278485235E+03  0.00000000000E+00 0.  1.
         21    1    1    2  504  501 -0.60190309391E+02 -0.45985101034E+02  0.17040967749E+02  0.77639535312E+02  0.00000000000E+00 0.  1.
         21    1    1    2  505  504 -0.15199482508E+02  0.42458757444E+02  0.64532503614E+01  0.45556720606E+02  0.00000000000E+00 0. -1.
          2    1    1    2  501    0  0.10214905843E+03  0.44395155334E+02 -0.70130834194E+03  0.71009770485E+03  0.00000000000E+00 0.  1.
<scales pt_clust_3="46.69902" pt_clust_4="76.02398" pt_clust_5="45.09734" pt_clust_6="14000.00000"></scales>
<clustering>
<clus scale="   45.097">  1  5  2 -1</clus>
<clus scale="   46.699">  2  3  1 -1</clus>
<clus scale="   76.024">  1  4  2 -1</clus>
<clus scale="   45.097">  1  3  2 -1</clus>
</clustering>
</event>
<event>
 6    0  0.1849053E+002  0.1362619E+03  0.7546771E-02  0.1218449E+00
          1   -1    0    0  505    0 -0.00000000000E+00  0.00000000000E+00  0.23529793479E+04  0.23529793479E+04  0.00000000000E+00 0.  1.
         21   -1    0    0  503  502  0.00000000000E+00 -0.00000000000E+00 -0.29203674640E+02  0.29203674640E+02  0.00000000000E+00 0.  1.
         21    1    1    2  503  504  0.49714672760E+02  0.24682304854E+01  0.73735258882E+02  0.88963640054E+02  0.00000000000E+00 0.  1.
         21    1    1    2  504  501  0.64952733120E+02 -0.52306298461E+02  0.12949603391E+03  0.15402606661E+03  0.00000000000E+00 0.  1.
         21    1    1    2  505  502 -0.16953142165E+03 -0.40659960642E+02  0.12032997427E+04  0.12158636462E+04  0.00000000000E+00 0.  1.
          1    1    1    2  501    0  0.54864015770E+02  0.90498028617E+02  0.91724463774E+03  0.92332966966E+03  0.00000000000E+00 0.  1.
<scales pt_clust_3="35.47600" pt_clust_4="35.47600" pt_clust_5="128.29155" pt_clust_6="105.82983"></scales>
<clustering>
<clus scale="   35.476">  3  4 -1 -1</clus>
<clus scale="  105.830">  1  6  2 -1</clus>
<clus scale="  128.292">  1  5  2 -1</clus>
<clus scale="  136.262">  2  3  1 -1</clus>
</clustering>
</event>
<event>
 6    0  0.1849053E+002  0.1114693E+03  0.7546771E-02  0.1257873E+00
         21   -1    0    0  503  502  0.00000000000E+00  0.00000000000E+00  0.11474502098E+03  0.11474502098E+03  0.00000000000E+00 0.  1.
          2   -1    0    0  505    0 -0.00000000000E+00 -0.00000000000E+00 -0.12622583708E+04  0.12622583708E+04  0.00000000000E+00 0. -1.
         21    1    1    2  503  501  0.45635372334E+02  0.24245602688E+02 -0.92493127691E+02  0.10595005959E+03  0.00000000000E+00 0. -1.
         21    1    1    2  504  502 -0.40360816190E+02 -0.10616114684E+03  0.74763129198E+02  0.13597319614E+03  0.00000000000E+00 0.  1.
         21    1    1    2  505  504 -0.34110125296E+02  0.70781936367E+02 -0.82541901762E+03  0.82915025045E+03  0.00000000000E+00 0. -1.
          2    1    1    2  501    0  0.28835569152E+02  0.11133607787E+02 -0.30436433366E+03  0.30592988555E+03  0.00000000000E+00 0. -1.
<scales pt_clust_3="54.85900" pt_clust_4="111.46927" pt_clust_5="14000.00000" pt_clust_6="30.91031"></scales>
<clustering>
<clus scale="   30.910">  2  6  1 -1</clus>
<clus scale="   54.859">  2  3  1 -1</clus>
<clus scale="  111.469">  1  4  2 -1</clus>
<clus scale="  111.469">  1  3  2 -1</clus>
</clustering>
</event>
<event>
 6    0  0.1849053E+002  0.1097640E+03  0.7546771E-02  0.1261008E+00
         21   -1    0    0  504  502  0.00000000000E+00  0.00000000000E+00  0.12572749317E+03  0.12572749317E+03  0.00000000000E+00 0. -1.
          2   -1    0    0  503    0 -0.00000000000E+00 -0.00000000000E+00 -0.13471668648E+04  0.13471668648E+04  0.00000000000E+00 0.  1.
         21    1    1    2  503  505 -0.43913262068E+01  0.62578264992E+02 -0.11844778021E+03  0.13403432259E+03  0.00000000000E+00 0. -1.
         21    1    1    2  504  501  0.18546555183E+02  0.70557220901E+02  0.71942825060E+01  0.73307938392E+02  0.00000000000E+00 0. -1.
         21    1    1    2  505  502  0.22657407936E+02 -0.27136235041E+02  0.70859420484E+02  0.79188325262E+02  0.00000000000E+00 0. -1.
          2    1    1    2  501    0 -0.36812636912E+02 -0.10599925085E+03 -0.11810452944E+04  0.11863637717E+04  0.00000000000E+00 0.  1.
<scales pt_clust_3="58.41443" pt_clust_4="14000.00000" pt_clust_5="35.35157" pt_clust_6="109.76401"></scales>
<clustering>
<clus scale="   35.352">  1  5  2 -1</clus>
<clus scale="   58.414">  1  3  2 -1</clus>
<clus scale="  109.764">  2  6  1 -1</clus>
<clus scale="   35.352">  1  3  2 -1</clus>
</clustering>
</event>
<event>
 6    0  0.1849053E+002  0.2673118E+03  0.7546771E-02  0.1102828E+00
         21   -1    0    0  505  502  0.00000000000E+00  0.00000000000E+00  0.94952710287E+03  0.94952710287E+03  0.00000000000E+00 0. -1.
         -2   -1    0    0    0  501 -0.00000000000E+00 -0.00000000000E+00 -0.13479415648E+04  0.13479415648E+04  0.00000000000E+00 0.  1.
         21    1    1    2  503  501 -0.76224783470E+02  0.10620516683E+03 -0.14332085166E+03  0.19398613764E+03  0.00000000000E+00 0. -1.
         21    1    1    2  504  503  0.85537534094E+02 -0.99954973204E+02  0.35559541445E+03  0.37915137503E+03  0.00000000000E+00 0. -1.
         21    1    1    2  505  504  0.98333593437E+02 -0.88855288634E+02  0.54490882458E+03  0.56079442314E+03  0.00000000000E+00 0. -1.
         -2    1    1    2    0  502 -0.10764634406E+03  0.82605095013E+02 -0.11555978493E+04  0.11635367319E+04  0.00000000000E+00 0.  1.
<scales pt_clust_3="130.72779" pt_clust_4="55.76114" pt_clust_5="55.76114" pt_clust_6="261.38720"></scales>
<clustering>
<clus scale="   55.761">  4  5 -1 -1</clus>
<clus scale="  130.728">  2  3  1 -1</clus>
<clus scale="  261.387">  2  6  1 -1</clus>
<clus scale="  267.312">  1  3  2 -1</clus>
</clustering>
</event>
<event>
 6    0  0.1849053E+002  0.9514631E+02  0.7546771E-02  0.1290847E+00
          2   -1    0    0  502    0 -0.00000000000E+00  0.00000000000E+00  0.33292616628E+03  0.33292616628E+03  0.00000000000E+00 0.  1.
         21   -1    0    0  504  502  0.00000000000E+00 -0.00000000000E+00 -0.76957430569E+03  0.76957430569E+03  0.00000000000E+00 0.  1.
         21    1    1    2  503  505  0.16395169259E+02 -0.53394702237E+02 -0.57139617085E+03  0.57411965640E+03  0.00000000000E+00 0.  1.
         21    1    1    2  504  503  0.28877658762E+02 -0.82339681042E+01 -0.14996858832E+03  0.15294539839E+03  0.00000000000E+00 0.  1.
         21    1    1    2  505  501  0.53376120302E+02  0.82117529598E+02  0.31453732686E+02  0.10286708018E+03  0.00000000000E+00 0.  1.
          2    1    1    2  501    0 -0.98648948323E+02 -0.20488859257E+02  0.25326288708E+03  0.27256833699E+03  0.00000000000E+00 0.  1.
<scales pt_clust_3="74.74104" pt_clust_4="30.02861" pt_clust_5="95.14631" pt_clust_6="14000.00000"></scales>
<clustering>
<clus scale="   30.029">  2  4  1 -1</clus>
<clus scale="   74.741">  2  3  1 -1</clus>
<clus scale="   95.146">  2  5  1 -1</clus>
<clus scale="   30.029">  2  3  1 -1</clus>
</clustering>
</event>
<event>
 6    0  0.1849053E+002  0.1025663E+03  0.7546771E-02  0.1274990E+00
          1   -1    0    0  505    0 -0.00000000000E+00  0.00000000000E+00  0.25132274707E+04  0.25132274707E+04  0.00000000000E+00 0. -1.
         21   -1    0    0  504  502  0.00000000000E+00 -0.00000000000E+00 -0.91030950504E+01  0.91030950504E+01  0.00000000000E+00 0. -1.
         21    1    1    2  503  502  0.48183317227E+02  0.38357481583E+01  0.44725801537E+03  0.44986228708E+03  0.00000000000E+00 0. -1.
         21    1    1    2  504  501 -0.22534456070E+02 -0.20924948732E+02  0.99659715383E+02  0.10429628018E+03  0.00000000000E+00 0. -1.
         21    1    1    2  505  503  0.21853318829E+02 -0.87742742279E+02  0.72957943747E+03  0.73516155500E+03  0.00000000000E+00 0. -1.
          1    1    1    2  501    0 -0.47502179986E+02  0.10483194285E+03  0.12276272074E+04  0.12330104435E+04  0.00000000000E+00 0. -1.
<scales pt_clust_3="43.85889" pt_clust_4="30.75151" pt_clust_5="14000.00000" pt_clust_6="102.56634"></scales>
<clustering>
<clus scale="   30.752">  2  4  1 -1</clus>
<clus scale="   43.859">  2  3  1 -1</clus>
<clus scale="  102.566">  1  6  2 -1</clus>
<clus scale="   30.752">  2  3  1 -1</clus>
</clustering>
</event>
<event>
 6    0  0.1849053E+002  0.2201939E+03  0.7546771E-02  0.1133739E+00
         -4   -1    0    0    0  501 -0.00000000000E+00  0.00000000000E+00  0.28242420720E+03  0.28242420720E+03  0.00000000000E+00 0.  1.
         21   -1    0    0  503  502  0.00000000000E+00 -0.00000000000E+00 -0.51192553214E+03  0.51192553214E+03  0.00000000000E+00 0.  1.
         21    1    1    2  503  501 -0.13557157232E+03  0.73000086294E+02  0.34328317281E+02  0.15775644896E+03  0.00000000000E+00 0.  1.
         21    1    1    2  504  505  0.46473718391E+02  0.43665341151E+00 -0.60956318780E+02  0.76652918838E+02  0.00000000000E+00 0.  1.
         21    1    1    2  505  502  0.15331911777E+03 -0.11289845721E+03 -0.34784368550E+03  0.39654513369E+03  0.00000000000E+00 0.  1.
         -4    1    1    2    0  504 -0.64221263840E+02  0.39461717507E+02  0.14497036206E+03  0.16339523785E+03  0.00000000000E+00 0.  1.
<scales pt_clust_3="210.35975" pt_clust_4="32.14840" pt_clust_5="32.14840" pt_clust_6="75.37637"></scales>
<clustering>
<clus scale="   32.148">  4  5 -1 -1</clus>
<clus scale="   75.376">  1  6  2 -1</clus>
<clus scale="  210.360">  1  3  2 -1</clus>
<clus scale="  220.194">  2  3  1 -1</clus>
</clustering>
</event>
<event>
 6    0  0.1849053E+002  0.1106313E+03  0.7546771E-02  0.1259405E+00
          1   -1    0    0  503    0 -0.00000000000E+00  0.00000000000E+00  0.16484361589E+04  0.16484361589E+04  0.00000000000E+00 0.  1.
         21   -1    0    0  505  502  0.00000000000E+00 -0.00000000000E+00 -0.31647818986E+02  0.31647818986E+02  0.00000000000E+00 0.  1.
         21    1    1    2  503  504 -0.14089854689E+02  0.12408925475E+03  0.50474254942E+03  0.51996317980E+03  0.00000000000E+00 0.  1.
         21    1    1    2  504  502  0.46577997970E+02  0.12062466126E+02  0.23602940988E+02  0.53592087169E+02  0.00000000000E+00 0.  1.
         21    1    1    2  505  501 -0.23372438724E+02 -0.30370660111E+02  0.51654832598E+02  0.64318501368E+02  0.00000000000E+00 0.  1.
          1    1    1    2  501    0 -0.91157045562E+01 -0.10578106077E+03  0.10367880169E+04  0.10422102095E+04  0.00000000000E+00 0.  1.
<scales pt_clust_3="14000.00000" pt_clust_4="33.26665" pt_clust_5="38.32294" pt_clust_6="110.63126"></scales>
<clustering>
<clus scale="   38.323">  2  5  1 -1</clus>
<clus scale="   33.267">  2  4  1 -1</clus>
<clus scale="  110.631">  1  6  2 -1</clus>
<clus scale="   38.323">  2  3  1 -1</clus>
</clustering>
</event>
<event>
 6    0  0.1849053E+002  0.1389946E+03  0.7546771E-02  0.1214688E+00
          2   -1    0    0  505    0 -0.00000000000E+00  0.00000000000E+00  0.67832376471E+03  0.67832376471E+03  0.00000000000E+00 0. -1.
         21   -1    0    0  504  502  0.00000000000E+00 -0.00000000000E+00 -0.42050780600E+03  0.42050780600E+03  0.00000000000E+00 0.  1.
         21    1    1    2  503  501 -0.88003711570E+02 -0.19721606808E+02  0.32659400274E+03  0.33881741049E+03  0.00000000000E+00 0.  1.
         21    1    1    2  504  503  0.10822287206E+03 -0.12624927415E+02 -0.35575619631E+03  0.37206726548E+03  0.00000000000E+00 0.  1.
         21    1    1    2  505  502  0.19859537687E+02  0.38245766705E+02 -0.39803417572E+02  0.58663889731E+02  0.00000000000E+00 0.  1.
          2    1    1    2  501    0 -0.40078698172E+02 -0.58992324822E+01  0.32678156985E+03  0.32928300501E+03  0.00000000000E+00 0. -1.
<scales pt_clust_3="32.81307" pt_clust_4="130.08657" pt_clust_5="43.09455" pt_clust_6="32.81307"></scales>
<clustering>
<clus scale="   32.813">  3  6 -1 -1</clus>
<clus scale="   43.095">  2  5  1 -1</clus>
<clus scale="  130.087">  2  4  1 -1</clus>
<clus scale="   43.095">  2  3  1 -1</clus>
</clustering>
</event>
<event>
 6    0  0.1849053E+002  0.1528838E+03  0.7546771E-02  0.1196974E+00
          2   -1    0    0  503    0 -0.00000000000E+00  0.00000000000E+00  0.22917453098E+04  0.22917453098E+04  0.00000000000E+00 0.  1.
         21   -1    0    0  505  502  0.00000000000E+00 -0.00000000000E+00 -0.15456721586E+03  0.15456721586E+03  0.00000000000E+00 0.  1.
         21    1    1    2  503  504 -0.80838983217E+02  0.60478744125E+01  0.19438477595E+04  0.19455373628E+04  0.00000000000E+00 0.  1.
         21    1    1    2  504  502 -0.34092254316E+02  0.41726384501E+02 -0.11524779915E+02  0.55101665310E+02  0.00000000000E+00 0. -1.
         21    1    1    2  505  501  0.20521502598E+03 -0.54837025514E+02 -0.98579178150E+01  0.21264403307E+03  0.00000000000E+00 0.  1.
          2    1    1    2  501    0 -0.90283788446E+02  0.70627666013E+01  0.21471303213E+03  0.23302946443E+03  0.00000000000E+00 0.  1.
<scales pt_clust_3="81.32391" pt_clust_4="53.88296" pt_clust_5="152.88382" pt_clust_6="14000.00000"></scales>
<clustering>
<clus scale="   53.883">  2  4  1 -1</clus>
<clus scale="   81.324">  1  3  2 -1</clus>
<clus scale="  152.884">  2  5  1 -1</clus>
<clus scale="   53.883">  2  3  1 -1</clus>
</clustering>
</event>
<event>
 6    0  0.1849053E+002  0.8860836E+02  0.7546771E-02  0.1306257E+00
          2   -1    0    0  504    0 -0.00000000000E+00  0.00000000000E+00  0.69607563130E+03  0.69607563130E+03  0.00000000000E+00 0.  1.
         21   -1    0    0  505  502  0.00000000000E+00 -0.00000000000E+00 -0.51221504444E+02  0.51221504444E+02  0.00000000000E+00 0.  1.
         21    1    1    2  503  501  0.54218435198E+02  0.36926448242E+02  0.67244940011E+02  0.93941914246E+02  0.00000000000E+00 0.  1.
         21    1    1    2  504  502 -0.27220384050E+02 -0.20445330295E+02  0.36795983376E+02  0.50128886197E+02  0.00000000000E+00 0.  1.
         21    1    1    2  505  503  0.29696797117E+02  0.62840574080E+02  0.18545836682E+02  0.71935982429E+02  0.00000000000E+00 0.  1.
          2    1    1    2  501    0 -0.56694848265E+02 -0.79321692027E+02  0.52226736679E+03  0.53129035287E+03  0.00000000000E+00 0.  1.
<scales pt_clust_3="14000.00000" pt_clust_4="34.04351" pt_clust_5="52.33221" pt_clust_6="88.60836"></scales>
<clustering>
<clus scale="   34.044">  2  4  1 -1</clus>
<clus scale="   52.332">  2  5  1 -1</clus>
<clus scale="   88.608">  1  6  2 -1</clus>
<clus scale="   34.044">  2  3  1 -1</clus>
</clustering>
</event>
<event>
 6    0  0.1849053E+002  0.1465177E+03  0.7546771E-02  0.1204819E+00
          2   -1    0    0  503    0 -0.00000000000E+00  0.00000000000E+00  0.10569920403E+04  0.10569920403E+04  0.00000000000E+00 0. -1.
         21   -1    0    0  501  502  0.00000000000E+00 -0.00000000000E+00 -0.48367010288E+03  0.48367010288E+03  0.00000000000E+00 0. -1.
         21    1    1    2  503  504 -0.32798304977E+02  0.15928293593E+02  0.72009439545E+02  0.80714303130E+02  0.00000000000E+00 0. -1.
         21    1    1    2  504  505  0.44706825620E+02  0.25119234820E+02 -0.10839072879E+03  0.11990924194E+03  0.00000000000E+00 0. -1.
         21    1    1    2  505  502  0.45552096480E+02  0.77106583403E+02 -0.35515684294E+03  0.36627421666E+03  0.00000000000E+00 0. -1.
          2    1    1    2  501    0 -0.57460617123E+02 -0.11815411182E+03  0.96486006961E+03  0.97376438145E+03  0.00000000000E+00 0. -1.
<scales pt_clust_3="36.46148" pt_clust_4="40.71364" pt_clust_5="40.71364" pt_clust_6="136.25792"></scales>
<clustering>
<clus scale="   36.461">  1  3  2 -1</clus>
<clus scale="   40.714">  4  5 -1 -1</clus>
<clus scale="  136.258">  1  6  2 -1</clus>
<clus scale="  146.518">  2  3  1 -1</clus>
</clustering>
</event>
<event>
 6    0  0.1849053E+002  0.1852018E+03  0.7546771E-02  0.1162862E+00
         21   -1    0    0  505  502  0.00000000000E+00  0.00000000000E+00  0.59381437427E+03  0.59381437427E+03  0.00000000000E+00 0. -1.
          1   -1    0    0  503    0 -0.00000000000E+00 -0.00000000000E+00 -0.14267299076E+04  0.14267299076E+04  0.00000000000E+00 0.  1.
         21    1    1    2  503  504  0.15573257169E+02 -0.35142724463E+02 -0.22749177742E+03  0.23071637613E+03  0.00000000000E+00 0. -1.
         21    1    1    2  504  502  0.17678148189E+02  0.21942709620E+03  0.39055554240E+03  0.44832398906E+03  0.00000000000E+00 0. -1.
         21    1    1    2  505  501 -0.18501238960E+02 -0.14609307694E+03  0.14094627340E+03  0.20384144563E+03  0.00000000000E+00 0. -1.
          1    1    1    2  501    0 -0.14750166398E+02 -0.38191294795E+02 -0.11369255717E+04  0.11376624710E+04  0.00000000000E+00 0.  1.
<scales pt_clust_3="38.43875" pt_clust_4="14000.00000" pt_clust_5="185.20185" pt_clust_6="71.56367"></scales>
<clustering>
<clus scale="   38.439">  2  3  1 -1</clus>
<clus scale="   71.564">  2  6  1 -1</clus>
<clus scale="  185.202">  2  5  1 -1</clus>
<clus scale="  185.202">  1  3  2 -1</clus>
</clustering>
</event>
<event>
 6    0  0.1849053E+002  0.1858474E+03  0.7546771E-02  0.1162261E+00
         21   -1    0    0  503  502  0.00000000000E+00  0.00000000000E+00  0.48108239677E+03  0.48108239677E+03  0.00000000000E+00 0. -1.
          2   -1    0    0  504    0 -0.00000000000E+00 -0.00000000000E+00 -0.11466522802E+04  0.11466522802E+04  0.00000000000E+00 0.  1.
         21    1    1    2  503  505 -0.52138367234E+02 -0.30143848631E+02 -0.30218761176E+01  0.60300851432E+02  0.00000000000E+00 0.  1.
         21    1    1    2  504  502 -0.22169425314E+02  0.92737038911E+02 -0.22859613158E+03  0.24768494742E+03  0.00000000000E+00 0. -1.
         21    1    1    2  505  501 -0.10195194593E+03 -0.81481720166E+02  0.42402207777E+03  0.44365323445E+03  0.00000000000E+00 0. -1.
          2    1    1    2  501    0  0.17625973848E+03  0.18888529887E+02 -0.85797395347E+03  0.87609564364E+03  0.00000000000E+00 0.  1.
<scales pt_clust_3="60.22509" pt_clust_4="94.99516" pt_clust_5="14000.00000" pt_clust_6="185.84739"></scales>
<clustering>
<clus scale="   60.225">  1  3  2 -1</clus>
<clus scale="   94.995">  2  4  1 -1</clus>
<clus scale="  185.847">  2  6  1 -1</clus>
<clus scale="   60.225">  1  3  2 -1</clus>
</clustering>
</event>
<event>
 6    0  0.1849053E+002  0.3610980E+03  0.7546771E-02  0.1058150E+00
         -2   -1    0    0    0  501 -0.00000000000E+00  0.00000000000E+00  0.22733945395E+03  0.22733945395E+03  0.00000000000E+00 0.  1.
         21   -1    0    0  504  502  0.00000000000E+00 -0.00000000000E+00 -0.14200214315E+04  0.14200214315E+04  0.00000000000E+00 0.  1.
         21    1    1    2  503  502 -0.11068425364E+03 -0.39276912929E+02 -0.13668481057E+03  0.18021214536E+03  0.00000000000E+00 0.  1.
         21    1    1    2  504  501 -0.45996104700E+02  0.58455045765E+02 -0.44350178867E+02  0.86600071527E+02  0.00000000000E+00 0.  1.
         21    1    1    2  505  503 -0.25584134877E+03  0.10737650668E+03 -0.88997737952E+03  0.93222542659E+03  0.00000000000E+00 0.  1.
         -2    1    1    2    0  505  0.41252170712E+03 -0.12655463952E+03 -0.12166960858E+03  0.44832324196E+03  0.00000000000E+00 0.  1.
<scales pt_clust_3="120.18857" pt_clust_4="74.38168" pt_clust_5="361.09802" pt_clust_6="14000.00000"></scales>
<clustering>
<clus scale="   74.382">  1  4  2 -1</clus>
<clus scale="  120.189">  2  3  1 -1</clus>
<clus scale="  361.098">  2  5  1 -1</clus>
<clus scale="  120.189">  2  3  1 -1</clus>
</clustering>
</event>
<event>
 6    0  0.1849053E+002  0.8627105E+02  0.7546771E-02  0.1312142E+00
          2   -1    0    0  503    0 -0.00000000000E+00  0.00000000000E+00  0.25267062393E+04  0.25267062393E+04  0.00000000000E+00 0.  1.
         21   -1    0    0  501  502  0.00000000000E+00 -0.00000000000E+00 -0.29071816449E+03  0.29071816449E+03  0.00000000000E+00 0.  1.
         21    1    1    2  503  505  0.60882026353E+02  0.49225052520E+02  0.39080342251E+03  0.39856874184E+03  0.00000000000E+00 0. -1.
         21    1    1    2  504  502 -0.10569568509E+02 -0.39026368461E+02 -0.79181823858E+02  0.88907448750E+02  0.00000000000E+00 0.  1.
         21    1    1    2  505  504 -0.17451660561E+02  0.73989084150E+02 -0.19466946543E+03  0.20898599427E+03  0.00000000000E+00 0.  1.
          2    1    1    2  501    0 -0.32860797282E+02 -0.84187768210E+02  0.21190359416E+04  0.21209622189E+04  0.00000000000E+00 0.  1.
<scales pt_clust_3="14000.00000" pt_clust_4="40.43233" pt_clust_5="45.37153" pt_clust_6="86.27105"></scales>
<clustering>
<clus scale="   40.432">  2  4  1 -1</clus>
<clus scale="   45.372">  2  5  1 -1</clus>
<clus scale="   86.271">  1  6  2 -1</clus>
<clus scale="   40.432">  2  3  1 -1</clus>
</clustering>
</event>
<event>
 6    0  0.1849053E+002  0.1269836E+03  0.7546771E-02  0.1232001E+00
          2   -1    0    0  505    0 -0.00000000000E+00  0.00000000000E+00  0.94672770514E+03  0.94672770514E+03  0.00000000000E+00 0.  1.
         21   -1    0    0  501  502  0.00000000000E+00 -0.00000000000E+00 -0.92861177716E+02  0.92861177716E+02  0.00000000000E+00 0.  1.
         21    1    1    2  503  502  0.41737392791E+02 -0.47675023583E+02  0.21847404243E+02  0.67024077037E+02  0.00000000000E+00 0.  1.
         21    1    1    2  504  503 -0.86653349402E+02 -0.85806864455E+02  0.34997229196E+01  0.12199946316E+03  0.00000000000E+00 0.  1.
         21    1    1    2  505  504 -0.12693347645E+01  0.70124167737E+02  0.13046862560E+03  0.14812519157E+03  0.00000000000E+00 0. -1.
          2    1    1    2  501    0  0.46185291376E+02  0.63357720301E+02  0.69805077466E+03  0.70244015109E+03  0.00000000000E+00 0.  1.
<scales pt_clust_3="63.36338" pt_clust_4="14000.00000" pt_clust_5="64.25783" pt_clust_6="126.98357"></scales>
<clustering>
<clus scale="   63.363">  2  3  1 -1</clus>
<clus scale="   64.258">  1  5  2 -1</clus>
<clus scale="  126.984">  1  6  2 -1</clus>
<clus scale="   63.363">  2  3  1 -1</clus>
</clustering>
</event>
<event>
 6    0  0.1849053E+002  0.1591940E+03  0.7546771E-02  0.1189610E+00
          2   -1    0    0  504    0 -0.00000000000E+00  0.00000000000E+00  0.13284869854E+04  0.13284869854E+04  0.00000000000E+00 0. -1.
         21   -1    0    0  501  502  0.00000000000E+00 -0.00000000000E+00 -0.24966448014E+03  0.24966448014E+03  0.00000000000E+00 0.  1.
         21    1    1    2  503  505  0.35960442066E+02 -0.12057728089E+03 -0.81383902809E+02  0.14985117182E+03  0.00000000000E+00 0.  1.
         21    1    1    2  504  503 -0.20873089404E+02  0.24446395978E+02  0.47126563355E+03  0.47236067735E+03  0.00000000000E+00 0. -1.
         21    1    1    2  505  502 -0.77596454755E+01 -0.40107061941E+02 -0.12455459050E+03  0.13108254853E+03  0.00000000000E+00 0.  1.
          2    1    1    2  501    0 -0.73277071866E+01  0.13623794685E+03  0.81349536499E+03  0.82485706781E+03  0.00000000000E+00 0. -1.
<scales pt_clust_3="159.19405" pt_clust_4="32.14517" pt_clust_5="40.77458" pt_clust_6="14000.00000"></scales>
<clustering>
<clus scale="   32.145">  1  4  2 -1</clus>
<clus scale="   40.775">  2  5  1 -1</clus>
<clus scale="  159.194">  2  3  1 -1</clus>
<clus scale="   40.775">  2  3  1 -1</clus>
</clustering>
</event>
<event>
 6    0  0.1849053E+002  0.7659408E+02  0.7546771E-02  0.1339005E+00
         21   -1    0    0  505  502  0.00000000000E+00  0.00000000000E+00  0.73249379472E+02  0.73249379472E+02  0.00000000000E+00 0.  1.
         -3   -1    0    0    0  501 -0.00000000000E+00 -0.00000000000E+00 -0.58773470501E+03  0.58773470501E+03  0.00000000000E+00 0.  1.
         21    1    1    2  503  504  0.51578799972E+02  0.63027538514E+02  0.13439200801E+01  0.81453356831E+02  0.00000000000E+00 0.  1.
         21    1    1    2  504  501 -0.37158826181E+02 -0.92360583823E+02 -0.34119921525E+03  0.35542672985E+03  0.00000000000E+00 0.  1.
         21    1    1    2  505  503 -0.37419694902E+02  0.87266364005E+01  0.76912571125E+01  0.39186007521E+02  0.00000000000E+00 0.  1.
         -3    1    1    2    0  502  0.22999721111E+02  0.20606408908E+02 -0.18232128748E+03  0.18491799028E+03  0.00000000000E+00 0.  1.
<scales pt_clust_3="76.59408" pt_clust_4="14000.00000" pt_clust_5="37.74621" pt_clust_6="30.88060"></scales>
<clustering>
<clus scale="   30.881">  2  6  1 -1</clus>
<clus scale="   37.746">  1  5  2 -1</clus>
<clus scale="   76.594">  1  3  2 -1</clus>
<clus scale="   37.746">  1  3  2 -1</clus>
</clustering>
</event>
<event>
 6    0  0.1849053E+002  0.9859267E+02  0.7546771E-02  0.1283283E+00
         -3   -1    0    0    0  501 -0.00000000000E+00  0.00000000000E+00  0.49173010848E+02  0.49173010848E+02  0.00000000000E+00 0. -1.
         21   -1    0    0  503  502  0.00000000000E+00 -0.00000000000E+00 -0.14739963689E+04  0.14739963689E+04  0.00000000000E+00 0.  1.
         21    1    1    2  503  501 -0.70485253423E+02 -0.85694301803E+01 -0.16749189595E+03  0.18192070056E+03  0.00000000000E+00 0.  1.
         21    1    1    2  504  505 -0.75154449749E+02  0.23707345636E+02 -0.65994320212E+03  0.66463167211E+03  0.00000000000E+00 0.  1.
         21    1    1    2  505  502 -0.18304231915E+02 -0.62106032503E+02 -0.43939610705E+03  0.44414090453E+03  0.00000000000E+00 0.  1.
         -3    1    1    2    0  504  0.16394393509E+03  0.46968117047E+02 -0.15799215295E+03  0.23247610256E+03  0.00000000000E+00 0. -1.
<scales pt_clust_3="76.01699" pt_clust_4="14000.00000" pt_clust_5="64.74723" pt_clust_6="98.59267"></scales>
<clustering>
<clus scale="   64.747">  2  5  1 -1</clus>
<clus scale="   76.017">  1  3  2 -1</clus>
<clus scale="   98.593">  1  6  2 -1</clus>
<clus scale="   64.747">  2  3  1 -1</clus>
</clustering>
</event>
<event>
 6    0  0.1849053E+002  0.9474940E+02  0.7546771E-02  0.1291741E+00
          1   -1    0    0  502    0 -0.00000000000E+00  0.00000000000E+00  0.62889468372E+03  0.62889468372E+03  0.00000000000E+00 0. -1.
         21   -1    0    0  505  502  0.00000000000E+00 -0.00000000000E+00 -0.59974041801E+02  0.59974041801E+02  0.00000000000E+00 0.  1.
         21    1    1    2  503  501 -0.49858470826E+02  0.59966295188E+01  0.20888974107E+03  0.21484122184E+03  0.00000000000E+00 0. -1.
         21    1    1    2  504  503  0.66088633318E+02 -0.57478302435E+02  0.37274716473E+02  0.95188587514E+02  0.00000000000E+00 0.  1.
         21    1    1    2  505  504  0.26266230927E+02  0.71921201898E+02  0.29880790106E+02  0.82191458114E+02  0.00000000000E+00 0.  1.
          1    1    1    2  501    0 -0.42496393419E+02 -0.20439528981E+02  0.29287539427E+03  0.29664745805E+03  0.00000000000E+00 0. -1.
<scales pt_clust_3="32.34906" pt_clust_4="88.67383" pt_clust_5="76.56745" pt_clust_6="32.34906"></scales>
<clustering>
<clus scale="   32.349">  3  6 -1 -1</clus>
<clus scale="   76.567">  2  5  1 -1</clus>
<clus scale="   88.674">  2  4  1 -1</clus>
<clus scale="   76.567">  2  3  1 -1</clus>
</clustering>
</event>
<event>
 6    0  0.1849053E+002  0.1535224E+03  0.7546771E-02  0.1196210E+00
         21   -1    0    0  503  502  0.00000000000E+00  0.00000000000E+00  0.47461878447E+02  0.47461878447E+02  0.00000000000E+00 0.  1.
          1   -1    0    0  504    0 -0.00000000000E+00 -0.00000000000E+00 -0.63464330028E+03  0.63464330028E+03  0.00000000000E+00 0.  1.
         21    1    1    2  503  505  0.19151534646E+02  0.32842086901E+02 -0.34217076520E+02  0.51148727030E+02  0.00000000000E+00 0.  1.
         21    1    1    2  504  502 -0.13424489727E+03  0.61798284550E+02 -0.29190845049E+03  0.32718689442E+03  0.00000000000E+00 0.  1.
         21    1    1    2  505  501  0.59443084019E+02 -0.70026500533E+02 -0.12892271447E+03  0.15829800163E+03  0.00000000000E+00 0.  1.
          1    1    1    2  501    0  0.55650278602E+02 -0.24613870918E+02 -0.13213318036E+03  0.14547155564E+03  0.00000000000E+00 0.  1.
<scales pt_clust_3="38.01821" pt_clust_4="147.12803" pt_clust_5="35.68733" pt_clust_6="35.68733"></scales>
<clustering>
<clus scale="   35.687">  5  6 -1 -1</clus>
<clus scale="   38.018">  1  3  2 -1</clus>
<clus scale="  147.128">  2  4  1 -1</clus>
<clus scale="   38.018">  1  3  2 -1</clus>
</clustering>
</event>
<event>
 6    0  0.1849053E+002  0.1233807E+03  0.7546771E-02  0.1237622E+00
         21   -1    0    0  501  502  0.00000000000E+00  0.00000000000E+00  0.22239226890E+03  0.22239226890E+03  0.00000000000E+00 0. -1.
          3   -1    0    0  505    0 -0.00000000000E+00 -0.00000000000E+00 -0.89805525847E+03  0.89805525847E+03  0.00000000000E+00 0.  1.
         21    1    1    2  503  504  0.97380784041E+02 -0.34674563024E+02 -0.29520205265E+02  0.10750248807E+03  0.00000000000E+00 0.  1.
         21    1    1    2  504  502 -0.13266051856E+03 -0.18251540855E+02  0.15669900536E+03  0.20612256114E+03  0.00000000000E+00 0. -1.
         21    1    1    2  505  503 -0.13003802549E+01  0.32134011510E+02 -0.20557095133E+03  0.20807138610E+03  0.00000000000E+00 0.  1.
          3    1    1    2  501    0  0.36580114776E+02  0.20792092369E+02 -0.59727083835E+03  0.59875109206E+03  0.00000000000E+00 0.  1.
<scales pt_clust_3="123.38074" pt_clust_4="14000.00000" pt_clust_5="32.16031" pt_clust_6="60.15216"></scales>
<clustering>
<clus scale="   32.160">  2  5  1 -1</clus>
<clus scale="   60.152">  2  6  1 -1</clus>
<clus scale="  123.381">  2  3  1 -1</clus>
<clus scale="  123.381">  1  3  2 -1</clus>
</clustering>
</event>
<event>
 6    0  0.1849053E+002  0.1194781E+03  0.7546771E-02  0.1243961E+00
          1   -1    0    0  503    0 -0.00000000000E+00  0.00000000000E+00  0.75386979332E+03  0.75386979332E+03  0.00000000000E+00 0.  1.
         21   -1    0    0  501  502  0.00000000000E+00 -0.00000000000E+00 -0.38036433665E+02  0.38036433665E+02  0.00000000000E+00 0.  1.
         21    1    1    2  503  504 -0.95664676072E+02  0.11545457091E+03  0.40591590908E+03  0.43272302162E+03  0.00000000000E+00 0.  1.
         21    1    1    2  504  505  0.26625330541E+02 -0.42690191871E+02  0.52830388307E+02  0.72954853417E+02  0.00000000000E+00 0.  1.
         21    1    1    2  505  502  0.55832246620E+02 -0.99625610227E+01  0.81586256775E+02  0.99362013261E+02  0.00000000000E+00 0.  1.
          1    1    1    2  501    0  0.13207098911E+02 -0.62801818016E+02  0.17550080549E+03  0.18686633869E+03  0.00000000000E+00 0.  1.
<scales pt_clust_3="110.54999" pt_clust_4="42.68367" pt_clust_5="42.68367" pt_clust_6="64.17551"></scales>
<clustering>
<clus scale="   42.684">  4  5 -1 -1</clus>
<clus scale="   64.176">  1  6  2 -1</clus>
<clus scale="  110.550">  1  3  2 -1</clus>
<clus scale="  119.478">  2  3  1 -1</clus>
</clustering>
</event>
<event>
 6    0  0.1849053E+002  0.9308482E+02  0.7546771E-02  0.1295549E+00
         21   -1    0    0  504  502  0.00000000000E+00  0.00000000000E+00  0.12768820665E+03  0.12768820665E+03  0.00000000000E+00 0.  1.
          2   -1    0    0  503    0 -0.00000000000E+00 -0.00000000000E+00 -0.14919918961E+04  0.14919918961E+04  0.00000000000E+00 0. -1.
         21    1    1    2  503  502 -0.71140148552E+02  0.89841796607E+01  0.94424106264E+02  0.11856453122E+03  0.00000000000E+00 0.  1.
         21    1    1    2  504  505  0.45064271845E+02 -0.37745450280E+02 -0.52864629752E+02  0.79058058999E+02  0.00000000000E+00 0.  1.
         21    1    1    2  505  501  0.46049932232E+02 -0.68017156663E+02 -0.27819549389E+03  0.29006837587E+03  0.00000000000E+00 0.  1.
          2    1    1    2  501    0 -0.19974055526E+02  0.96778427282E+02 -0.11276676721E+04  0.11319891367E+04  0.00000000000E+00 0. -1.
<scales pt_clust_3="39.20537" pt_clust_4="58.78357" pt_clust_5="93.08482" pt_clust_6="14000.00000"></scales>
<clustering>
<clus scale="   58.784">  1  4  2 -1</clus>
<clus scale="   39.205">  1  3  2 -1</clus>
<clus scale="   93.085">  1  5  2 -1</clus>
<clus scale="   58.784">  1  3  2 -1</clus>
</clustering>
</event>
<event>
 6    0  0.1849053E+002  0.9042459E+02  0.7546771E-02  0.1301827E+00
         -2   -1    0    0    0  501 -0.00000000000E+00  0.00000000000E+00  0.92144713967E+03  0.92144713967E+03  0.00000000000E+00 0.  1.
         21   -1    0    0  504  502  0.00000000000E+00 -0.00000000000E+00 -0.20730066687E+02  0.20730066687E+02  0.00000000000E+00 0.  1.
         21    1    1    2  503  501  0.50395092196E+02 -0.80296999686E+02  0.44329126291E+03  0.45331492061E+03  0.00000000000E+00 0.  1.
         21    1    1    2  504  503 -0.32880708455E+02  0.79233139486E+02  0.29552923731E+03  0.30772806418E+03  0.00000000000E+00 0.  1.
         21    1    1    2  505  502  0.13329199549E+02  0.27073936615E+02  0.27555485258E+02  0.40865270980E+02  0.00000000000E+00 0.  1.
         -2    1    1    2    0  505 -0.30843583290E+02 -0.26010076415E+02  0.13434108751E+03  0.14026895059E+03  0.00000000000E+00 0.  1.
<scales pt_clust_3="90.42459" pt_clust_4="14000.00000" pt_clust_5="30.17724" pt_clust_6="34.61949"></scales>
<clustering>
<clus scale="   30.177">  2  5  1 -1</clus>
<clus scale="   34.619">  2  6  1 -1</clus>
<clus scale="   90.425">  1  3  2 -1</clus>
<clus scale="   30.177">  2  3  1 -1</clus>
</clustering>
</event>
<event>
 6    0  0.1849053E+002  0.2493305E+03  0.7546771E-02  0.1113729E+00
          1   -1    0    0  504    0 -0.00000000000E+00  0.00000000000E+00  0.53523689479E+03  0.53523689479E+03  0.00000000000E+00 0.  1.
         21   -1    0    0  505  502  0.00000000000E+00 -0.00000000000E+00 -0.17545011888E+03  0.17545011888E+03  0.00000000000E+00 0.  1.
         21    1    1    2  503  502  0.49296962766E+02 -0.29199114064E+02 -0.43125643848E+02  0.71711923398E+02  0.00000000000E+00 0.  1.
         21    1    1    2  504  503  0.18373673783E+03 -0.96315042641E+02  0.21555351715E+03  0.29916399353E+03  0.00000000000E+00 0.  1.
         21    1    1    2  505  501 -0.99407151355E+01  0.45361882817E+02  0.30713979277E+02  0.55676447023E+02  0.00000000000E+00 0. -1.
          1    1    1    2  501    0 -0.22309298546E+03  0.80152273888E+02  0.15664492332E+03  0.28413464972E+03  0.00000000000E+00 0.  1.
<scales pt_clust_3="57.29554" pt_clust_4="227.71911" pt_clust_5="44.94045" pt_clust_6="44.94045"></scales>
<clustering>
<clus scale="   44.940">  5  6 -1 -1</clus>
<clus scale="   57.296">  2  3  1 -1</clus>
<clus scale="  227.719">  1  4  2 -1</clus>
<clus scale="   57.296">  2  3  1 -1</clus>
</clustering>
</event>
<event>
 6    0  0.1849053E+002  0.1324997E+03  0.7546771E-02  0.1223793E+00
         21   -1    0    0  505  502  0.00000000000E+00  0.00000000000E+00  0.91801712142E+02  0.91801712142E+02  0.00000000000E+00 0. -1.
         -3   -1    0    0    0  501 -0.00000000000E+00 -0.00000000000E+00 -0.41025059194E+03  0.41025059194E+03  0.00000000000E+00 0. -1.
         21    1    1    2  503  501 -0.39061384746E+02  0.26839262562E+01 -0.62963870954E+02  0.74144752235E+02  0.00000000000E+00 0. -1.
         21    1    1    2  504  502  0.44033306201E+02 -0.32220764449E+02 -0.75856660870E+02  0.93441654068E+02  0.00000000000E+00 0. -1.
         21    1    1    2  505  503 -0.41436448815E+02  0.11480351427E+03  0.10929093375E+02  0.12254089628E+03  0.00000000000E+00 0. -1.
         -3    1    1    2    0  504  0.36464527360E+02 -0.85266676081E+02 -0.19055744135E+03  0.21192500150E+03  0.00000000000E+00 0. -1.
<scales pt_clust_3="39.15348" pt_clust_4="34.21006" pt_clust_5="124.76799" pt_clust_6="34.21006"></scales>
<clustering>
<clus scale="   34.210">  4  6 -1 -1</clus>
<clus scale="   39.153">  2  3  1 -1</clus>
<clus scale="  124.768">  1  5  2 -1</clus>
<clus scale="  124.768">  1  3  2 -1</clus>
</clustering>
</event>
<event>
 6    0  0.1849053E+002  0.1331939E+03  0.7546771E-02  0.1222792E+00
          2   -1    0    0  504    0 -0.00000000000E+00  0.00000000000E+00  0.70914000925E+03  0.70914000925E+03  0.00000000000E+00 0.  1.
         21   -1    0    0  505  502  0.00000000000E+00 -0.00000000000E+00 -0.77264950723E+03  0.77264950723E+03  0.00000000000E+00 0. -1.
         21    1    1    2  503  501 -0.16310390108E+03  0.27247230728E+02 -0.47562862128E+03  0.50355523978E+03  0.00000000000E+00 0. -1.
         21    1    1    2  504  502  0.25280253275E+02 -0.43323586301E+02  0.34975995918E+01  0.50281781378E+02  0.00000000000E+00 0. -1.
         21    1    1    2  505  503  0.79790801565E+02 -0.84939236810E+02 -0.24114301691E+03  0.26782681077E+03  0.00000000000E+00 0. -1.
          2    1    1    2  501    0  0.58032846245E+02  0.10101559238E+03  0.64976454062E+03  0.66012568454E+03  0.00000000000E+00 0.  1.
<scales pt_clust_3="133.19391" pt_clust_4="50.15999" pt_clust_5="14000.00000" pt_clust_6="101.51329"></scales>
<clustering>
<clus scale="   50.160">  1  4  2 -1</clus>
<clus scale="  101.513">  1  6  2 -1</clus>
<clus scale="  133.194">  1  3  2 -1</clus>
<clus scale="  133.194">  2  3  1 -1</clus>
</clustering>
</event>
<event>
 6    0  0.1849053E+002  0.1069021E+03  0.7546771E-02  0.1266417E+00
          2   -1    0    0  504    0 -0.00000000000E+00  0.00000000000E+00  0.46524484769E+03  0.46524484769E+03  0.00000000000E+00 0.  1.
         21   -1    0    0  503  502  0.00000000000E+00 -0.00000000000E+00 -0.52344826707E+03  0.52344826707E+03  0.00000000000E+00 0.  1.
         21    1    1    2  503  505  0.37508828287E+02  0.24481409194E+02 -0.87470864582E+02  0.98272090373E+02  0.00000000000E+00 0.  1.
         21    1    1    2  504  502 -0.17021067909E+02 -0.12449279327E+03  0.26119966792E+03  0.28985071821E+03  0.00000000000E+00 0.  1.
         21    1    1    2  505  501 -0.51190133988E+02  0.81604722419E+02 -0.40886123629E+03  0.42005627132E+03  0.00000000000E+00 0.  1.
          2    1    1    2  501    0  0.30702373611E+02  0.18406661653E+02  0.17692901357E+03  0.18051403486E+03  0.00000000000E+00 0.  1.
<scales pt_clust_3="45.46545" pt_clust_4="14000.00000" pt_clust_5="106.90212" pt_clust_6="35.79722"></scales>
<clustering>
<clus scale="   35.797">  1  6  2 -1</clus>
<clus scale="   45.465">  2  3  1 -1</clus>
<clus scale="  106.902">  2  5  1 -1</clus>
<clus scale="   45.465">  2  3  1 -1</clus>
</clustering>
</event>
<event>
 6    0  0.1849053E+002  0.1040813E+03  0.7546771E-02  0.1271940E+00
          2   -1    0    0  504    0 -0.00000000000E+00  0.00000000000E+00  0.96398694385E+03  0.96398694385E+03  0.00000000000E+00 0.  1.
         21   -1    0    0  503  502  0.00000000000E+00 -0.00000000000E+00 -0.35262670361E+03  0.35262670361E+03  0.00000000000E+00 0.  1.
         21    1    1    2  503  501 -0.29178285250E+02  0.10804022948E+03 -0.29689777449E+03  0.31728906696E+03  0.00000000000E+00 0.  1.
         21    1    1    2  504  505  0.90431113414E+02  0.80256136603E+01  0.23599085679E+03  0.25285150036E+03  0.00000000000E+00 0.  1.
         21    1    1    2  505  502 -0.61770443224E+02 -0.71370934691E+02  0.24972794625E+02  0.97637280001E+02  0.00000000000E+00 0.  1.
          2    1    1    2  501    0  0.51761506003E+00 -0.44694908447E+02  0.64729436332E+03  0.64883580014E+03  0.00000000000E+00 0.  1.
<scales pt_clust_3="104.08133" pt_clust_4="94.63339" pt_clust_5="14000.00000" pt_clust_6="44.69791"></scales>
<clustering>
<clus scale="   44.698">  1  6  2 -1</clus>
<clus scale="   94.633">  1  4  2 -1</clus>
<clus scale="  104.081">  2  3  1 -1</clus>
<clus scale="  104.081">  2  3  1 -1</clus>
</clustering>
</event>
<event>
 6    0  0.1849053E+002  0.1839319E+03  0.7546771E-02  0.1164051E+00
          2   -1    0    0  504    0 -0.00000000000E+00  0.00000000000E+00  0.54300475283E+03  0.54300475283E+03  0.00000000000E+00 0.  1.
         21   -1    0    0  505  502  0.00000000000E+00 -0.00000000000E+00 -0.20372109532E+03  0.20372109532E+03  0.00000000000E+00 0.  1.
         21    1    1    2  503  501  0.90216033596E+01  0.63998596207E+02 -0.11330819790E+02  0.65617049010E+02  0.00000000000E+00 0.  1.
         21    1    1    2  504  502 -0.79469759773E+02 -0.43065336591E+02  0.27085904403E+03  0.28554279481E+03  0.00000000000E+00 0.  1.
         21    1    1    2  505  503  0.67933379916E+02  0.10407887049E+03 -0.11156146419E+03  0.16701292071E+03  0.00000000000E+00 0.  1.
          2    1    1    2  501    0  0.25147764980E+01 -0.12501213011E+03  0.19131689747E+03  0.22855308362E+03  0.00000000000E+00 0.  1.
<scales pt_clust_3="50.17926" pt_clust_4="90.38842" pt_clust_5="50.17926" pt_clust_6="170.26118"></scales>
<clustering>
<clus scale="   50.179">  3  5 -1 -1</clus>
<clus scale="   90.388">  1  4  2 -1</clus>
<clus scale="  170.261">  1  6  2 -1</clus>
<clus scale="  183.932">  2  3  1 -1</clus>
</clustering>
</event>
<event>
 6    0  0.1849053E+002  0.2107482E+03  0.7546771E-02  0.1140975E+00
         -2   -1    0    0    0  501 -0.00000000000E+00  0.00000000000E+00  0.15901578473E+03  0.15901578473E+03  0.00000000000E+00 0. -1.
         21   -1    0    0  503  502  0.00000000000E+00 -0.00000000000E+00 -0.47051964304E+03  0.47051964304E+03  0.00000000000E+00 0. -1.
         21    1    1    2  503  505  0.10702591955E+03  0.61253990662E+02 -0.11264935448E+03  0.16702238141E+03  0.00000000000E+00 0. -1.
         21    1    1    2  504  502  0.64949157096E+02 -0.40177553696E+02 -0.16150461527E+03  0.17865153115E+03  0.00000000000E+00 0. -1.
         21    1    1    2  505  501  0.49125561527E+02  0.25525743801E+02 -0.99384344584E+01  0.56246394297E+02  0.00000000000E+00 0.  1.
         -2    1    1    2    0  504 -0.22110063817E+03 -0.46602180767E+02 -0.27411454110E+02  0.22761512091E+03  0.00000000000E+00 0. -1.
<scales pt_clust_3="36.12692" pt_clust_4="76.37165" pt_clust_5="36.12692" pt_clust_6="203.73426"></scales>
<clustering>
<clus scale="   36.127">  3  5 -1 -1</clus>
<clus scale="   76.372">  2  4  1 -1</clus>
<clus scale="  203.734">  1  6  2 -1</clus>
<clus scale="   76.372">  2  3  1 -1</clus>
</clustering>
</event>
<event>
 6    0  0.1849053E+002  0.1993394E+03  0.7546771E-02  0.1150298E+00
         21   -1    0    0  505  502  0.00000000000E+00  0.00000000000E+00  0.30984091088E+02  0.30984091088E+02  0.00000000000E+00 0. -1.
          2   -1    0    0  504    0 -0.00000000000E+00 -0.00000000000E+00 -0.29985334466E+04  0.29985334466E+04  0.00000000000E+00 0. -1.
         21    1    1    2  503  501  0.11630184863E+03  0.20346260086E+02 -0.11837688024E+04  0.11896422436E+04  0.00000000000E+00 0. -1.
         21    1    1    2  504  502 -0.44020820784E+02  0.12953162183E+02 -0.34272406733E+03  0.34578230637E+03  0.00000000000E+00 0. -1.
         21    1    1    2  505  503 -0.18615928926E+03 -0.21008135788E+01 -0.34792397707E+03  0.39460206312E+03  0.00000000000E+00 0. -1.
          2    1    1    2  501    0  0.11387826142E+03 -0.31198608690E+02 -0.10931325087E+04  0.10994909246E+04  0.00000000000E+00 0. -1.
<scales pt_clust_3="52.19033" pt_clust_4="45.88700" pt_clust_5="192.31685" pt_clust_6="52.19033"></scales>
<clustering>
<clus scale="   45.887">  2  4  1 -1</clus>
<clus scale="   52.190">  3  6 -1 -1</clus>
<clus scale="  192.317">  1  5  2 -1</clus>
<clus scale="  192.317">  1  3  2 -1</clus>
</clustering>
</event>
<event>
 6    0  0.1849053E+002  0.8244325E+02  0.7546771E-02  0.1322257E+00
         21   -1    0    0  505  502  0.00000000000E+00  0.00000000000E+00  0.40390235511E+02  0.40390235511E+02  0.00000000000E+00 0.  1.
          1   -1    0    0  504    0 -0.00000000000E+00 -0.00000000000E+00 -0.48955088981E+03  0.48955088981E+03  0.00000000000E+00 0.  1.
         21    1    1    2  503  502  0.10878291798E+02  0.45262975423E+02 -0.36989933346E+02  0.59458635584E+02  0.00000000000E+00 0.  1.
         21    1    1    2  504  503  0.60122538634E+02  0.11746324066E+02 -0.85878139375E+02  0.10548815385E+03  0.00000000000E+00 0.  1.
         21    1    1    2  505  501  0.27035401661E+02 -0.34594892426E+02 -0.32957277494E+02  0.54899013332E+02  0.00000000000E+00 0.  1.
          1    1    1    2  501    0 -0.98036232093E+02 -0.22414407062E+02 -0.29333530408E+03  0.31009532255E+03  0.00000000000E+00 0.  1.
<scales pt_clust_3="38.43024" pt_clust_4="82.44325" pt_clust_5="43.90580" pt_clust_6="14000.00000"></scales>
<clustering>
<clus scale="   43.906">  1  5  2 -1</clus>
<clus scale="   38.430">  1  3  2 -1</clus>
<clus scale="   82.443">  1  4  2 -1</clus>
<clus scale="   43.906">  1  3  2 -1</clus>
</clustering>
</event>
<event>
 6    0  0.1849053E+002  0.1781819E+03  0.7546771E-02  0.1169574E+00
         21   -1    0    0  503  502  0.00000000000E+00  0.00000000000E+00  0.46235023862E+02  0.46235023862E+02  0.00000000000E+00 0.  1.
          1   -1    0    0  502    0 -0.00000000000E+00 -0.00000000000E+00 -0.24258612080E+04  0.24258612080E+04  0.00000000000E+00 0. -1.
         21    1    1    2  503  505 -0.37658510038E+02  0.61826482033E+01 -0.66412878799E+02  0.76596729613E+02  0.00000000000E+00 0.  1.
         21    1    1    2  504  501  0.32310317447E+02 -0.25277110116E+02 -0.30620133479E+03  0.30893712360E+03  0.00000000000E+00 0.  1.
         21    1    1    2  505  504 -0.50341456757E+02  0.13936815479E+03 -0.10906132476E+03  0.18398944915E+03  0.00000000000E+00 0.  1.
          1    1    1    2  501    0  0.55689649349E+02 -0.12027369288E+03 -0.18979506458E+04  0.19025729295E+04  0.00000000000E+00 0. -1.
<scales pt_clust_3="38.16266" pt_clust_4="33.20240" pt_clust_5="167.89005" pt_clust_6="33.20240"></scales>
<clustering>
<clus scale="   33.202">  4  6 -1 -1</clus>
<clus scale="   38.163">  1  3  2 -1</clus>
<clus scale="  167.890">  1  5  2 -1</clus>
<clus scale="   38.163">  1  3  2 -1</clus>
</clustering>
</event>
<event>
 6    0  0.1849053E+002  0.9843414E+02  0.7546771E-02  0.1283624E+00
         21   -1    0    0  505  502  0.00000000000E+00  0.00000000000E+00  0.40413616915E+03  0.40413616915E+03  0.00000000000E+00 0. -1.
         -4   -1    0    0    0  501 -0.00000000000E+00 -0.00000000000E+00 -0.19516198429E+03  0.19516198429E+03  0.00000000000E+00 0. -1.
         21    1    1    2  503  504 -0.37981575737E+02  0.31816353963E+02  0.12349348758E+03  0.13306209810E+03  0.00000000000E+00 0. -1.
         21    1    1    2  504  502 -0.37833802093E+02  0.17316577451E+02  0.23613825031E+03  0.23977600733E+03  0.00000000000E+00 0. -1.
         21    1    1    2  505  501  0.30416209486E+02  0.49008313540E+02 -0.32156683204E+02  0.66037965370E+02  0.00000000000E+00 0.  1.
         -4    1    1    2    0  503  0.45399168344E+02 -0.98141244954E+02 -0.11850086983E+03  0.16042208264E+03  0.00000000000E+00 0. -1.
<scales pt_clust_3="35.62469" pt_clust_4="35.62469" pt_clust_5="57.67981" pt_clust_6="90.43246"></scales>
<clustering>
<clus scale="   35.625">  3  4 -1 -1</clus>
<clus scale="   57.680">  2  5  1 -1</clus>
<clus scale="   90.432">  2  6  1 -1</clus>
<clus scale="   98.434">  1  3  2 -1</clus>
</clustering>
</event>
<event>
 6    0  0.1849053E+002  0.1299790E+03  0.7546771E-02  0.1227487E+00
         21   -1    0    0  503  502  0.00000000000E+00  0.00000000000E+00  0.31943594987E+03  0.31943594987E+03  0.00000000000E+00 0. -1.
          1   -1    0    0  504    0 -0.00000000000E+00 -0.00000000000E+00 -0.88525838006E+02  0.88525838006E+02  0.00000000000E+00 0.  1.
         21    1    1    2  503  501  0.65264793013E+02 -0.24274551811E+01  0.76257545130E+01  0.65753614940E+02  0.00000000000E+00 0.  1.
         21    1    1    2  504  505 -0.94179960052E+02  0.83059610517E+02  0.19962431773E+03  0.23583602779E+03  0.00000000000E+00 0. -1.
         21    1    1    2  505  502 -0.94186029648E+01 -0.31061824168E+02  0.28940403929E+02  0.43486710406E+02  0.00000000000E+00 0. -1.
          1    1    1    2  501    0  0.38333770004E+02 -0.49570331168E+02 -0.52803643119E+01  0.62885434737E+02  0.00000000000E+00 0.  1.
<scales pt_clust_3="55.61843" pt_clust_4="117.42433" pt_clust_5="32.45839" pt_clust_6="55.61843"></scales>
<clustering>
<clus scale="   32.458">  1  5  2 -1</clus>
<clus scale="   55.618">  3  6 -1 -1</clus>
<clus scale="  117.424">  1  4  2 -1</clus>
<clus scale="   32.458">  1  3  2 -1</clus>
</clustering>
</event>
<event>
 6    0  0.1849053E+002  0.1872704E+03  0.7546771E-02  0.1160947E+00
         21   -1    0    0  501  502  0.00000000000E+00  0.00000000000E+00  0.12198050714E+03  0.12198050714E+03  0.00000000000E+00 0.  1.
          2   -1    0    0  505    0 -0.00000000000E+00 -0.00000000000E+00 -0.24848742448E+04  0.24848742448E+04  0.00000000000E+00 0.  1.
         21    1    1    2  503  502  0.13078626499E+03  0.23519103597E+02  0.45540222838E+02  0.14047101922E+03  0.00000000000E+00 0.  1.
         21    1    1    2  504  503  0.40598611401E+02  0.32542405539E+02 -0.43559743529E+01  0.52213311698E+02  0.00000000000E+00 0. -1.
         21    1    1    2  505  504 -0.28996687797E+02 -0.13179013637E+02 -0.92805606467E+02  0.98119187193E+02  0.00000000000E+00 0. -1.
          2    1    1    2  501    0 -0.14238818859E+03 -0.42882495498E+02 -0.23112723796E+04  0.23160512338E+04  0.00000000000E+00 0.  1.
<scales pt_clust_3="33.74599" pt_clust_4="33.74599" pt_clust_5="31.85113" pt_clust_6="179.31745"></scales>
<clustering>
<clus scale="   31.851">  2  5  1 -1</clus>
<clus scale="   33.746">  3  4 -1 -1</clus>
<clus scale="  179.317">  2  6  1 -1</clus>
<clus scale="  187.270">  1  3  2 -1</clus>
</clustering>
</event>
<event>
 6    0  0.1849053E+002  0.1816039E+03  0.7546771E-02  0.1166260E+00
          2   -1    0    0  505    0 -0.00000000000E+00  0.00000000000E+00  0.17065840546E+04  0.17065840546E+04  0.00000000000E+00 0. -1.
         21   -1    0    0  501  502  0.00000000000E+00 -0.00000000000E+00 -0.31224133968E+03  0.31224133968E+03  0.00000000000E+00 0.  1.
         21    1    1    2  503  502  0.18623673754E+00 -0.61574206699E+02 -0.86257842933E+02  0.10598034290E+03  0.00000000000E+00 0.  1.
         21    1    1    2  504  503  0.68921362611E+02 -0.97257929183E+02 -0.18129471509E+03  0.21697242390E+03  0.00000000000E+00 0.  1.
         21    1    1    2  505  504  0.48289077587E+02 -0.27878818370E+02  0.73594556188E+02  0.92332129990E+02  0.00000000000E+00 0.  1.
          2    1    1    2  501    0 -0.11739667694E+03  0.18671095425E+03  0.15883007167E+04  0.16035404974E+04  0.00000000000E+00 0. -1.
<scales pt_clust_3="37.41891" pt_clust_4="37.41891" pt_clust_5="55.75898" pt_clust_6="173.98095"></scales>
<clustering>
<clus scale="   37.419">  3  4 -1 -1</clus>
<clus scale="   55.759">  1  5  2 -1</clus>
<clus scale="  173.981">  1  6  2 -1</clus>
<clus scale="  181.604">  2  3  1 -1</clus>
</clustering>
</event>
<event>
 6    0  0.1849053E+002  0.7213341E+02  0.7546771E-02  0.1352985E+00
         21   -1    0    0  504  502  0.00000000000E+00  0.00000000000E+00  0.25524575110E+03  0.25524575110E+03  0.00000000000E+00 0. -1.
          1   -1    0    0  503    0 -0.00000000000E+00 -0.00000000000E+00 -0.53247689787E+03  0.53247689787E+03  0.00000000000E+00 0.  1.
         21    1    1    2  503  505  0.96239031869E+02 -0.66359285459E+01 -0.16667973131E+03  0.19258276048E+03  0.00000000000E+00 0.  1.
         21    1    1    2  504  501 -0.13402582947E+02 -0.62548828877E+02  0.73073501579E+02  0.97117052347E+02  0.00000000000E+00 0.  1.
         21    1    1    2  505  502 -0.56516863563E+02  0.51907778324E+02  0.14704164579E+03  0.16586084201E+03  0.00000000000E+00 0. -1.
          1    1    1    2  501    0 -0.26319585359E+02  0.17276979099E+02 -0.33066656282E+03  0.33216199414E+03  0.00000000000E+00 0.  1.
<scales pt_clust_3="72.13341" pt_clust_4="63.31259" pt_clust_5="14000.00000" pt_clust_6="31.48356"></scales>
<clustering>
<clus scale="   31.484">  2  6  1 -1</clus>
<clus scale="   63.313">  1  4  2 -1</clus>
<clus scale="   72.133">  2  3  1 -1</clus>
<clus scale="   63.313">  1  3  2 -1</clus>
</clustering>
</event>
<event>
 6    0  0.1849053E+002  0.8815720E+02  0.7546771E-02  0.1307377E+00
         21   -1    0    0  504  502  0.00000000000E+00  0.00000000000E+00  0.63627351544E+02  0.63627351544E+02  0.00000000000E+00 0.  1.
          1   -1    0    0  503    0 -0.00000000000E+00 -0.00000000000E+00 -0.79885399349E+03  0.79885399349E+03  0.00000000000E+00 0.  1.
         21    1    1    2  503  505  0.32099513759E+02  0.27536750094E+01 -0.70711102637E+02  0.77704707359E+02  0.00000000000E+00 0. -1.
         21    1    1    2  504  501  0.17967751686E+02  0.72537702651E+02 -0.13975749795E+02  0.76025521957E+02  0.00000000000E+00 0.  1.
         21    1    1    2  505  502  0.38413945116E+02 -0.22219127307E+01  0.88235090735E+01  0.39476858891E+02  0.00000000000E+00 0.  1.
          1    1    1    2  501    0 -0.88481210561E+02 -0.73069464929E+02 -0.65936329859E+03  0.66927425683E+03  0.00000000000E+00 0.  1.
<scales pt_clust_3="32.21741" pt_clust_4="14000.00000" pt_clust_5="39.15270" pt_clust_6="88.15720"></scales>
<clustering>
<clus scale="   32.217">  2  3  1 -1</clus>
<clus scale="   39.153">  1  5  2 -1</clus>
<clus scale="   88.157">  2  6  1 -1</clus>
<clus scale="   39.153">  1  3  2 -1</clus>
</clustering>
</event>
<event>
 6    0  0.1849053E+002  0.1486099E+03  0.7546771E-02  0.1202192E+00
          2   -1    0    0  503    0 -0.00000000000E+00  0.00000000000E+00  0.35806388786E+03  0.35806388786E+03  0.00000000000E+00 0. -1.
         21   -1    0    0  501  502  0.00000000000E+00 -0.00000000000E+00 -0.61272335962E+03  0.61272335962E+03  0.00000000000E+00 0. -1.
         21    1    1    2  503  505 -0.38032636662E+02  0.24173909008E+02  0.35591018762E+02  0.57424558724E+02  0.00000000000E+00 0.  1.
         21    1    1    2  504  502 -0.23300736920E+02 -0.86488101129E+02 -0.31865388163E+03  0.33100364387E+03  0.00000000000E+00 0. -1.
         21    1    1    2  505  504 -0.41399458409E+02 -0.41243461991E+02 -0.25607704288E+03  0.26266021816E+03  0.00000000000E+00 0. -1.
          2    1    1    2  501    0  0.10273283199E+03  0.10355765411E+03  0.28448043398E+03  0.31969882673E+03  0.00000000000E+00 0. -1.
<scales pt_clust_3="45.06506" pt_clust_4="32.50681" pt_clust_5="32.50681" pt_clust_6="143.05676"></scales>
<clustering>
<clus scale="   32.507">  4  5 -1 -1</clus>
<clus scale="   45.065">  1  3  2 -1</clus>
<clus scale="  143.057">  1  6  2 -1</clus>
<clus scale="  148.610">  2  3  1 -1</clus>
</clustering>
</event>
<event>
 6    0  0.1849053E+002  0.8543322E+02  0.7546771E-02  0.1314303E+00
         -1   -1    0    0    0  501 -0.00000000000E+00  0.00000000000E+00  0.22666954321E+03  0.22666954321E+03  0.00000000000E+00 0.  1.
         21   -1    0    0  503  502  0.00000000000E+00 -0.00000000000E+00 -0.12777769578E+04  0.12777769578E+04  0.00000000000E+00 0.  1.
         21    1    1    2  503  504  0.43557643758E+02 -0.37648102897E+01 -0.11309385867E+03  0.12125041442E+03  0.00000000000E+00 0. -1.
         21    1    1    2  504  505  0.37670148019E+02 -0.26340819172E+02 -0.11269294344E+04  0.11278664943E+04  0.00000000000E+00 0.  1.
         21    1    1    2  505  501 -0.21213332526E+02 -0.53821715090E+02  0.28233692994E+02  0.64373316772E+02  0.00000000000E+00 0. -1.
         -1    1    1    2    0  502 -0.60014459251E+02  0.83927344552E+02  0.16068218542E+03  0.19095627561E+03  0.00000000000E+00 0.  1.
<scales pt_clust_3="43.72004" pt_clust_4="14000.00000" pt_clust_5="57.66093" pt_clust_6="85.43322"></scales>
<clustering>
<clus scale="   43.720">  2  3  1 -1</clus>
<clus scale="   57.661">  1  5  2 -1</clus>
<clus scale="   85.433">  1  6  2 -1</clus>
<clus scale="   43.720">  2  3  1 -1</clus>
</clustering>
</event>
<event>
 6    0  0.1849053E+002  0.1775265E+03  0.7546771E-02  0.1170219E+00
          1   -1    0    0  504    0 -0.00000000000E+00  0.00000000000E+00  0.21090903303E+04  0.21090903303E+04  0.00000000000E+00 0.  1.
         21   -1    0    0  503  502  0.00000000000E+00 -0.00000000000E+00 -0.91482395840E+02  0.91482395840E+02  0.00000000000E+00 0.  1.
         21    1    1    2  503  501  0.91421822470E+02  0.41087363356E+02  0.96673861813E+03  0.97192061241E+03  0.00000000000E+00 0.  1.
         21    1    1    2  504  505 -0.17209106282E+02 -0.10964795649E+03  0.80868066899E+02  0.13732615171E+03  0.00000000000E+00 0.  1.
         21    1    1    2  505  502 -0.10521132282E+03 -0.12800463741E+02 -0.10920088353E+02  0.10654821749E+03  0.00000000000E+00 0.  1.
          1    1    1    2  501    0  0.30998606629E+02  0.81361056870E+02  0.98092133779E+03  0.98477774453E+03  0.00000000000E+00 0.  1.
<scales pt_clust_3="67.90827" pt_clust_4="161.88534" pt_clust_5="105.98714" pt_clust_6="67.90827"></scales>
<clustering>
<clus scale="   67.908">  3  6 -1 -1</clus>
<clus scale="  105.987">  2  5  1 -1</clus>
<clus scale="  161.885">  2  4  1 -1</clus>
<clus scale="  105.987">  2  3  1 -1</clus>
</clustering>
</event>
<event>
 6    0  0.1849053E+002  0.1310487E+03  0.7546771E-02  0.1225908E+00
          1   -1    0    0  504    0 -0.00000000000E+00  0.00000000000E+00  0.37437419304E+04  0.37437419304E+04  0.00000000000E+00 0.  1.
         21   -1    0    0  505  502  0.00000000000E+00 -0.00000000000E+00 -0.18889150686E+03  0.18889150686E+03  0.00000000000E+00 0.  1.
         21    1    1    2  503  501 -0.95145916612E+02  0.68516972113E+02 -0.11212606597E+03  0.16223309029E+03  0.00000000000E+00 0.  1.
         21    1    1    2  504  502 -0.85273562722E+00  0.45363823145E+02  0.13984413034E+03  0.14702035369E+03  0.00000000000E+00 0.  1.
         21    1    1    2  505  503  0.21016822580E+02  0.39969560098E+02 -0.35002842322E+02  0.57135554048E+02  0.00000000000E+00 0.  1.
          1    1    1    2  501    0  0.74981829659E+02 -0.15385035536E+03  0.35621352015E+04  0.35662444393E+04  0.00000000000E+00 0.  1.
<scales pt_clust_3="131.04867" pt_clust_4="46.36911" pt_clust_5="45.15831" pt_clust_6="14000.00000"></scales>
<clustering>
<clus scale="   45.158">  2  5  1 -1</clus>
<clus scale="   46.369">  1  4  2 -1</clus>
<clus scale="  131.049">  2  3  1 -1</clus>
<clus scale="   45.158">  2  3  1 -1</clus>
</clustering>
</event>
<event>
 6    0  0.1849053E+002  0.1117458E+03  0.7546771E-02  0.1257371E+00
         21   -1    0    0  503  502  0.00000000000E+00  0.00000000000E+00  0.70795148478E+02  0.70795148478E+02  0.00000000000E+00 0.  1.
          1   -1    0    0  505    0 -0.00000000000E+00 -0.00000000000E+00 -0.75386293911E+03  0.75386293911E+03  0.00000000000E+00 0.  1.
         21    1    1    2  503  501  0.59594393288E+02  0.14665275888E+02 -0.39126599003E+02  0.72783602396E+02  0.00000000000E+00 0.  1.
         21    1    1    2  504  502 -0.12776174074E+03 -0.10349427212E+03 -0.96947025090E+02  0.19087391763E+03  0.00000000000E+00 0.  1.
         21    1    1    2  505  504  0.84800503018E+01  0.31019826658E+02 -0.72872431580E+02  0.79652571731E+02  0.00000000000E+00 0. -1.
          1    1    1    2  501    0  0.59687297148E+02  0.57809169576E+02 -0.47412173496E+03  0.48134799583E+03  0.00000000000E+00 0.  1.
<scales pt_clust_3="62.70734" pt_clust_4="14000.00000" pt_clust_5="32.15806" pt_clust_6="111.74575"></scales>
<clustering>
<clus scale="   32.158">  2  5  1 -1</clus>
<clus scale="   62.707">  1  3  2 -1</clus>
<clus scale="  111.746">  2  6  1 -1</clus>
<clus scale="   62.707">  1  3  2 -1</clus>
</clustering>
</event>
<event>
 6    0  0.1849053E+002  0.5493337E+03  0.7546771E-02  0.1001648E+00
         21   -1    0    0  505  502  0.00000000000E+00  0.00000000000E+00  0.70823687720E+03  0.70823687720E+03  0.00000000000E+00 0. -1.
         -2   -1    0    0    0  501 -0.00000000000E+00 -0.00000000000E+00 -0.44069344640E+03  0.44069344640E+03  0.00000000000E+00 0. -1.
         21    1    1    2  503  502 -0.20283137593E+02 -0.36427139485E+03  0.65704455119E+02  0.37070490987E+03  0.00000000000E+00 0. -1.
         21    1    1    2  504  501  0.43424616532E+02  0.16023244125E+03  0.59139978183E+02  0.17623186309E+03  0.00000000000E+00 0. -1.
         21    1    1    2  505  504  0.26103507606E+02  0.34657366235E+03  0.24014203611E+03  0.42244868807E+03  0.00000000000E+00 0. -1.
         -2    1    1    2    0  503 -0.49244986545E+02 -0.14253470875E+03 -0.97443038617E+02  0.17954486256E+03  0.00000000000E+00 0. -1.
<scales pt_clust_3="128.71330" pt_clust_4="58.48955" pt_clust_5="518.50620" pt_clust_6="128.71330"></scales>
<clustering>
<clus scale="   58.490">  4  5 -1 -1</clus>
<clus scale="  128.713">  3  6 -1 -1</clus>
<clus scale="  518.506">  1  4  2 -1</clus>
<clus scale="  518.506">  1  3  2 -1</clus>
</clustering>
</event>
<event>
 6    0  0.2267279E+002  0.8487019E+02  0.7546771E-02  0.1315772E+00
         21   -1    0    0  504  502  0.00000000000E+00  0.00000000000E+00  0.20683439943E+04  0.20683439943E+04  0.00000000000E+00 0.  1.
          2   -1    0    0  505    0 -0.00000000000E+00 -0.00000000000E+00 -0.14430120676E+04  0.14430120676E+04  0.00000000000E+00 0.  1.
         21    1    1    2  503  502  0.30011859732E+02 -0.12314605163E+01  0.11222578858E+03  0.11617596930E+03  0.00000000000E+00 0.  1.
         21    1    1    2  504  501  0.16976040616E+01 -0.62675280185E+02  0.19330573636E+04  0.19340738981E+04  0.00000000000E+00 0.  1.
         21    1    1    2  505  503  0.53865573367E+02  0.75201566380E+02 -0.92380464747E+02  0.13073226781E+03  0.00000000000E+00 0. -1.
          2    1    1    2  501    0 -0.85575037160E+02 -0.11294825679E+02 -0.13275707607E+04  0.13303739266E+04  0.00000000000E+00 0.  1.
<scales pt_clust_3="30.03711" pt_clust_4="71.18962" pt_clust_5="84.87019" pt_clust_6="14000.00000"></scales>
<clustering>
<clus scale="   30.037">  1  3  2 -1</clus>
<clus scale="   71.190">  1  4  2 -1</clus>
<clus scale="   84.870">  1  5  2 -1</clus>
<clus scale="   30.037">  1  3  2 -1</clus>
</clustering>
</event>
<event>
 6    0  0.1849053E+002  0.1586830E+03  0.7546771E-02  0.1190192E+00
         21   -1    0    0  501  502  0.00000000000E+00  0.00000000000E+00  0.16316619119E+03  0.16316619119E+03  0.00000000000E+00 0.  1.
          2   -1    0    0  503    0 -0.00000000000E+00 -0.00000000000E+00 -0.51227694993E+03  0.51227694993E+03  0.00000000000E+00 0. -1.
         21    1    1    2  503  505  0.32916642389E+02  0.36201407692E+02 -0.10404065741E+03  0.11497176027E+03  0.00000000000E+00 0. -1.
         21    1    1    2  504  502 -0.69329132274E+02 -0.19997834408E+02  0.66792575536E+02  0.98324412582E+02  0.00000000000E+00 0.  1.
         21    1    1    2  505  504 -0.84404922131E+02  0.18056869799E+02  0.35083467232E+02  0.93172373051E+02  0.00000000000E+00 0.  1.
          2    1    1    2  501    0  0.12081741202E+03 -0.34260443083E+02 -0.34694614410E+03  0.36897459521E+03  0.00000000000E+00 0. -1.
<scales pt_clust_3="48.92900" pt_clust_4="47.10564" pt_clust_5="47.10564" pt_clust_6="150.08641"></scales>
<clustering>
<clus scale="   47.106">  4  5 -1 -1</clus>
<clus scale="   48.929">  2  3  1 -1</clus>
<clus scale="  150.086">  2  6  1 -1</clus>
<clus scale="  158.683">  1  3  2 -1</clus>
</clustering>
</event>
<event>
 6    0  0.1849053E+002  0.1444762E+03  0.7546771E-02  0.1207430E+00
         21   -1    0    0  505  502  0.00000000000E+00  0.00000000000E+00  0.72166277342E+02  0.72166277342E+02  0.00000000000E+00 0.  1.
         -1   -1    0    0    0  501 -0.00000000000E+00 -0.00000000000E+00 -0.20118232955E+04  0.20118232955E+04  0.00000000000E+00 0. -1.
         21    1    1    2  503  504 -0.82613146187E+02 -0.31338624455E+02 -0.48441332263E+01  0.88490151612E+02  0.00000000000E+00 0.  1.
         21    1    1    2  504  501 -0.24049864916E+02  0.22288412920E+02 -0.13471379126E+03  0.13864694338E+03  0.00000000000E+00 0. -1.
         21    1    1    2  505  503 -0.14238668650E+02 -0.86734681240E+02 -0.52337942441E+02  0.10229811745E+03  0.00000000000E+00 0.  1.
         -1    1    1    2    0  502  0.12090167975E+03  0.95784892775E+02 -0.17477611513E+04  0.17545543604E+04  0.00000000000E+00 0. -1.
<scales pt_clust_3="144.47621" pt_clust_4="32.78978" pt_clust_5="87.15670" pt_clust_6="14000.00000"></scales>
<clustering>
<clus scale="   32.790">  2  4  1 -1</clus>
<clus scale="   87.157">  1  5  2 -1</clus>
<clus scale="  144.476">  1  3  2 -1</clus>
<clus scale="   87.157">  1  3  2 -1</clus>
</clustering>
</event>
<event>
 6    0  0.1849053E+002  0.1323194E+03  0.7546771E-02  0.1224054E+00
         21   -1    0    0  504  502  0.00000000000E+00  0.00000000000E+00  0.94284705775E+02  0.94284705775E+02  0.00000000000E+00 0. -1.
          1   -1    0    0  505    0 -0.00000000000E+00 -0.00000000000E+00 -0.25695858273E+04  0.25695858273E+04  0.00000000000E+00 0.  1.
         21    1    1    2  503  501  0.31124077483E+01  0.41678918621E+02 -0.64233035349E+01  0.42285673315E+02  0.00000000000E+00 0. -1.
         21    1    1    2  504  503 -0.17995718944E+02  0.81180395537E+02  0.48580330133E+02  0.96302393510E+02  0.00000000000E+00 0. -1.
         21    1    1    2  505  502 -0.35623840552E+02  0.11324397478E+02 -0.20473982931E+03  0.20812423621E+03  0.00000000000E+00 0. -1.
          1    1    1    2  501    0  0.50507151748E+02 -0.13418371164E+03 -0.23127183188E+04  0.23171582300E+04  0.00000000000E+00 0.  1.
<scales pt_clust_3="32.59347" pt_clust_4="32.59347" pt_clust_5="37.38048" pt_clust_6="124.07625"></scales>
<clustering>
<clus scale="   32.593">  3  4 -1 -1</clus>
<clus scale="   37.380">  2  5  1 -1</clus>
<clus scale="  124.076">  2  6  1 -1</clus>
<clus scale="  132.319">  1  3  2 -1</clus>
</clustering>
</event>
<event>
 6    0  0.1849053E+002  0.3696295E+03  0.7546771E-02  0.1054835E+00
          2   -1    0    0  505    0 -0.00000000000E+00  0.00000000000E+00  0.19923593779E+04  0.19923593779E+04  0.00000000000E+00 0. -1.
         21   -1    0    0  501  502  0.00000000000E+00 -0.00000000000E+00 -0.48257705636E+03  0.48257705636E+03  0.00000000000E+00 0.  1.
         21    1    1    2  503  504 -0.34505182718E+03  0.28517509699E+01 -0.32683923602E+03  0.47528179233E+03  0.00000000000E+00 0.  1.
         21    1    1    2  504  502 -0.22238690583E+02  0.42723193514E+02 -0.46777482551E+02  0.67141369488E+02  0.00000000000E+00 0.  1.
         21    1    1    2  505  503 -0.18091834166E+02  0.29682259985E+02  0.86734108021E+02  0.93440657722E+02  0.00000000000E+00 0.  1.
          2    1    1    2  501    0  0.38538235193E+03 -0.75257204469E+02  0.17966649321E+04  0.18390726147E+04  0.00000000000E+00 0. -1.
<scales pt_clust_3="369.62947" pt_clust_4="48.35026" pt_clust_5="34.76134" pt_clust_6="14000.00000"></scales>
<clustering>
<clus scale="   34.761">  1  5  2 -1</clus>
<clus scale="   48.350">  2  4  1 -1</clus>
<clus scale="  369.629">  2  3  1 -1</clus>
<clus scale="   48.350">  2  3  1 -1</clus>
</clustering>
</event>
<event>
 6    0  0.1849053E+002  0.7353086E+02  0.7546771E-02  0.1348482E+00
          2   -1    0    0  504    0 -0.00000000000E+00  0.00000000000E+00  0.24826291841E+04  0.24826291841E+04  0.00000000000E+00 0. -1.
         21   -1    0    0  503  502  0.00000000000E+00 -0.00000000000E+00 -0.48831315432E+03  0.48831315432E+03  0.00000000000E+00 0. -1.
         21    1    1    2  503  501  0.44892001532E+01  0.71597908229E+02 -0.28442718610E+03  0.29333468525E+03  0.00000000000E+00 0. -1.
         21    1    1    2  504  505  0.41568706938E+02 -0.27790392994E+02  0.49324172373E+02  0.70236296311E+02  0.00000000000E+00 0. -1.
         21    1    1    2  505  502  0.63051422695E+02 -0.96122449459E+02 -0.16982689799E+03  0.20507604071E+03  0.00000000000E+00 0. -1.
          2    1    1    2  501    0 -0.10910932979E+03  0.52314934225E+02  0.23992459415E+04  0.24022953161E+04  0.00000000000E+00 0. -1.
<scales pt_clust_3="71.69235" pt_clust_4="50.00263" pt_clust_5="73.53086" pt_clust_6="14000.00000"></scales>
<clustering>
<clus scale="   50.003">  1  4  2 -1</clus>
<clus scale="   71.692">  2  3  1 -1</clus>
<clus scale="   73.531">  2  5  1 -1</clus>
<clus scale="   71.692">  2  3  1 -1</clus>
</clustering>
</event>
<event>
 6    0  0.1849053E+002  0.1391824E+03  0.7546771E-02  0.1214433E+00
          4   -1    0    0  503    0 -0.00000000000E+00  0.00000000000E+00  0.16019266885E+04  0.16019266885E+04  0.00000000000E+00 0.  1.
         21   -1    0    0  505  502  0.00000000000E+00 -0.00000000000E+00 -0.22107684399E+02  0.22107684399E+02  0.00000000000E+00 0.  1.
         21    1    1    2  503  502 -0.10633365867E+03  0.60301722716E+02  0.50769657141E+03  0.52220585343E+03  0.00000000000E+00 0.  1.
         21    1    1    2  504  501  0.44880726770E+02 -0.85678947078E+02  0.51639055893E+03  0.52537069861E+03  0.00000000000E+00 0.  1.
         21    1    1    2  505  504  0.28244150435E+02  0.48949295142E+02  0.74517856715E+02  0.93523668117E+02  0.00000000000E+00 0.  1.
          4    1    1    2  501    0  0.33208781463E+02 -0.23572070780E+02  0.48121401705E+03  0.48293415275E+03  0.00000000000E+00 0.  1.
<scales pt_clust_3="126.26054" pt_clust_4="38.00254" pt_clust_5="56.51341" pt_clust_6="38.00254"></scales>
<clustering>
<clus scale="   38.003">  4  6 -1 -1</clus>
<clus scale="   56.513">  2  5  1 -1</clus>
<clus scale="  126.261">  2  3  1 -1</clus>
<clus scale="   56.513">  2  3  1 -1</clus>
</clustering>
</event>
<event>
 6    0  0.1849053E+002  0.1201978E+03  0.7546771E-02  0.1242771E+00
         21   -1    0    0  505  502  0.00000000000E+00  0.00000000000E+00  0.31437310190E+02  0.31437310190E+02  0.00000000000E+00 0. -1.
          2   -1    0    0  503    0 -0.00000000000E+00 -0.00000000000E+00 -0.25002511359E+04  0.25002511359E+04  0.00000000000E+00 0. -1.
         21    1    1    2  503  504  0.43140085728E+02  0.23259357146E+02 -0.56089235528E+03  0.56302957196E+03  0.00000000000E+00 0. -1.
         21    1    1    2  504  502  0.32316138392E+02  0.13477466967E+02 -0.38227110193E+01  0.35221982283E+02  0.00000000000E+00 0. -1.
         21    1    1    2  505  501  0.22489657764E+02  0.94785631342E+02 -0.21085978643E+03  0.23227559094E+03  0.00000000000E+00 0. -1.
          2    1    1    2  501    0 -0.97945881884E+02 -0.13152245545E+03 -0.16932389730E+04  0.17011613010E+04  0.00000000000E+00 0. -1.
<scales pt_clust_3="51.37717" pt_clust_4="35.01392" pt_clust_5="120.19776" pt_clust_6="14000.00000"></scales>
<clustering>
<clus scale="   35.014">  1  4  2 -1</clus>
<clus scale="   51.377">  2  3  1 -1</clus>
<clus scale="  120.198">  1  5  2 -1</clus>
<clus scale="   35.014">  1  3  2 -1</clus>
</clustering>
</event>
<event>
 6    0  0.1849053E+002  0.2867774E+03  0.7546771E-02  0.1092044E+00
         21   -1    0    0  505  502  0.00000000000E+00  0.00000000000E+00  0.14679919518E+03  0.14679919518E+03  0.00000000000E+00 0. -1.
          1   -1    0    0  503    0 -0.00000000000E+00 -0.00000000000E+00 -0.19228506132E+04  0.19228506132E+04  0.00000000000E+00 0.  1.
         21    1    1    2  503  502  0.88060973852E+02  0.15822604263E+02 -0.19896760020E+03  0.21815864836E+03  0.00000000000E+00 0. -1.
         21    1    1    2  504  501 -0.90923825320E+02 -0.12102359158E+02 -0.82424958175E+01  0.92095319345E+02  0.00000000000E+00 0. -1.
         21    1    1    2  505  504 -0.19933290453E+03  0.39745722760E+02 -0.28514908345E+02  0.20524723946E+03  0.00000000000E+00 0. -1.
          1    1    1    2  501    0  0.20219575600E+03 -0.43465967865E+02 -0.15403264136E+04  0.15541486012E+04  0.00000000000E+00 0.  1.
<scales pt_clust_3="89.47117" pt_clust_4="30.40372" pt_clust_5="30.40372" pt_clust_6="283.18351"></scales>
<clustering>
<clus scale="   30.404">  4  5 -1 -1</clus>
<clus scale="   89.471">  2  3  1 -1</clus>
<clus scale="  283.184">  2  6  1 -1</clus>
<clus scale="  286.777">  1  3  2 -1</clus>
</clustering>
</event>
<event>
 6    0  0.1849053E+002  0.1502159E+03  0.7546771E-02  0.1200208E+00
         -2   -1    0    0    0  501 -0.00000000000E+00  0.00000000000E+00  0.35875140232E+03  0.35875140232E+03  0.00000000000E+00 0.  1.
         21   -1    0    0  501  502  0.00000000000E+00 -0.00000000000E+00 -0.20184628436E+03  0.20184628436E+03  0.00000000000E+00 0. -1.
         21    1    1    2  503  502  0.63885601308E+02 -0.68128327427E+02 -0.13367882147E+03  0.16307319327E+03  0.00000000000E+00 0. -1.
         21    1    1    2  504  503  0.15641408962E+02 -0.43348932621E+02 -0.21739297309E+02  0.50954692435E+02  0.00000000000E+00 0. -1.
         21    1    1    2  505  504 -0.29729156875E+02  0.28476523812E+02  0.39370397878E+02  0.56962824772E+02  0.00000000000E+00 0.  1.
         -2    1    1    2    0  505 -0.49797853396E+02  0.83000736236E+02  0.27295283887E+03  0.28960697620E+03  0.00000000000E+00 0.  1.
<scales pt_clust_3="147.15007" pt_clust_4="37.83714" pt_clust_5="40.27094" pt_clust_6="40.27094"></scales>
<clustering>
<clus scale="   37.837">  3  4 -1 -1</clus>
<clus scale="   40.271">  5  6 -1 -1</clus>
<clus scale="  147.150">  2  3  1 -1</clus>
<clus scale="  147.150">  2  3  1 -1</clus>
</clustering>
</event>
<event>
 6    0  0.1849053E+002  0.1706782E+03  0.7546771E-02  0.1177142E+00
          2   -1    0    0  503    0 -0.00000000000E+00  0.00000000000E+00  0.30944548015E+04  0.30944548015E+04  0.00000000000E+00 0. -1.
         21   -1    0    0  504  502  0.00000000000E+00 -0.00000000000E+00 -0.68433950377E+03  0.68433950377E+03  0.00000000000E+00 0.  1.
         21    1    1    2  503  505 -0.89724149308E+02 -0.99730439490E+02 -0.50241885245E+03  0.52002046770E+03  0.00000000000E+00 0.  1.
         21    1    1    2  504  501  0.62319878258E+02 -0.78900437792E+02  0.65885614715E+02  0.12020798865E+03  0.00000000000E+00 0. -1.
         21    1    1    2  505  502 -0.29400780957E+02  0.17446116151E+02 -0.14148108984E+03  0.14555298579E+03  0.00000000000E+00 0.  1.
          2    1    1    2  501    0  0.56805052006E+02  0.16118476113E+03  0.29881296253E+04  0.29930128631E+04  0.00000000000E+00 0. -1.
<scales pt_clust_3="14000.00000" pt_clust_4="98.94288" pt_clust_5="34.18732" pt_clust_6="170.67823"></scales>
<clustering>
<clus scale="   34.187">  2  5  1 -1</clus>
<clus scale="   98.943">  2  4  1 -1</clus>
<clus scale="  170.678">  1  6  2 -1</clus>
<clus scale="   34.187">  2  3  1 -1</clus>
</clustering>
</event>
<event>
 6    0  0.1849053E+002  0.8514617E+02  0.7546771E-02  0.1315051E+00
         21   -1    0    0  504  502  0.00000000000E+00  0.00000000000E+00  0.50230630126E+02  0.50230630126E+02  0.00000000000E+00 0. -1.
          2   -1    0    0  503    0 -0.00000000000E+00 -0.00000000000E+00 -0.45328608336E+03  0.45328608336E+03  0.00000000000E+00 0.  1.
         21    1    1    2  503  502 -0.47222023988E+01 -0.46757903869E+02 -0.18828895151E+03  0.19406527260E+03  0.00000000000E+00 0.  1.
         21    1    1    2  504  505  0.17799991818E+02  0.29211038435E+02 -0.87001330055E+01  0.35296129951E+02  0.00000000000E+00 0.  1.
         21    1    1    2  505  501  0.74878868623E+02 -0.15009623560E+02 -0.47521486584E+02  0.89946792343E+02  0.00000000000E+00 0. -1.
          2    1    1    2  501    0 -0.87956658043E+02  0.32556488994E+02 -0.15854488213E+03  0.18420851859E+03  0.00000000000E+00 0.  1.
<scales pt_clust_3="44.59809" pt_clust_4="34.20708" pt_clust_5="85.14617" pt_clust_6="14000.00000"></scales>
<clustering>
<clus scale="   34.207">  1  4  2 -1</clus>
<clus scale="   44.598">  2  3  1 -1</clus>
<clus scale="   85.146">  1  5  2 -1</clus>
<clus scale="   34.207">  1  3  2 -1</clus>
</clustering>
</event>
<event>
 6    0  0.1849053E+002  0.1630263E+03  0.7546771E-02  0.1185322E+00
         -3   -1    0    0    0  501 -0.00000000000E+00  0.00000000000E+00  0.38549392268E+03  0.38549392268E+03  0.00000000000E+00 0.  1.
         21   -1    0    0  505  502  0.00000000000E+00 -0.00000000000E+00 -0.84640884022E+03  0.84640884022E+03  0.00000000000E+00 0.  1.
         21    1    1    2  503  502  0.12104002427E+03 -0.44519868685E+02  0.57513369046E+02  0.14121081333E+03  0.00000000000E+00 0.  1.
         21    1    1    2  504  501  0.36544439889E+02  0.69669620760E+02 -0.47620154399E+03  0.48265646442E+03  0.00000000000E+00 0.  1.
         21    1    1    2  505  504  0.42629246744E+02  0.14812632111E+02 -0.28629752789E+03  0.28983260897E+03  0.00000000000E+00 0.  1.
         -3    1    1    2    0  503 -0.20021371090E+03 -0.39962384186E+02  0.24407078529E+03  0.31820287619E+03  0.00000000000E+00 0.  1.
<scales pt_clust_3="14000.00000" pt_clust_4="123.83269" pt_clust_5="33.26316" pt_clust_6="163.02629"></scales>
<clustering>
<clus scale="   33.263">  4  5 -1 -1</clus>
<clus scale="  123.833">  2  4  1 -1</clus>
<clus scale="  163.026">  1  6  2 -1</clus>
<clus scale="  123.833">  2  3  1 -1</clus>
</clustering>
</event>
<event>
 6    0  0.1849053E+002  0.1061398E+03  0.7546771E-02  0.1267890E+00
         21   -1    0    0  503  502  0.00000000000E+00  0.00000000000E+00  0.54663524887E+01  0.54663524887E+01  0.00000000000E+00 0. -1.
          2   -1    0    0  504    0 -0.00000000000E+00 -0.00000000000E+00 -0.35427893632E+04  0.35427893632E+04  0.00000000000E+00 0. -1.
         21    1    1    2  503  505 -0.86902067796E+01 -0.61546351581E+02 -0.53143988605E+03  0.53506245016E+03  0.00000000000E+00 0. -1.
         21    1    1    2  504  502 -0.54112471551E+02 -0.63540125466E+01 -0.91401000239E+03  0.91563246858E+03  0.00000000000E+00 0.  1.
         21    1    1    2  505  501  0.28051396905E+02 -0.33282722325E+02 -0.41444449668E+03  0.41672396296E+03  0.00000000000E+00 0. -1.
          2    1    1    2  501    0  0.34751281425E+02  0.10118308645E+03 -0.16774286256E+04  0.16808368340E+04  0.00000000000E+00 0. -1.
<scales pt_clust_3="35.82465" pt_clust_4="54.48425" pt_clust_5="35.82465" pt_clust_6="97.12337"></scales>
<clustering>
<clus scale="   35.825">  3  5 -1 -1</clus>
<clus scale="   54.484">  2  4  1 -1</clus>
<clus scale="   97.123">  2  6  1 -1</clus>
<clus scale="  106.140">  1  3  2 -1</clus>
</clustering>
</event>
<event>
 6    0  0.1849053E+002  0.1553049E+03  0.7546771E-02  0.1194102E+00
         21   -1    0    0  504  502  0.00000000000E+00  0.00000000000E+00  0.21933473181E+02  0.21933473181E+02  0.00000000000E+00 0.  1.
          2   -1    0    0  505    0 -0.00000000000E+00 -0.00000000000E+00 -0.13634429531E+04  0.13634429531E+04  0.00000000000E+00 0.  1.
         21    1    1    2  503  502  0.47822625510E+01 -0.95299426676E+02 -0.18444704711E+03  0.20766695440E+03  0.00000000000E+00 0.  1.
         21    1    1    2  504  501 -0.15650002753E+02  0.93476381784E+02 -0.46979217093E+03  0.47925717564E+03  0.00000000000E+00 0.  1.
         21    1    1    2  505  503  0.24787884691E+02 -0.49686865119E+02 -0.17965144196E+03  0.18803686977E+03  0.00000000000E+00 0.  1.
          2    1    1    2  501    0 -0.13920144488E+02  0.51509910011E+02 -0.50761881994E+03  0.51041542650E+03  0.00000000000E+00 0.  1.
<scales pt_clust_3="154.96389" pt_clust_4="35.38609" pt_clust_5="35.11040" pt_clust_6="35.38609"></scales>
<clustering>
<clus scale="   35.110">  3  5 -1 -1</clus>
<clus scale="   35.386">  4  6 -1 -1</clus>
<clus scale="  154.964">  1  3  2 -1</clus>
<clus scale="  154.964">  1  3  2 -1</clus>
</clustering>
</event>
<event>
 6    0  0.1849053E+002  0.1174936E+03  0.7546771E-02  0.1247290E+00
         21   -1    0    0  505  502  0.00000000000E+00  0.00000000000E+00  0.81338744378E+02  0.81338744378E+02  0.00000000000E+00 0.  1.
          2   -1    0    0  503    0 -0.00000000000E+00 -0.00000000000E+00 -0.12243390900E+04  0.12243390900E+04  0.00000000000E+00 0. -1.
         21    1    1    2  503  502  0.46235187452E+02 -0.52684367233E+02 -0.39522810904E+03  0.40139580626E+03  0.00000000000E+00 0.  1.
         21    1    1    2  504  501  0.84625191062E+02  0.28556311115E+02 -0.39802241555E+02  0.97780899461E+02  0.00000000000E+00 0.  1.
         21    1    1    2  505  504  0.36735070084E+02 -0.28573256028E+02  0.24959197049E+02  0.52809637865E+02  0.00000000000E+00 0.  1.
          2    1    1    2  501    0 -0.16759544860E+03  0.52701312146E+02 -0.73292919212E+03  0.75369149084E+03  0.00000000000E+00 0. -1.
<scales pt_clust_3="73.41804" pt_clust_4="117.49358" pt_clust_5="46.53919" pt_clust_6="14000.00000"></scales>
<clustering>
<clus scale="   46.539">  1  5  2 -1</clus>
<clus scale="   73.418">  2  3  1 -1</clus>
<clus scale="  117.494">  1  4  2 -1</clus>
<clus scale="   46.539">  1  3  2 -1</clus>
</clustering>
</event>
<event>
 6    0  0.1849053E+002  0.9507972E+02  0.7546771E-02  0.1290997E+00
          2   -1    0    0  504    0 -0.00000000000E+00  0.00000000000E+00  0.50078500783E+02  0.50078500783E+02  0.00000000000E+00 0.  1.
         21   -1    0    0  505  502  0.00000000000E+00 -0.00000000000E+00 -0.12234813890E+04  0.12234813890E+04  0.00000000000E+00 0.  1.
         21    1    1    2  503  502 -0.92438940898E+02 -0.58641066014E+02 -0.95976907306E+03  0.96599192854E+03  0.00000000000E+00 0.  1.
         21    1    1    2  504  503  0.18167875499E+02  0.61725596067E+02 -0.65566814113E+02  0.91864726761E+02  0.00000000000E+00 0.  1.
         21    1    1    2  505  501  0.35282682902E+02 -0.45207041123E+02 -0.14755213235E+03  0.15830406199E+03  0.00000000000E+00 0.  1.
          2    1    1    2  501    0  0.38988382497E+02  0.42122511070E+02 -0.51486865786E+00  0.57399172453E+02  0.00000000000E+00 0.  1.
<scales pt_clust_3="95.07972" pt_clust_4="14000.00000" pt_clust_5="57.34583" pt_clust_6="57.16825"></scales>
<clustering>
<clus scale="   57.346">  2  5  1 -1</clus>
<clus scale="   57.168">  1  6  2 -1</clus>
<clus scale="   95.080">  2  3  1 -1</clus>
<clus scale="   57.346">  2  3  1 -1</clus>
</clustering>
</event>
<event>
 6    0  0.1849053E+002  0.1288414E+03  0.7546771E-02  0.1229185E+00
          2   -1    0    0  504    0 -0.00000000000E+00  0.00000000000E+00  0.52750303554E+04  0.52750303554E+04  0.00000000000E+00 0.  1.
         21   -1    0    0  501  502  0.00000000000E+00 -0.00000000000E+00 -0.16557194440E+03  0.16557194440E+03  0.00000000000E+00 0. -1.
         21    1    1    2  503  502  0.10772690674E+03  0.71154728101E+02 -0.13480941303E+03  0.18665920714E+03  0.00000000000E+00 0. -1.
         21    1    1    2  504  505 -0.33648071830E+02  0.73335641868E+01  0.72508372387E+03  0.72590108178E+03  0.00000000000E+00 0. -1.
         21    1    1    2  505  503  0.55865480347E+01 -0.46276871660E+02  0.13150918117E+03  0.13952570767E+03  0.00000000000E+00 0. -1.
          2    1    1    2  501    0 -0.79665382942E+02 -0.32211420628E+02  0.43876749189E+04  0.43885163032E+04  0.00000000000E+00 0.  1.
<scales pt_clust_3="128.84138" pt_clust_4="34.43797" pt_clust_5="46.28600" pt_clust_6="14000.00000"></scales>
<clustering>
<clus scale="   34.438">  1  4  2 -1</clus>
<clus scale="   46.286">  1  5  2 -1</clus>
<clus scale="  128.841">  2  3  1 -1</clus>
<clus scale="  128.841">  2  3  1 -1</clus>
</clustering>
</event>
<event>
 6    0  0.1849053E+002  0.1032983E+03  0.7546771E-02  0.1273509E+00
         21   -1    0    0  504  502  0.00000000000E+00  0.00000000000E+00  0.20668078925E+03  0.20668078925E+03  0.00000000000E+00 0.  1.
          1   -1    0    0  503    0 -0.00000000000E+00 -0.00000000000E+00 -0.16358136920E+04  0.16358136920E+04  0.00000000000E+00 0.  1.
         21    1    1    2  503  505  0.18681578177E+02  0.23793530537E+02 -0.10486565948E+03  0.10914183431E+03  0.00000000000E+00 0.  1.
         21    1    1    2  504  501  0.42147017933E+02 -0.69220633305E+02  0.13970520168E+03  0.16150978476E+03  0.00000000000E+00 0.  1.
         21    1    1    2  505  502 -0.69909237141E+02 -0.32329869150E+02  0.24873960864E+02  0.80939704756E+02  0.00000000000E+00 0.  1.
          1    1    1    2  501    0  0.90806410309E+01  0.77756971918E+02 -0.14888464058E+04  0.14909031574E+04  0.00000000000E+00 0.  1.
<scales pt_clust_3="30.25117" pt_clust_4="14000.00000" pt_clust_5="76.52924" pt_clust_6="103.29832"></scales>
<clustering>
<clus scale="   30.251">  2  3  1 -1</clus>
<clus scale="   76.529">  1  5  2 -1</clus>
<clus scale="  103.298">  2  6  1 -1</clus>
<clus scale="   76.529">  1  3  2 -1</clus>
</clustering>
</event>
<event>
 6    0  0.1849053E+002  0.1251604E+03  0.7546771E-02  0.1234819E+00
         21   -1    0    0  504  502  0.00000000000E+00  0.00000000000E+00  0.15679989769E+03  0.15679989769E+03  0.00000000000E+00 0.  1.
          2   -1    0    0  503    0 -0.00000000000E+00 -0.00000000000E+00 -0.36862873265E+04  0.36862873265E+04  0.00000000000E+00 0.  1.
         21    1    1    2  503  505  0.55559891579E+01  0.63414091218E+02 -0.19444124672E+04  0.19454542036E+04  0.00000000000E+00 0.  1.
         21    1    1    2  504  501  0.61745761709E+02 -0.77534242852E+02  0.11843948576E+03  0.15444095859E+03  0.00000000000E+00 0.  1.
         21    1    1    2  505  502  0.31674348414E+02 -0.78718976329E+01  0.38101995194E+01  0.32859530432E+02  0.00000000000E+00 0.  1.
          2    1    1    2  501    0 -0.98976099281E+02  0.21992049267E+02 -0.17073246470E+04  0.17103325316E+04  0.00000000000E+00 0.  1.
<scales pt_clust_3="63.63803" pt_clust_4="125.16043" pt_clust_5="32.63788" pt_clust_6="14000.00000"></scales>
<clustering>
<clus scale="   32.638">  1  5  2 -1</clus>
<clus scale="   63.638">  2  3  1 -1</clus>
<clus scale="  125.160">  1  4  2 -1</clus>
<clus scale="   32.638">  1  3  2 -1</clus>
</clustering>
</event>
<event>
 6    0  0.1849053E+002  0.1069644E+03  0.7546771E-02  0.1266297E+00
         21   -1    0    0  503  502  0.00000000000E+00  0.00000000000E+00  0.38370517389E+03  0.38370517389E+03  0.00000000000E+00 0.  1.
          2   -1    0    0  505    0 -0.00000000000E+00 -0.00000000000E+00 -0.13639718026E+04  0.13639718026E+04  0.00000000000E+00 0.  1.
         21    1    1    2  503  501 -0.53622820913E+02  0.71353830630E+02 -0.27759030170E+03  0.29158729682E+03  0.00000000000E+00 0.  1.
         21    1    1    2  504  502  0.93109245228E+01  0.38596724285E+02  0.16177712934E+03  0.16657802982E+03  0.00000000000E+00 0.  1.
         21    1    1    2  505  504  0.50794551228E+02  0.13864681764E+02  0.20563274929E+03  0.21226667995E+03  0.00000000000E+00 0.  1.
          2    1    1    2  501    0 -0.64826548380E+01 -0.12381523668E+03 -0.10700862056E+04  0.10772449698E+04  0.00000000000E+00 0.  1.
<scales pt_clust_3="14000.00000" pt_clust_4="39.70391" pt_clust_5="78.22700" pt_clust_6="106.96440"></scales>
<clustering>
<clus scale="   39.704">  1  4  2 -1</clus>
<clus scale="   78.227">  1  5  2 -1</clus>
<clus scale="  106.964">  2  6  1 -1</clus>
<clus scale="   39.704">  1  3  2 -1</clus>
</clustering>
</event>
<event>
 6    0  0.1849053E+002  0.8761992E+02  0.7546771E-02  0.1308720E+00
          3   -1    0    0  503    0 -0.00000000000E+00  0.00000000000E+00  0.55873265420E+03  0.55873265420E+03  0.00000000000E+00 0.  1.
         21   -1    0    0  505  502  0.00000000000E+00 -0.00000000000E+00 -0.39121755614E+03  0.39121755614E+03  0.00000000000E+00 0.  1.
         21    1    1    2  503  504 -0.60540941078E+02 -0.22032691504E+02  0.13210725616E+03  0.14697949575E+03  0.00000000000E+00 0.  1.
         21    1    1    2  504  502  0.90727023548E+02  0.15270498224E+02 -0.30928144020E+03  0.32267567335E+03  0.00000000000E+00 0.  1.
         21    1    1    2  505  501 -0.42019362811E+02 -0.89303314548E+02 -0.21940006490E+02  0.10110426660E+03  0.00000000000E+00 0.  1.
          3    1    1    2  501    0  0.11833280341E+02  0.96065507828E+02  0.36662928859E+03  0.37919077464E+03  0.00000000000E+00 0.  1.
<scales pt_clust_3="64.42550" pt_clust_4="87.61992" pt_clust_5="14000.00000" pt_clust_6="87.25216"></scales>
<clustering>
<clus scale="   64.425">  1  3  2 -1</clus>
<clus scale="   87.252">  1  6  2 -1</clus>
<clus scale="   87.620">  2  4  1 -1</clus>
<clus scale="   87.620">  2  3  1 -1</clus>
</clustering>
</event>
<event>
 6    0  0.1849053E+002  0.2943034E+03  0.7546771E-02  0.1088123E+00
          2   -1    0    0  502    0 -0.00000000000E+00  0.00000000000E+00  0.15059338800E+04  0.15059338800E+04  0.00000000000E+00 0.  1.
         21   -1    0    0  505  502  0.00000000000E+00 -0.00000000000E+00 -0.84265075147E+02  0.84265075147E+02  0.00000000000E+00 0.  1.
         21    1    1    2  503  501  0.64213716229E+02 -0.63175694984E+02  0.34400684085E+03  0.35560550662E+03  0.00000000000E+00 0. -1.
         21    1    1    2  504  503 -0.65101285790E+02  0.71260807271E+02  0.76566636533E+02  0.12320198819E+03  0.00000000000E+00 0. -1.
         21    1    1    2  505  504 -0.18176773811E+03  0.77038493989E+02  0.18420018722E+03  0.27000768349E+03  0.00000000000E+00 0.  1.
          2    1    1    2  501    0  0.18265530767E+03 -0.85123606275E+02  0.81689514028E+03  0.84138377687E+03  0.00000000000E+00 0.  1.
<scales pt_clust_3="31.02248" pt_clust_4="42.40262" pt_clust_5="42.40262" pt_clust_6="291.70179"></scales>
<clustering>
<clus scale="   31.022">  3  6 -1 -1</clus>
<clus scale="   42.403">  4  5 -1 -1</clus>
<clus scale="  291.702">  1  3  2 -1</clus>
<clus scale="  294.303">  2  3  1 -1</clus>
</clustering>
</event>
<event>
 6    0  0.1849053E+002  0.1609916E+03  0.7546771E-02  0.1187582E+00
         -3   -1    0    0    0  501 -0.00000000000E+00  0.00000000000E+00  0.13841331361E+03  0.13841331361E+03  0.00000000000E+00 0.  1.
         21   -1    0    0  505  502  0.00000000000E+00 -0.00000000000E+00 -0.92128442427E+03  0.92128442427E+03  0.00000000000E+00 0.  1.
         21    1    1    2  503  501  0.36458613956E+02  0.64054926769E+00 -0.32837410981E+02  0.49070728494E+02  0.00000000000E+00 0.  1.
         21    1    1    2  504  502 -0.13216689879E+03  0.80516063517E+02 -0.50473414860E+03  0.52792753895E+03  0.00000000000E+00 0.  1.
         21    1    1    2  505  503  0.77791646704E+02  0.81694826519E+02 -0.29142467778E+03  0.31249628445E+03  0.00000000000E+00 0.  1.
         -3    1    1    2    0  504  0.17916638128E+02 -0.16285143930E+03  0.46125126699E+02  0.17020318598E+03  0.00000000000E+00 0.  1.
<scales pt_clust_3="36.46424" pt_clust_4="160.99163" pt_clust_5="114.89738" pt_clust_6="14000.00000"></scales>
<clustering>
<clus scale="   36.464">  1  3  2 -1</clus>
<clus scale="  114.897">  2  5  1 -1</clus>
<clus scale="  160.992">  2  4  1 -1</clus>
<clus scale="  114.897">  2  3  1 -1</clus>
</clustering>
</event>
<event>
 6    0  0.1849053E+002  0.1480667E+03  0.7546771E-02  0.1202869E+00
         21   -1    0    0  503  502  0.00000000000E+00  0.00000000000E+00  0.18973937737E+02  0.18973937737E+02  0.00000000000E+00 0.  1.
          2   -1    0    0  504    0 -0.00000000000E+00 -0.00000000000E+00 -0.16230290798E+04  0.16230290798E+04  0.00000000000E+00 0.  1.
         21    1    1    2  503  501  0.24894167067E+02  0.58469247653E+02 -0.47690879585E+03  0.48112407135E+03  0.00000000000E+00 0.  1.
         21    1    1    2  504  505 -0.59465441208E+02 -0.43638041264E+02 -0.12629460391E+03  0.14625574970E+03  0.00000000000E+00 0.  1.
         21    1    1    2  505  502 -0.44865895547E+02 -0.39650056834E+02 -0.18296277119E+03  0.19251091199E+03  0.00000000000E+00 0.  1.
          2    1    1    2  501    0  0.79437169688E+02  0.24818850445E+02 -0.81788897110E+03  0.82211228449E+03  0.00000000000E+00 0.  1.
<scales pt_clust_3="55.96478" pt_clust_4="138.28495" pt_clust_5="32.49529" pt_clust_6="55.96478"></scales>
<clustering>
<clus scale="   32.495">  4  5 -1 -1</clus>
<clus scale="   55.965">  3  6 -1 -1</clus>
<clus scale="  138.285">  1  4  2 -1</clus>
<clus scale="  138.285">  1  3  2 -1</clus>
</clustering>
</event>
<event>
 6    0  0.1849053E+002  0.2011357E+03  0.7546771E-02  0.1148784E+00
         21   -1    0    0  503  502  0.00000000000E+00  0.00000000000E+00  0.40361927833E+03  0.40361927833E+03  0.00000000000E+00 0. -1.
          1   -1    0    0  502    0 -0.00000000000E+00 -0.00000000000E+00 -0.59988734466E+03  0.59988734466E+03  0.00000000000E+00 0.  1.
         21    1    1    2  503  505 -0.67029632936E+02 -0.10290945703E+02  0.11598861422E+03  0.13435860183E+03  0.00000000000E+00 0. -1.
         21    1    1    2  504  501  0.58679846471E+01  0.75146940748E+02 -0.20418375351E+03  0.21765224819E+03  0.00000000000E+00 0. -1.
         21    1    1    2  505  504 -0.82029557905E+01 -0.17238694185E+03  0.23142074165E+03  0.28868686473E+03  0.00000000000E+00 0. -1.
          1    1    1    2  501    0  0.69364604079E+02  0.10753094680E+03 -0.33949366869E+03  0.36280890824E+03  0.00000000000E+00 0.  1.
<scales pt_clust_3="67.81501" pt_clust_4="36.95831" pt_clust_5="195.28619" pt_clust_6="36.95831"></scales>
<clustering>
<clus scale="   36.958">  4  6 -1 -1</clus>
<clus scale="   67.815">  1  3  2 -1</clus>
<clus scale="  195.286">  1  5  2 -1</clus>
<clus scale="   67.815">  1  3  2 -1</clus>
</clustering>
</event>
<event>
 6    0  0.1849053E+002  0.1384369E+03  0.7546771E-02  0.1215448E+00
          2   -1    0    0  504    0 -0.00000000000E+00  0.00000000000E+00  0.15176645148E+04  0.15176645148E+04  0.00000000000E+00 0. -1.
         21   -1    0    0  503  502  0.00000000000E+00 -0.00000000000E+00 -0.21797912939E+03  0.21797912939E+03  0.00000000000E+00 0. -1.
         21    1    1    2  503  501 -0.51053139316E+02 -0.91265192788E+02 -0.25952854585E+02  0.10774650393E+03  0.00000000000E+00 0.  1.
         21    1    1    2  504  505 -0.87793355299E+02  0.34407319048E+02  0.27833048164E+03  0.29386968855E+03  0.00000000000E+00 0. -1.
         21    1    1    2  505  502  0.16306774974E+03  0.13249721438E+03 -0.64188664183E+02  0.21969703556E+03  0.00000000000E+00 0. -1.
          2    1    1    2  501    0 -0.24221255124E+02 -0.75639340644E+02  0.11114964225E+04  0.11143304162E+04  0.00000000000E+00 0. -1.
<scales pt_clust_3="138.43695" pt_clust_4="106.63130" pt_clust_5="14000.00000" pt_clust_6="79.42279"></scales>
<clustering>
<clus scale="   79.423">  1  6  2 -1</clus>
<clus scale="  106.631">  1  4  2 -1</clus>
<clus scale="  138.437">  2  3  1 -1</clus>
<clus scale="  138.437">  2  3  1 -1</clus>
</clustering>
</event>
<event>
 6    0  0.1849053E+002  0.9609188E+02  0.7546771E-02  0.1288736E+00
          1   -1    0    0  505    0 -0.00000000000E+00  0.00000000000E+00  0.67623519800E+03  0.67623519800E+03  0.00000000000E+00 0. -1.
         21   -1    0    0  503  502  0.00000000000E+00 -0.00000000000E+00 -0.13207643346E+03  0.13207643346E+03  0.00000000000E+00 0. -1.
         21    1    1    2  503  501 -0.11170703542E+02  0.40558208431E+02 -0.83474572326E+01  0.42888610738E+02  0.00000000000E+00 0. -1.
         21    1    1    2  504  502 -0.82615603694E+02 -0.45418163191E+02 -0.72063409864E+02  0.11866458007E+03  0.00000000000E+00 0. -1.
         21    1    1    2  505  504 -0.34721919435E+02  0.10387900268E+02  0.19520508607E+03  0.19854104309E+03  0.00000000000E+00 0. -1.
          1    1    1    2  501    0  0.12850822667E+03 -0.55279455083E+01  0.42936454555E+03  0.44821739757E+03  0.00000000000E+00 0. -1.
<scales pt_clust_3="42.77575" pt_clust_4="96.09188" pt_clust_5="36.24252" pt_clust_6="14000.00000"></scales>
<clustering>
<clus scale="   36.243">  1  5  2 -1</clus>
<clus scale="   42.776">  2  3  1 -1</clus>
<clus scale="   96.092">  2  4  1 -1</clus>
<clus scale="   42.776">  2  3  1 -1</clus>
</clustering>
</event>
<event>
 6    0  0.1849053E+002  0.9794143E+02  0.7546771E-02  0.1284685E+00
         -4   -1    0    0    0  501 -0.00000000000E+00  0.00000000000E+00  0.72398457065E+02  0.72398457065E+02  0.00000000000E+00 0. -1.
         21   -1    0    0  503  502  0.00000000000E+00 -0.00000000000E+00 -0.53209456883E+03  0.53209456883E+03  0.00000000000E+00 0.  1.
         21    1    1    2  503  505 -0.26360370516E+02 -0.47571317476E+02 -0.22488640325E+03  0.23136938810E+03  0.00000000000E+00 0.  1.
         21    1    1    2  504  501 -0.19078929170E+02 -0.23535731164E+02 -0.33297456809E+02  0.45018405232E+02  0.00000000000E+00 0.  1.
         21    1    1    2  505  504  0.46300265325E+02 -0.57876703854E+02 -0.18345413156E+03  0.19786067271E+03  0.00000000000E+00 0.  1.
         -4    1    1    2    0  502 -0.86096563956E+00  0.12898375249E+03 -0.18058120141E+02  0.13024455986E+03  0.00000000000E+00 0. -1.
<scales pt_clust_3="55.84056" pt_clust_4="30.29746" pt_clust_5="14000.00000" pt_clust_6="97.94143"></scales>
<clustering>
<clus scale="   30.297">  1  4  2 -1</clus>
<clus scale="   55.841">  2  3  1 -1</clus>
<clus scale="   97.941">  1  6  2 -1</clus>
<clus scale="   55.841">  2  3  1 -1</clus>
</clustering>
</event>
<event>
 6    0  0.1849053E+002  0.9302325E+02  0.7546771E-02  0.1295691E+00
         21   -1    0    0  503  502  0.00000000000E+00  0.00000000000E+00  0.62539331928E+03  0.62539331928E+03  0.00000000000E+00 0.  1.
          2   -1    0    0  504    0 -0.00000000000E+00 -0.00000000000E+00 -0.26765761571E+03  0.26765761571E+03  0.00000000000E+00 0.  1.
         21    1    1    2  503  501 -0.84001916520E+02 -0.16546283081E+02  0.13491547714E+03  0.15978825813E+03  0.00000000000E+00 0.  1.
         21    1    1    2  504  505  0.57149524174E+02 -0.14731148860E+02 -0.20481636011E+01  0.59053110284E+02  0.00000000000E+00 0. -1.
         21    1    1    2  505  502  0.55258302376E+02  0.92601134104E+02  0.43776102130E+03  0.45084716012E+03  0.00000000000E+00 0.  1.
          2    1    1    2  501    0 -0.28405910031E+02 -0.61323702162E+02 -0.21289263127E+03  0.22336240646E+03  0.00000000000E+00 0.  1.
<scales pt_clust_3="14000.00000" pt_clust_4="59.01758" pt_clust_5="93.02325" pt_clust_6="78.67979"></scales>
<clustering>
<clus scale="   59.018">  2  4  1 -1</clus>
<clus scale="   78.680">  2  6  1 -1</clus>
<clus scale="   93.023">  1  5  2 -1</clus>
<clus scale="   93.023">  1  3  2 -1</clus>
</clustering>
</event>
<event>
 6    0  0.1849053E+002  0.4302355E+03  0.7546771E-02  0.1033786E+00
          1   -1    0    0  503    0 -0.00000000000E+00  0.00000000000E+00  0.15221647485E+04  0.15221647485E+04  0.00000000000E+00 0. -1.
         21   -1    0    0  505  502  0.00000000000E+00 -0.00000000000E+00 -0.18408975971E+03  0.18408975971E+03  0.00000000000E+00 0. -1.
         21    1    1    2  503  504 -0.25984700146E+02  0.72148948637E+02  0.87025353771E+02  0.11599175673E+03  0.00000000000E+00 0. -1.
         21    1    1    2  504  502 -0.26793159611E+03  0.20105392957E+03  0.71525691470E+02  0.34252875402E+03  0.00000000000E+00 0. -1.
         21    1    1    2  505  501  0.21301475371E+03 -0.18166242299E+03  0.72799393800E+03  0.77996903463E+03  0.00000000000E+00 0. -1.
          1    1    1    2  501    0  0.80901542548E+02 -0.91540455212E+02  0.45153000554E+03  0.46776496281E+03  0.00000000000E+00 0. -1.
<scales pt_clust_3="74.24056" pt_clust_4="74.24056" pt_clust_5="44.49431" pt_clust_6="406.89482"></scales>
<clustering>
<clus scale="   44.494">  5  6 -1 -1</clus>
<clus scale="   74.241">  3  4 -1 -1</clus>
<clus scale="  406.895">  1  5  2 -1</clus>
<clus scale="  430.236">  2  3  1 -1</clus>
</clustering>
</event>
<event>
 6    0  0.1849053E+002  0.1567056E+03  0.7546771E-02  0.1192467E+00
         21   -1    0    0  505  502  0.00000000000E+00  0.00000000000E+00  0.21453612678E+02  0.21453612678E+02  0.00000000000E+00 0. -1.
          2   -1    0    0  503    0 -0.00000000000E+00 -0.00000000000E+00 -0.39046064468E+04  0.39046064468E+04  0.00000000000E+00 0.  1.
         21    1    1    2  503  502  0.43721303106E+02  0.40309624907E+02 -0.21146382864E+03  0.21966649501E+03  0.00000000000E+00 0. -1.
         21    1    1    2  504  501 -0.57967558581E+02  0.27260475297E+02 -0.20616007591E+03  0.21588271876E+03  0.00000000000E+00 0. -1.
         21    1    1    2  505  504 -0.59522749009E+02  0.64142175112E+02 -0.16706877387E+03  0.18859785651E+03  0.00000000000E+00 0. -1.
          2    1    1    2  501    0  0.73769004485E+02 -0.13171227532E+03 -0.32984601557E+04  0.33019129892E+04  0.00000000000E+00 0.  1.
<scales pt_clust_3="59.46779" pt_clust_4="39.63855" pt_clust_5="39.63855" pt_clust_6="149.70074"></scales>
<clustering>
<clus scale="   39.639">  4  5 -1 -1</clus>
<clus scale="   59.468">  1  3  2 -1</clus>
<clus scale="  149.701">  2  6  1 -1</clus>
<clus scale="   59.468">  1  3  2 -1</clus>
</clustering>
</event>
<event>
 6    0  0.1849053E+002  0.9134774E+02  0.7546771E-02  0.1299620E+00
         21   -1    0    0  504  502  0.00000000000E+00  0.00000000000E+00  0.26450868903E+03  0.26450868903E+03  0.00000000000E+00 0.  1.
          1   -1    0    0  505    0 -0.00000000000E+00 -0.00000000000E+00 -0.12123963694E+04  0.12123963694E+04  0.00000000000E+00 0.  1.
         21    1    1    2  503  502 -0.55697718579E+02  0.37145369158E+02 -0.23627403677E+02  0.70994848470E+02  0.00000000000E+00 0.  1.
         21    1    1    2  504  501  0.45901978625E+02 -0.12950582625E+03  0.21825210005E+03  0.25790062011E+03  0.00000000000E+00 0.  1.
         21    1    1    2  505  503 -0.18459137094E+01  0.33290174088E+02 -0.14945644263E+03  0.15313024303E+03  0.00000000000E+00 0.  1.
          1    1    1    2  501    0  0.11641653663E+02  0.59070283008E+02 -0.99305593415E+03  0.99487934685E+03  0.00000000000E+00 0.  1.
<scales pt_clust_3="67.85029" pt_clust_4="91.34774" pt_clust_5="33.34131" pt_clust_6="14000.00000"></scales>
<clustering>
<clus scale="   33.341">  2  5  1 -1</clus>
<clus scale="   67.850">  1  3  2 -1</clus>
<clus scale="   91.348">  1  4  2 -1</clus>
<clus scale="   67.850">  1  3  2 -1</clus>
</clustering>
</event>
<event>
 6    0  0.1849053E+002  0.1176750E+03  0.7546771E-02  0.1246983E+00
         21   -1    0    0  505  502  0.00000000000E+00  0.00000000000E+00  0.14981163559E+03  0.14981163559E+03  0.00000000000E+00 0.  1.
         -1   -1    0    0    0  501 -0.00000000000E+00 -0.00000000000E+00 -0.17149216142E+03  0.17149216142E+03  0.00000000000E+00 0. -1.
         21    1    1    2  503  501 -0.28720510627E+01 -0.81201616231E+02  0.11490277199E+02  0.82060816630E+02  0.00000000000E+00 0.  1.
         21    1    1    2  504  502 -0.81790556288E+01  0.35864766663E+02 -0.54061430143E+02  0.65389729070E+02  0.00000000000E+00 0.  1.
         21    1    1    2  505  503  0.44638369734E+02 -0.40012320493E+02  0.49535009734E+02  0.77764304363E+02  0.00000000000E+00 0.  1.
         -1    1    1    2    0  504 -0.33587263043E+02  0.85349170061E+02 -0.28644382622E+02  0.96088946943E+02  0.00000000000E+00 0. -1.
<scales pt_clust_3="105.11680" pt_clust_4="33.49808" pt_clust_5="59.94639" pt_clust_6="33.49808"></scales>
<clustering>
<clus scale="   33.498">  4  6 -1 -1</clus>
<clus scale="   59.946">  1  5  2 -1</clus>
<clus scale="  105.117">  1  3  2 -1</clus>
<clus scale="   59.946">  1  3  2 -1</clus>
</clustering>
</event>
<event>
 6    0  0.1849053E+002  0.1392536E+03  0.7546771E-02  0.1214337E+00
          2   -1    0    0  505    0 -0.00000000000E+00  0.00000000000E+00  0.66789297425E+03  0.66789297425E+03  0.00000000000E+00 0.  1.
         21   -1    0    0  503  502  0.00000000000E+00 -0.00000000000E+00 -0.62394778460E+02  0.62394778460E+02  0.00000000000E+00 0. -1.
         21    1    1    2  503  501  0.49232288117E+02  0.10425188105E+02  0.63516698870E+02  0.81036249762E+02  0.00000000000E+00 0.  1.
         21    1    1    2  504  502 -0.10526371432E+03 -0.69699665513E+02  0.61258471212E+02  0.14032495580E+03  0.00000000000E+00 0. -1.
         21    1    1    2  505  504 -0.29818662491E+02 -0.25179174360E+02  0.62271100710E+02  0.73490362891E+02  0.00000000000E+00 0. -1.
          2    1    1    2  501    0  0.85850088693E+02  0.84453651768E+02  0.41845192500E+03  0.43543618426E+03  0.00000000000E+00 0.  1.
<scales pt_clust_3="50.32398" pt_clust_4="31.49224" pt_clust_5="31.49224" pt_clust_6="127.21383"></scales>
<clustering>
<clus scale="   31.492">  4  5 -1 -1</clus>
<clus scale="   50.324">  2  3  1 -1</clus>
<clus scale="  127.214">  1  6  2 -1</clus>
<clus scale="   50.324">  2  3  1 -1</clus>
</clustering>
</event>
<event>
 6    0  0.1849053E+002  0.1019406E+03  0.7546771E-02  0.1276267E+00
          2   -1    0    0  505    0 -0.00000000000E+00  0.00000000000E+00  0.77951176205E+03  0.77951176205E+03  0.00000000000E+00 0. -1.
         21   -1    0    0  501  502  0.00000000000E+00 -0.00000000000E+00 -0.13305766484E+03  0.13305766484E+03  0.00000000000E+00 0. -1.
         21    1    1    2  503  504  0.92164475803E+02  0.43791726326E+02 -0.67089444708E+02  0.12211879252E+03  0.00000000000E+00 0. -1.
         21    1    1    2  504  502 -0.24550144346E+02  0.32860885950E+02 -0.13620690640E+02  0.43221182611E+02  0.00000000000E+00 0.  1.
         21    1    1    2  505  503  0.35462382856E+02 -0.25032528010E+02  0.92475131511E+02  0.10215604732E+03  0.00000000000E+00 0. -1.
          2    1    1    2  501    0 -0.10307671431E+03 -0.51620084266E+02  0.63468910104E+03  0.64507340444E+03  0.00000000000E+00 0. -1.
<scales pt_clust_3="14000.00000" pt_clust_4="41.01887" pt_clust_5="41.60715" pt_clust_6="101.94062"></scales>
<clustering>
<clus scale="   41.019">  2  4  1 -1</clus>
<clus scale="   41.607">  1  5  2 -1</clus>
<clus scale="  101.941">  1  6  2 -1</clus>
<clus scale="   41.019">  2  3  1 -1</clus>
</clustering>
</event>
<event>
 6    0  0.1849053E+002  0.1643381E+03  0.7546771E-02  0.1183884E+00
         21   -1    0    0  505  502  0.00000000000E+00  0.00000000000E+00  0.63281745463E+03  0.63281745463E+03  0.00000000000E+00 0. -1.
          2   -1    0    0  504    0 -0.00000000000E+00 -0.00000000000E+00 -0.23296939350E+04  0.23296939350E+04  0.00000000000E+00 0.  1.
         21    1    1    2  503  502  0.16732973872E+03  0.47666406636E+02  0.54947621852E+03  0.57636398439E+03  0.00000000000E+00 0. -1.
         21    1    1    2  504  503  0.31276956214E+02 -0.81256566017E+02 -0.38190811952E+03  0.39170740262E+03  0.00000000000E+00 0.  1.
         21    1    1    2  505  501 -0.12472624270E+03  0.78384345142E+02 -0.20801005517E+02  0.14877305875E+03  0.00000000000E+00 0. -1.
          2    1    1    2  501    0 -0.73880452236E+02 -0.44794185761E+02 -0.18436435738E+04  0.18456669438E+04  0.00000000000E+00 0.  1.
<scales pt_clust_3="14000.00000" pt_clust_4="120.20027" pt_clust_5="164.33811" pt_clust_6="86.39931"></scales>
<clustering>
<clus scale="   86.399">  2  6  1 -1</clus>
<clus scale="  120.200">  2  4  1 -1</clus>
<clus scale="  164.338">  2  5  1 -1</clus>
<clus scale="  164.338">  1  3  2 -1</clus>
</clustering>
</event>
<event>
 6    0  0.1849053E+002  0.1933463E+03  0.7546771E-02  0.1155477E+00
          2   -1    0    0  503    0 -0.00000000000E+00  0.00000000000E+00  0.16777594107E+03  0.16777594107E+03  0.00000000000E+00 0.  1.
         21   -1    0    0  501  502  0.00000000000E+00 -0.00000000000E+00 -0.34753387814E+03  0.34753387814E+03  0.00000000000E+00 0. -1.
         21    1    1    2  503  505  0.26281112931E+02 -0.25026661178E+02 -0.10403049246E+02  0.37752537666E+02  0.00000000000E+00 0. -1.
         21    1    1    2  504  502  0.24400932029E+01  0.87789525213E+02 -0.89106775191E+02  0.12511183868E+03  0.00000000000E+00 0.  1.
         21    1    1    2  505  504  0.50178355328E+02  0.96932740221E+02 -0.12781661715E+03  0.16808007345E+03  0.00000000000E+00 0. -1.
          2    1    1    2  501    0 -0.78899561462E+02 -0.15969560426E+03  0.47568504527E+02  0.18436536942E+03  0.00000000000E+00 0.  1.
<scales pt_clust_3="36.29092" pt_clust_4="39.84530" pt_clust_5="39.84530" pt_clust_6="188.06397"></scales>
<clustering>
<clus scale="   36.291">  1  3  2 -1</clus>
<clus scale="   39.845">  4  5 -1 -1</clus>
<clus scale="  188.064">  1  6  2 -1</clus>
<clus scale="  193.346">  2  3  1 -1</clus>
</clustering>
</event>
<event>
 6    0  0.1849053E+002  0.1025244E+03  0.7546771E-02  0.1275075E+00
          1   -1    0    0  505    0 -0.00000000000E+00  0.00000000000E+00  0.12010749771E+04  0.12010749771E+04  0.00000000000E+00 0.  1.
         21   -1    0    0  501  502  0.00000000000E+00 -0.00000000000E+00 -0.35402101012E+02  0.35402101012E+02  0.00000000000E+00 0.  1.
         21    1    1    2  503  502 -0.50462803837E+02  0.11353959718E+02  0.10419823524E+03  0.11633004427E+03  0.00000000000E+00 0.  1.
         21    1    1    2  504  503 -0.88142190215E+02 -0.47341545256E+02  0.91381728623E+02  0.13550235396E+03  0.00000000000E+00 0.  1.
         21    1    1    2  505  504  0.97933784138E+02  0.32068977174E+02  0.87629693201E+03  0.88233540019E+03  0.00000000000E+00 0.  1.
          1    1    1    2  501    0  0.40671209914E+02  0.39186083635E+01  0.93795980209E+02  0.10230927969E+03  0.00000000000E+00 0.  1.
<scales pt_clust_3="44.23367" pt_clust_4="102.52442" pt_clust_5="14000.00000" pt_clust_6="40.85955"></scales>
<clustering>
<clus scale="   40.860">  2  6  1 -1</clus>
<clus scale="   44.234">  2  3  1 -1</clus>
<clus scale="  102.524">  2  4  1 -1</clus>
<clus scale="   40.860">  2  3  1 -1</clus>
</clustering>
</event>
<event>
 6    0  0.1849053E+002  0.1565636E+03  0.7546771E-02  0.1192632E+00
          2   -1    0    0  504    0 -0.00000000000E+00  0.00000000000E+00  0.12130390880E+04  0.12130390880E+04  0.00000000000E+00 0.  1.
         21   -1    0    0  505  502  0.00000000000E+00 -0.00000000000E+00 -0.62326484714E+03  0.62326484714E+03  0.00000000000E+00 0.  1.
         21    1    1    2  503  501 -0.13135598988E+03 -0.29800771197E+02 -0.15994194325E+02  0.13564031957E+03  0.00000000000E+00 0. -1.
         21    1    1    2  504  502 -0.15375094713E+03 -0.44385457185E+02  0.26694349331E+03  0.31123664819E+03  0.00000000000E+00 0. -1.
         21    1    1    2  505  503  0.15761491452E+03  0.33465918991E+02 -0.50756193954E+03  0.53252375674E+03  0.00000000000E+00 0.  1.
          2    1    1    2  501    0  0.12749202248E+03  0.40720309391E+02  0.84638688137E+03  0.85690321061E+03  0.00000000000E+00 0.  1.
<scales pt_clust_3="156.56364" pt_clust_4="53.09675" pt_clust_5="14000.00000" pt_clust_6="133.83706"></scales>
<clustering>
<clus scale="  133.837">  1  6  2 -1</clus>
<clus scale="   53.097">  1  4  2 -1</clus>
<clus scale="  156.564">  1  3  2 -1</clus>
<clus scale="  156.564">  2  3  1 -1</clus>
</clustering>
</event>
<event>
 6    0  0.1849053E+002  0.2257838E+03  0.7546771E-02  0.1129643E+00
         21   -1    0    0  505  502  0.00000000000E+00  0.00000000000E+00  0.65928585912E+03  0.65928585912E+03  0.00000000000E+00 0. -1.
         -2   -1    0    0    0  501 -0.00000000000E+00 -0.00000000000E+00 -0.37988589592E+03  0.37988589592E+03  0.00000000000E+00 0.  1.
         21    1    1    2  503  501  0.33710643326E+02 -0.16988503219E+02 -0.27509233519E+02  0.46709470601E+02  0.00000000000E+00 0. -1.
         21    1    1    2  504  502 -0.11522569971E+02  0.22613664723E+03  0.52744816489E+03  0.57399661975E+03  0.00000000000E+00 0. -1.
         21    1    1    2  505  503  0.33537750986E+02 -0.60776627878E-01  0.57246308604E+02  0.66346999056E+02  0.00000000000E+00 0. -1.
         -2    1    1    2    0  504 -0.55725824340E+02 -0.20908736738E+03 -0.27778527677E+03  0.35211866564E+03  0.00000000000E+00 0.  1.
<scales pt_clust_3="38.23181" pt_clust_4="14000.00000" pt_clust_5="33.53781" pt_clust_6="225.78376"></scales>
<clustering>
<clus scale="   33.538">  1  5  2 -1</clus>
<clus scale="   38.232">  2  3  1 -1</clus>
<clus scale="  225.784">  2  6  1 -1</clus>
<clus scale="   33.538">  1  3  2 -1</clus>
</clustering>
</event>
<event>
 6    0  0.1849053E+002  0.1291208E+03  0.7546771E-02  0.1228766E+00
         21   -1    0    0  501  502  0.00000000000E+00  0.00000000000E+00  0.13565012153E+04  0.13565012153E+04  0.00000000000E+00 0.  1.
         -3   -1    0    0    0  501 -0.00000000000E+00 -0.00000000000E+00 -0.38946637529E+02  0.38946637529E+02  0.00000000000E+00 0.  1.
         21    1    1    2  503  502 -0.38763716931E+02  0.14160188072E+02  0.78445183113E+03  0.78553663953E+03  0.00000000000E+00 0.  1.
         21    1    1    2  504  505  0.15682005969E+02 -0.31994106938E+02  0.56483661300E+02  0.66782873432E+02  0.00000000000E+00 0.  1.
         21    1    1    2  505  503 -0.51730981060E+02  0.76622568245E+02  0.42488274820E+03  0.43482463372E+03  0.00000000000E+00 0.  1.
         -3    1    1    2    0  504  0.74812692022E+02 -0.58788649379E+02  0.51736337112E+02  0.10830370613E+03  0.00000000000E+00 0.  1.
<scales pt_clust_3="41.26908" pt_clust_4="30.67644" pt_clust_5="118.99264" pt_clust_6="30.67644"></scales>
<clustering>
<clus scale="   30.676">  4  6 -1 -1</clus>
<clus scale="   41.269">  1  3  2 -1</clus>
<clus scale="  118.993">  1  5  2 -1</clus>
<clus scale="   41.269">  1  3  2 -1</clus>
</clustering>
</event>
<event>
 6    0  0.1849053E+002  0.1533690E+03  0.7546771E-02  0.1196393E+00
         -1   -1    0    0    0  501 -0.00000000000E+00  0.00000000000E+00  0.19936580613E+03  0.19936580613E+03  0.00000000000E+00 0.  1.
         21   -1    0    0  503  502  0.00000000000E+00 -0.00000000000E+00 -0.32296224360E+03  0.32296224360E+03  0.00000000000E+00 0.  1.
         21    1    1    2  503  501 -0.31375419480E+02  0.62036082367E+02  0.48636037211E+01  0.69688931002E+02  0.00000000000E+00 0.  1.
         21    1    1    2  504  505  0.14931351484E+02 -0.92640210329E+02 -0.99543527324E+02  0.13679937010E+03  0.00000000000E+00 0.  1.
         21    1    1    2  505  502  0.26110493678E+02 -0.50688011475E+02 -0.15520021472E+03  0.16534249011E+03  0.00000000000E+00 0.  1.
         -1    1    1    2    0  504 -0.96664256819E+01  0.81292139436E+02  0.12628370086E+03  0.15049725852E+03  0.00000000000E+00 0.  1.
<scales pt_clust_3="69.51901" pt_clust_4="50.32464" pt_clust_5="50.32464" pt_clust_6="139.11910"></scales>
<clustering>
<clus scale="   50.325">  4  5 -1 -1</clus>
<clus scale="   69.519">  1  3  2 -1</clus>
<clus scale="  139.119">  1  6  2 -1</clus>
<clus scale="  153.369">  2  3  1 -1</clus>
</clustering>
</event>
<event>
 6    0  0.1849053E+002  0.9967081E+02  0.7546771E-02  0.1280990E+00
         21   -1    0    0  505  502  0.00000000000E+00  0.00000000000E+00  0.42879576435E+02  0.42879576435E+02  0.00000000000E+00 0. -1.
          2   -1    0    0  503    0 -0.00000000000E+00 -0.00000000000E+00 -0.12233709590E+04  0.12233709590E+04  0.00000000000E+00 0. -1.
         21    1    1    2  503  504  0.62870438599E+02  0.10433512757E+02 -0.43298025594E+03  0.43764534988E+03  0.00000000000E+00 0.  1.
         21    1    1    2  504  502 -0.58140881157E+02 -0.88541245952E+02 -0.89086182015E+02  0.13840614915E+03  0.00000000000E+00 0. -1.
         21    1    1    2  505  501  0.37150486107E+02 -0.14679218616E+02 -0.21840799615E+02  0.45526460493E+02  0.00000000000E+00 0. -1.
          2    1    1    2  501    0 -0.41880043549E+02  0.92786951811E+02 -0.63658414504E+03  0.64467257595E+03  0.00000000000E+00 0. -1.
<scales pt_clust_3="66.32204" pt_clust_4="14000.00000" pt_clust_5="39.94544" pt_clust_6="99.67081"></scales>
<clustering>
<clus scale="   39.945">  1  5  2 -1</clus>
<clus scale="   66.322">  2  3  1 -1</clus>
<clus scale="   99.671">  2  6  1 -1</clus>
<clus scale="   39.945">  1  3  2 -1</clus>
</clustering>
</event>
<event>
 6    0  0.1849053E+002  0.1049096E+03  0.7546771E-02  0.1270298E+00
         21   -1    0    0  505  502  0.00000000000E+00  0.00000000000E+00  0.62966343095E+03  0.62966343095E+03  0.00000000000E+00 0.  1.
          1   -1    0    0  503    0 -0.00000000000E+00 -0.00000000000E+00 -0.96391690138E+03  0.96391690138E+03  0.00000000000E+00 0.  1.
         21    1    1    2  503  502 -0.42173585266E+02 -0.96256764354E+02 -0.22835651472E+03  0.25137755229E+03  0.00000000000E+00 0.  1.
         21    1    1    2  504  501  0.65377373338E+02 -0.18097209532E+02  0.40279511014E+03  0.40846739245E+03  0.00000000000E+00 0.  1.
         21    1    1    2  505  504  0.29303324360E+02  0.22641395736E+02  0.20699835099E+03  0.21028465215E+03  0.00000000000E+00 0.  1.
          1    1    1    2  501    0 -0.52507112432E+02  0.91712578150E+02 -0.71569041684E+03  0.72345073544E+03  0.00000000000E+00 0.  1.
<scales pt_clust_3="14000.00000" pt_clust_4="104.90962" pt_clust_5="33.21481" pt_clust_6="97.17371"></scales>
<clustering>
<clus scale="   33.215">  4  5 -1 -1</clus>
<clus scale="  104.910">  1  4  2 -1</clus>
<clus scale="   97.174">  2  6  1 -1</clus>
<clus scale="  104.910">  1  3  2 -1</clus>
</clustering>
</event>
<event>
 6    0  0.1849053E+002  0.8033554E+02  0.7546771E-02  0.1328102E+00
         21   -1    0    0  504  502  0.00000000000E+00  0.00000000000E+00  0.12936727805E+03  0.12936727805E+03  0.00000000000E+00 0.  1.
          2   -1    0    0  505    0 -0.00000000000E+00 -0.00000000000E+00 -0.25246619224E+04  0.25246619224E+04  0.00000000000E+00 0.  1.
         21    1    1    2  503  501 -0.89516287076E+02  0.52424654828E+02 -0.78343676582E+03  0.79027506359E+03  0.00000000000E+00 0.  1.
         21    1    1    2  504  503  0.48157237602E+02 -0.36467957911E+02  0.62961969856E+02  0.87253888944E+02  0.00000000000E+00 0.  1.
         21    1    1    2  505  502  0.33043205324E+02  0.50158489793E+02  0.32219845923E+02  0.68160442983E+02  0.00000000000E+00 0.  1.
          2    1    1    2  501    0  0.83158441499E+01 -0.66115186710E+02 -0.17070396943E+04  0.17083398049E+04  0.00000000000E+00 0.  1.
<scales pt_clust_3="14000.00000" pt_clust_4="80.33554" pt_clust_5="60.06436" pt_clust_6="66.26215"></scales>
<clustering>
<clus scale="   60.064">  1  5  2 -1</clus>
<clus scale="   66.262">  2  6  1 -1</clus>
<clus scale="   80.336">  1  4  2 -1</clus>
<clus scale="   60.064">  1  3  2 -1</clus>
</clustering>
</event>
<event>
 6    0  0.1849053E+002  0.1320992E+03  0.7546771E-02  0.1224374E+00
          2   -1    0    0  503    0 -0.00000000000E+00  0.00000000000E+00  0.55539661858E+04  0.55539661858E+04  0.00000000000E+00 0. -1.
         21   -1    0    0  504  502  0.00000000000E+00 -0.00000000000E+00 -0.14860157954E+02  0.14860157954E+02  0.00000000000E+00 0. -1.
         21    1    1    2  503  502  0.10538833961E+02  0.33489695970E+02  0.53498740151E+03  0.53613817858E+03  0.00000000000E+00 0. -1.
         21    1    1    2  504  505  0.18590705917E+02 -0.47556917687E+02  0.90698983457E+02  0.10408448668E+03  0.00000000000E+00 0. -1.
         21    1    1    2  505  501  0.66187197775E+02 -0.44010226460E+02  0.22103478872E+03  0.23489151327E+03  0.00000000000E+00 0. -1.
          2    1    1    2  501    0 -0.95316737654E+02  0.58077448177E+02  0.46923848541E+04  0.46937121652E+04  0.00000000000E+00 0. -1.
<scales pt_clust_3="35.10878" pt_clust_4="37.11415" pt_clust_5="37.11415" pt_clust_6="123.67393"></scales>
<clustering>
<clus scale="   35.109">  1  3  2 -1</clus>
<clus scale="   37.114">  4  5 -1 -1</clus>
<clus scale="  123.674">  1  6  2 -1</clus>
<clus scale="  132.099">  2  3  1 -1</clus>
</clustering>
</event>
<event>
 6    0  0.1849053E+002  0.1805610E+03  0.7546771E-02  0.1167261E+00
          2   -1    0    0  505    0 -0.00000000000E+00  0.00000000000E+00  0.10030779463E+04  0.10030779463E+04  0.00000000000E+00 0. -1.
         21   -1    0    0  503  502  0.00000000000E+00 -0.00000000000E+00 -0.12468104585E+04  0.12468104585E+04  0.00000000000E+00 0. -1.
         21    1    1    2  503  501  0.16673893727E+02 -0.32387069373E+02 -0.79742312684E+02  0.87668565785E+02  0.00000000000E+00 0. -1.
         21    1    1    2  504  502  0.92016328397E+02 -0.11814609918E+03 -0.11100979778E+04  0.11201531261E+04  0.00000000000E+00 0. -1.
         21    1    1    2  505  504 -0.58831727818E+02  0.13705726863E+03  0.70563130514E+02  0.16500006809E+03  0.00000000000E+00 0. -1.
          2    1    1    2  501    0 -0.49858494306E+02  0.13475899923E+02  0.87554464773E+03  0.87706664484E+03  0.00000000000E+00 0. -1.
<scales pt_clust_3="36.42720" pt_clust_4="14000.00000" pt_clust_5="180.56104" pt_clust_6="51.63149"></scales>
<clustering>
<clus scale="   36.427">  2  3  1 -1</clus>
<clus scale="   51.631">  1  6  2 -1</clus>
<clus scale="  180.561">  1  5  2 -1</clus>
<clus scale="   36.427">  2  3  1 -1</clus>
</clustering>
</event>
<event>
 6    0  0.1849053E+002  0.1559606E+03  0.7546771E-02  0.1193334E+00
         21   -1    0    0  504  502  0.00000000000E+00  0.00000000000E+00  0.20257763286E+03  0.20257763286E+03  0.00000000000E+00 0.  1.
          2   -1    0    0  502    0 -0.00000000000E+00 -0.00000000000E+00 -0.21371895848E+04  0.21371895848E+04  0.00000000000E+00 0.  1.
         21    1    1    2  503  505 -0.10472844558E+03  0.29705735917E+02  0.12054194452E+03  0.16242179179E+03  0.00000000000E+00 0.  1.
         21    1    1    2  504  503 -0.30717710821E+02  0.44210484798E+02  0.39681197358E+02  0.66878562693E+02  0.00000000000E+00 0.  1.
         21    1    1    2  505  501  0.77496311642E+02 -0.32861156131E+02 -0.24109862108E+03  0.25537047400E+03  0.00000000000E+00 0.  1.
          2    1    1    2  501    0  0.57949844756E+02 -0.41055064584E+02 -0.18537364727E+04  0.18550963892E+04  0.00000000000E+00 0.  1.
<scales pt_clust_3="39.14098" pt_clust_4="39.14098" pt_clust_5="145.69072" pt_clust_6="71.01903"></scales>
<clustering>
<clus scale="   39.141">  3  4 -1 -1</clus>
<clus scale="   71.019">  2  6  1 -1</clus>
<clus scale="  145.691">  2  5  1 -1</clus>
<clus scale="  155.961">  1  3  2 -1</clus>
</clustering>
</event>
<event>
 6    0  0.1849053E+002  0.9860974E+02  0.7546771E-02  0.1283247E+00
          4   -1    0    0  503    0 -0.00000000000E+00  0.00000000000E+00  0.84128833124E+02  0.84128833124E+02  0.00000000000E+00 0.  1.
         21   -1    0    0  504  502  0.00000000000E+00 -0.00000000000E+00 -0.11961880378E+04  0.11961880378E+04  0.00000000000E+00 0.  1.
         21    1    1    2  503  502  0.51615753642E+02 -0.88893027760E+02 -0.25790281711E+03  0.27763288617E+03  0.00000000000E+00 0.  1.
         21    1    1    2  504  505  0.68139620587E+02  0.83133004064E+02 -0.86058120507E+03  0.86726819081E+03  0.00000000000E+00 0.  1.
         21    1    1    2  505  501 -0.67980818902E+02  0.18034486679E+02 -0.23764236896E+02  0.74238624743E+02  0.00000000000E+00 0.  1.
          4    1    1    2  501    0 -0.51774555326E+02 -0.12274462983E+02  0.30189054435E+02  0.61177169177E+02  0.00000000000E+00 0.  1.
<scales pt_clust_3="99.70495" pt_clust_4="98.60974" pt_clust_5="14000.00000" pt_clust_6="53.20965"></scales>
<clustering>
<clus scale="   53.210">  1  6  2 -1</clus>
<clus scale="   99.705">  1  3  2 -1</clus>
<clus scale="   98.610">  2  4  1 -1</clus>
<clus scale="   98.610">  2  3  1 -1</clus>
</clustering>
</event>
<event>
 6    0  0.1849053E+002  0.1632480E+03  0.7546771E-02  0.1185078E+00
         21   -1    0    0  505  502  0.00000000000E+00  0.00000000000E+00  0.69479642357E+02  0.69479642357E+02  0.00000000000E+00 0. -1.
          2   -1    0    0  502    0 -0.00000000000E+00 -0.00000000000E+00 -0.21369301537E+04  0.21369301537E+04  0.00000000000E+00 0.  1.
         21    1    1    2  503  504 -0.56472360810E+02  0.16893143465E+01 -0.35020802332E+02  0.66471331522E+02  0.00000000000E+00 0. -1.
         21    1    1    2  504  501  0.29426012389E+02 -0.26548267640E+02 -0.81086916747E+03  0.81183711880E+03  0.00000000000E+00 0.  1.
         21    1    1    2  505  503 -0.89924609300E+02  0.24153366635E+02  0.75683805129E+01  0.93418953437E+02  0.00000000000E+00 0. -1.
          2    1    1    2  501    0  0.11697095772E+03  0.70558665929E+00 -0.12291289221E+04  0.12346823923E+04  0.00000000000E+00 0.  1.
<scales pt_clust_3="40.56070" pt_clust_4="39.26318" pt_clust_5="157.51593" pt_clust_6="39.26318"></scales>
<clustering>
<clus scale="   39.263">  4  6 -1 -1</clus>
<clus scale="   40.561">  3  5 -1 -1</clus>
<clus scale="  157.516">  1  3  2 -1</clus>
<clus scale="  157.516">  1  3  2 -1</clus>
</clustering>
</event>
<event>
 6    0  0.1849053E+002  0.1018662E+03  0.7546771E-02  0.1276420E+00
          3   -1    0    0  505    0 -0.00000000000E+00  0.00000000000E+00  0.17292351978E+03  0.17292351978E+03  0.00000000000E+00 0. -1.
         21   -1    0    0  503  502  0.00000000000E+00 -0.00000000000E+00 -0.29476742373E+03  0.29476742373E+03  0.00000000000E+00 0.  1.
         21    1    1    2  503  504 -0.13231477751E+02  0.27265056447E+02 -0.86377705951E+02  0.91539955167E+02  0.00000000000E+00 0. -1.
         21    1    1    2  504  501 -0.26313250611E+02  0.68396794313E+02  0.38296316736E+02  0.82686858119E+02  0.00000000000E+00 0. -1.
         21    1    1    2  505  502  0.35524441418E+02 -0.13067141868E+03 -0.15445630659E+03  0.20541118821E+03  0.00000000000E+00 0.  1.
          3    1    1    2  501    0  0.40202869444E+01  0.35009567923E+02  0.80693791853E+02  0.88052942012E+02  0.00000000000E+00 0. -1.
<scales pt_clust_3="30.30603" pt_clust_4="14000.00000" pt_clust_5="101.86621" pt_clust_6="35.69812"></scales>
<clustering>
<clus scale="   30.306">  2  3  1 -1</clus>
<clus scale="   35.698">  1  6  2 -1</clus>
<clus scale="  101.866">  2  5  1 -1</clus>
<clus scale="   30.306">  2  3  1 -1</clus>
</clustering>
</event>
<event>
 6    0  0.1849053E+002  0.1415125E+03  0.7546771E-02  0.1211308E+00
         21   -1    0    0  504  502  0.00000000000E+00  0.00000000000E+00  0.11291121491E+03  0.11291121491E+03  0.00000000000E+00 0.  1.
         -1   -1    0    0    0  501 -0.00000000000E+00 -0.00000000000E+00 -0.59036675717E+03  0.59036675717E+03  0.00000000000E+00 0. -1.
         21    1    1    2  503  501  0.61621682921E+02 -0.89076002026E+01  0.10791840664E+02  0.63190513309E+02  0.00000000000E+00 0. -1.
         21    1    1    2  504  503  0.57534983589E+02 -0.50641738449E+02  0.45298941278E+02  0.89032882075E+02  0.00000000000E+00 0.  1.
         21    1    1    2  505  502 -0.44664400338E+02  0.41758230419E+02 -0.24564060553E+03  0.25313625886E+03  0.00000000000E+00 0. -1.
         -1    1    1    2    0  505 -0.74492266172E+02  0.17791108233E+02 -0.28790571868E+03  0.29791831783E+03  0.00000000000E+00 0. -1.
<scales pt_clust_3="43.04858" pt_clust_4="43.04858" pt_clust_5="31.52758" pt_clust_6="137.80227"></scales>
<clustering>
<clus scale="   31.528">  5  6 -1 -1</clus>
<clus scale="   43.049">  3  4 -1 -1</clus>
<clus scale="  137.802">  2  5  1 -1</clus>
<clus scale="  141.512">  1  3  2 -1</clus>
</clustering>
</event>
<event>
 6    0  0.1849053E+002  0.1571037E+03  0.7546771E-02  0.1192006E+00
         21   -1    0    0  504  502  0.00000000000E+00  0.00000000000E+00  0.66083396435E+02  0.66083396435E+02  0.00000000000E+00 0. -1.
          2   -1    0    0  503    0 -0.00000000000E+00 -0.00000000000E+00 -0.28590704057E+04  0.28590704057E+04  0.00000000000E+00 0. -1.
         21    1    1    2  503  505 -0.13035617381E+03 -0.85467554384E+02 -0.54159735724E+02  0.16501730781E+03  0.00000000000E+00 0. -1.
         21    1    1    2  504  501  0.73452493323E+02  0.38818946565E+02 -0.13325746712E+04  0.13351619504E+04  0.00000000000E+00 0. -1.
         21    1    1    2  505  502 -0.16980166226E+02  0.46176347521E+02 -0.64172461261E+02  0.80862141325E+02  0.00000000000E+00 0. -1.
          2    1    1    2  501    0  0.73883846710E+02  0.47226029852E+00 -0.13420801411E+04  0.13441124026E+04  0.00000000000E+00 0. -1.
<scales pt_clust_3="152.31765" pt_clust_4="36.29068" pt_clust_5="49.19940" pt_clust_6="36.29068"></scales>
<clustering>
<clus scale="   36.291">  4  6 -1 -1</clus>
<clus scale="   49.199">  1  5  2 -1</clus>
<clus scale="  152.318">  1  3  2 -1</clus>
<clus scale="   49.199">  1  3  2 -1</clus>
</clustering>
</event>
<event>
 6    0  0.1849053E+002  0.8336901E+02  0.7546771E-02  0.1319754E+00
          2   -1    0    0  504    0 -0.00000000000E+00  0.00000000000E+00  0.80418259121E+03  0.80418259121E+03  0.00000000000E+00 0.  1.
         21   -1    0    0  505  502  0.00000000000E+00 -0.00000000000E+00 -0.12343568411E+03  0.12343568411E+03  0.00000000000E+00 0. -1.
         21    1    1    2  503  502 -0.20170599231E+02 -0.86130632675E+02 -0.75338751162E+02  0.11619494991E+03  0.00000000000E+00 0. -1.
         21    1    1    2  504  503  0.28210416923E+02  0.26208083467E+02  0.63398488660E+02  0.74175869570E+02  0.00000000000E+00 0.  1.
         21    1    1    2  505  501  0.59656098260E+02  0.10074276328E+02  0.26964616381E+02  0.66237690477E+02  0.00000000000E+00 0. -1.
          2    1    1    2  501    0 -0.67695915951E+02  0.49848272880E+02  0.66572255322E+03  0.67100976536E+03  0.00000000000E+00 0.  1.
<scales pt_clust_3="83.36901" pt_clust_4="38.50573" pt_clust_5="62.55435" pt_clust_6="14000.00000"></scales>
<clustering>
<clus scale="   38.506">  1  4  2 -1</clus>
<clus scale="   62.554">  2  5  1 -1</clus>
<clus scale="   83.369">  2  3  1 -1</clus>
<clus scale="   62.554">  2  3  1 -1</clus>
</clustering>
</event>
<event>
 6    0  0.1849053E+002  0.1363912E+03  0.7546771E-02  0.1218269E+00
         21   -1    0    0  504  502  0.00000000000E+00  0.00000000000E+00  0.95434268230E+02  0.95434268230E+02  0.00000000000E+00 0.  1.
          2   -1    0    0  503    0 -0.00000000000E+00 -0.00000000000E+00 -0.28858046521E+04  0.28858046521E+04  0.00000000000E+00 0.  1.
         21    1    1    2  503  505 -0.86843517368E+01 -0.53106452387E+02 -0.16385961411E+03  0.17246937811E+03  0.00000000000E+00 0.  1.
         21    1    1    2  504  501  0.12807478135E+03 -0.78692730674E+02 -0.30196838525E+02  0.15332170275E+03  0.00000000000E+00 0.  1.
         21    1    1    2  505  502 -0.35417522044E+02  0.24498965994E+02  0.11103010099E+02  0.44473329488E+02  0.00000000000E+00 0. -1.
          2    1    1    2  501    0 -0.83972907565E+02  0.10730021707E+03 -0.26074169414E+04  0.26109745100E+04  0.00000000000E+00 0.  1.
<scales pt_clust_3="52.69514" pt_clust_4="14000.00000" pt_clust_5="43.06507" pt_clust_6="136.39121"></scales>
<clustering>
<clus scale="   43.065">  1  5  2 -1</clus>
<clus scale="   52.695">  1  3  2 -1</clus>
<clus scale="  136.391">  2  6  1 -1</clus>
<clus scale="   43.065">  1  3  2 -1</clus>
</clustering>
</event>
<event>
 6    0  0.1849053E+002  0.4278871E+03  0.7546771E-02  0.1034529E+00
          2   -1    0    0  504    0 -0.00000000000E+00  0.00000000000E+00  0.13864167085E+04  0.13864167085E+04  0.00000000000E+00 0.  1.
         21   -1    0    0  503  502  0.00000000000E+00 -0.00000000000E+00 -0.27243698091E+04  0.27243698091E+04  0.00000000000E+00 0. -1.
         21    1    1    2  503  505 -0.39181420935E+02 -0.98654452870E+02 -0.53139083195E+03  0.54188938087E+03  0.00000000000E+00 0. -1.
         21    1    1    2  504  502  0.83140897091E+02 -0.35933901137E+01  0.39985734165E+03  0.40842528679E+03  0.00000000000E+00 0. -1.
         21    1    1    2  505  501  0.97606230895E+02 -0.30294118367E+03 -0.21238711058E+04  0.21475867413E+04  0.00000000000E+00 0. -1.
          2    1    1    2  501    0 -0.14156570705E+03  0.40518902665E+03  0.91745149552E+03  0.10128851087E+04  0.00000000000E+00 0.  1.
<scales pt_clust_3="77.85298" pt_clust_4="83.21851" pt_clust_5="77.85298" pt_clust_6="406.09614"></scales>
<clustering>
<clus scale="   77.853">  3  5 -1 -1</clus>
<clus scale="   83.219">  1  4  2 -1</clus>
<clus scale="  406.096">  1  6  2 -1</clus>
<clus scale="  427.887">  2  3  1 -1</clus>
</clustering>
</event>
<event>
 6    0  0.1849053E+002  0.1125811E+03  0.7546771E-02  0.1255863E+00
         21   -1    0    0  505  502  0.00000000000E+00  0.00000000000E+00  0.12257767383E+03  0.12257767383E+03  0.00000000000E+00 0.  1.
          2   -1    0    0  504    0 -0.00000000000E+00 -0.00000000000E+00 -0.35765802489E+03  0.35765802489E+03  0.00000000000E+00 0.  1.
         21    1    1    2  503  502 -0.33682999537E+02 -0.19979736560E+02  0.38602831564E+02  0.54990116708E+02  0.00000000000E+00 0.  1.
         21    1    1    2  504  503  0.42080044022E+02 -0.40217618497E+02 -0.23418843395E+02  0.62742562654E+02  0.00000000000E+00 0.  1.
         21    1    1    2  505  501 -0.91340770628E+02 -0.29377742550E+02 -0.14542556857E+02  0.97044701536E+02  0.00000000000E+00 0. -1.
          2    1    1    2  501    0  0.82943726144E+02  0.89575097608E+02 -0.23572178237E+03  0.26545831782E+03  0.00000000000E+00 0.  1.
<scales pt_clust_3="39.16292" pt_clust_4="56.32853" pt_clust_5="112.58113" pt_clust_6="14000.00000"></scales>
<clustering>
<clus scale="   39.163">  1  3  2 -1</clus>
<clus scale="   56.329">  1  4  2 -1</clus>
<clus scale="  112.581">  1  5  2 -1</clus>
<clus scale="   39.163">  1  3  2 -1</clus>
</clustering>
</event>
<event>
 6    0  0.1849053E+002  0.8553620E+02  0.7546771E-02  0.1314036E+00
          1   -1    0    0  505    0 -0.00000000000E+00  0.00000000000E+00  0.70036069928E+02  0.70036069928E+02  0.00000000000E+00 0. -1.
         21   -1    0    0  504  502  0.00000000000E+00 -0.00000000000E+00 -0.46648715227E+03  0.46648715227E+03  0.00000000000E+00 0. -1.
         21    1    1    2  503  501  0.53346259042E+02 -0.38729509139E+02 -0.66758124163E+02  0.93821348177E+02  0.00000000000E+00 0.  1.
         21    1    1    2  504  503 -0.27432803285E+02 -0.12622978583E+02 -0.10440603763E+03  0.10868541291E+03  0.00000000000E+00 0.  1.
         21    1    1    2  505  502  0.12607143688E+02  0.12187577979E+03 -0.22202834422E+03  0.25359264857E+03  0.00000000000E+00 0. -1.
          1    1    1    2  501    0 -0.38520599444E+02 -0.70523292065E+02 -0.32585763295E+01  0.80423812549E+02  0.00000000000E+00 0. -1.
<scales pt_clust_3="62.89989" pt_clust_4="30.19765" pt_clust_5="85.53620" pt_clust_6="14000.00000"></scales>
<clustering>
<clus scale="   30.198">  2  4  1 -1</clus>
<clus scale="   62.900">  2  3  1 -1</clus>
<clus scale="   85.536">  2  5  1 -1</clus>
<clus scale="   30.198">  2  3  1 -1</clus>
</clustering>
</event>
<event>
 6    0  0.1849053E+002  0.9411470E+02  0.7546771E-02  0.1293183E+00
         -3   -1    0    0    0  501 -0.00000000000E+00  0.00000000000E+00  0.18034094809E+04  0.18034094809E+04  0.00000000000E+00 0.  1.
         21   -1    0    0  504  502  0.00000000000E+00 -0.00000000000E+00 -0.10803841611E+03  0.10803841611E+03  0.00000000000E+00 0.  1.
         21    1    1    2  503  501  0.28474453825E+02 -0.13914268784E+02  0.66147896512E+03  0.66223773881E+03  0.00000000000E+00 0.  1.
         21    1    1    2  504  503  0.34476127001E+02 -0.91167877881E+02  0.19064006848E+03  0.21411170215E+03  0.00000000000E+00 0.  1.
         21    1    1    2  505  502 -0.78591848068E+02  0.54356212939E+02 -0.71162570673E+02  0.11914439950E+03  0.00000000000E+00 0.  1.
         -3    1    1    2    0  505  0.15641267242E+02  0.50725933726E+02  0.91441460186E+03  0.91595405654E+03  0.00000000000E+00 0.  1.
<scales pt_clust_3="31.69229" pt_clust_4="14000.00000" pt_clust_5="94.11470" pt_clust_6="55.18821"></scales>
<clustering>
<clus scale="   31.692">  1  3  2 -1</clus>
<clus scale="   55.188">  1  6  2 -1</clus>
<clus scale="   94.115">  2  5  1 -1</clus>
<clus scale="   94.115">  2  3  1 -1</clus>
</clustering>
</event>
<event>
 6    0  0.1849053E+002  0.7918347E+02  0.7546771E-02  0.1331385E+00
         -1   -1    0    0    0  501 -0.00000000000E+00  0.00000000000E+00  0.45529221398E+03  0.45529221398E+03  0.00000000000E+00 0.  1.
         21   -1    0    0  503  502  0.00000000000E+00 -0.00000000000E+00 -0.84108827750E+02  0.84108827750E+02  0.00000000000E+00 0.  1.
         21    1    1    2  503  505 -0.82828778293E+01  0.38838263053E+02  0.24284533295E+02  0.46548418872E+02  0.00000000000E+00 0.  1.
         21    1    1    2  504  501 -0.65220369331E+02 -0.44667316993E+02  0.32221769239E+03  0.33177267379E+03  0.00000000000E+00 0.  1.
         21    1    1    2  505  504  0.60743898737E+02  0.54245070719E+02 -0.30137861380E+02  0.86836856344E+02  0.00000000000E+00 0.  1.
         -1    1    1    2    0  502  0.12759348423E+02 -0.48416016779E+02  0.54819021929E+02  0.74243092731E+02  0.00000000000E+00 0.  1.
<scales pt_clust_3="39.71167" pt_clust_4="14000.00000" pt_clust_5="79.18347" pt_clust_6="44.79077"></scales>
<clustering>
<clus scale="   39.712">  2  3  1 -1</clus>
<clus scale="   44.791">  2  6  1 -1</clus>
<clus scale="   79.183">  2  5  1 -1</clus>
<clus scale="   39.712">  2  3  1 -1</clus>
</clustering>
</event>
<event>
 6    0  0.1849053E+002  0.1735716E+03  0.7546771E-02  0.1174174E+00
          1   -1    0    0  503    0 -0.00000000000E+00  0.00000000000E+00  0.49413785393E+03  0.49413785393E+03  0.00000000000E+00 0. -1.
         21   -1    0    0  504  502  0.00000000000E+00 -0.00000000000E+00 -0.61223886994E+03  0.61223886994E+03  0.00000000000E+00 0.  1.
         21    1    1    2  503  505  0.21206628729E+02 -0.26692131067E+02  0.12525395765E+02  0.36319092802E+02  0.00000000000E+00 0.  1.
         21    1    1    2  504  501 -0.46645446791E+02 -0.30678304526E+02 -0.24903606757E+03  0.25521739562E+03  0.00000000000E+00 0. -1.
         21    1    1    2  505  502  0.16929564224E+03  0.14760670554E+03 -0.29333524606E+03  0.36945137783E+03  0.00000000000E+00 0.  1.
          1    1    1    2  501    0 -0.14385682417E+03 -0.90236269944E+02  0.41174490187E+03  0.44538885762E+03  0.00000000000E+00 0. -1.
<scales pt_clust_3="34.09092" pt_clust_4="55.81008" pt_clust_5="14000.00000" pt_clust_6="173.57158"></scales>
<clustering>
<clus scale="   34.091">  1  3  2 -1</clus>
<clus scale="   55.810">  2  4  1 -1</clus>
<clus scale="  173.572">  1  6  2 -1</clus>
<clus scale="   55.810">  2  3  1 -1</clus>
</clustering>
</event>
<event>
 6    0  0.1849053E+002  0.7666095E+02  0.7546771E-02  0.1338803E+00
         21   -1    0    0  503  502  0.00000000000E+00  0.00000000000E+00  0.18518050670E+03  0.18518050670E+03  0.00000000000E+00 0.  1.
          1   -1    0    0  504    0 -0.00000000000E+00 -0.00000000000E+00 -0.58639962945E+03  0.58639962945E+03  0.00000000000E+00 0.  1.
         21    1    1    2  503  501 -0.79877758020E+02  0.76381022090E+02  0.61378337303E+02  0.12641921156E+03  0.00000000000E+00 0.  1.
         21    1    1    2  504  505  0.26861581222E+02  0.40298156570E+02 -0.71810582836E+02  0.86615505401E+02  0.00000000000E+00 0.  1.
         21    1    1    2  505  502  0.61116679942E+02 -0.22197565374E+02  0.65627027677E+02  0.92384453440E+02  0.00000000000E+00 0.  1.
          1    1    1    2  501    0 -0.81005031442E+01 -0.94481613286E+02 -0.45641390490E+03  0.46616096574E+03  0.00000000000E+00 0.  1.
<scales pt_clust_3="14000.00000" pt_clust_4="48.43022" pt_clust_5="76.66095" pt_clust_6="60.09179"></scales>
<clustering>
<clus scale="   48.430">  2  4  1 -1</clus>
<clus scale="   60.092">  2  6  1 -1</clus>
<clus scale="   76.661">  1  5  2 -1</clus>
<clus scale="   76.661">  1  3  2 -1</clus>
</clustering>
</event>
<event>
 6    0  0.1849053E+002  0.1201305E+03  0.7546771E-02  0.1242882E+00
         21   -1    0    0  505  502  0.00000000000E+00  0.00000000000E+00  0.15574177655E+02  0.15574177655E+02  0.00000000000E+00 0. -1.
          1   -1    0    0  503    0 -0.00000000000E+00 -0.00000000000E+00 -0.20750038670E+04  0.20750038670E+04  0.00000000000E+00 0. -1.
         21    1    1    2  503  502 -0.41585695214E+02  0.24496670859E+01 -0.26467176722E+03  0.26793005669E+03  0.00000000000E+00 0.  1.
         21    1    1    2  504  501  0.22270193675E+02 -0.10727252207E+03 -0.43190097163E+03  0.44558030120E+03  0.00000000000E+00 0. -1.
         21    1    1    2  505  504 -0.21936372212E+02 -0.21813016049E+02 -0.60808587904E+02  0.68225335894E+02  0.00000000000E+00 0. -1.
          1    1    1    2  501    0  0.41251873751E+02  0.12663587103E+03 -0.13020483626E+04  0.13088423509E+04  0.00000000000E+00 0. -1.
<scales pt_clust_3="44.60084" pt_clust_4="120.13049" pt_clust_5="30.93561" pt_clust_6="14000.00000"></scales>
<clustering>
<clus scale="   30.936">  1  5  2 -1</clus>
<clus scale="   44.601">  2  3  1 -1</clus>
<clus scale="  120.130">  1  4  2 -1</clus>
<clus scale="   30.936">  1  3  2 -1</clus>
</clustering>
</event>
<event>
 6    0  0.1849053E+002  0.1429141E+03  0.7546771E-02  0.1209461E+00
         21   -1    0    0  504  502  0.00000000000E+00  0.00000000000E+00  0.70046399905E+02  0.70046399905E+02  0.00000000000E+00 0. -1.
          3   -1    0    0  505    0 -0.00000000000E+00 -0.00000000000E+00 -0.17396436935E+04  0.17396436935E+04  0.00000000000E+00 0. -1.
         21    1    1    2  503  502 -0.29665544766E+02  0.29458317844E+02 -0.47293978727E+02  0.63123351149E+02  0.00000000000E+00 0. -1.
         21    1    1    2  504  501 -0.50331755444E+02  0.98529004058E+02  0.25286370282E+01  0.11066907541E+03  0.00000000000E+00 0. -1.
         21    1    1    2  505  503 -0.16072959220E+02 -0.61053137803E+02 -0.34567225672E+03  0.35139028831E+03  0.00000000000E+00 0.  1.
          3    1    1    2  501    0  0.96070259430E+02 -0.66934184099E+02 -0.12791596952E+04  0.12845073786E+04  0.00000000000E+00 0. -1.
<scales pt_clust_3="41.80714" pt_clust_4="14000.00000" pt_clust_5="62.19235" pt_clust_6="142.91409"></scales>
<clustering>
<clus scale="   41.807">  1  3  2 -1</clus>
<clus scale="   62.192">  2  5  1 -1</clus>
<clus scale="  142.914">  2  6  1 -1</clus>
<clus scale="   41.807">  1  3  2 -1</clus>
</clustering>
</event>
<event>
 6    0  0.1849053E+002  0.1038867E+03  0.7546771E-02  0.1272329E+00
         -2   -1    0    0    0  501 -0.00000000000E+00  0.00000000000E+00  0.16004171080E+03  0.16004171080E+03  0.00000000000E+00 0.  1.
         21   -1    0    0  504  502  0.00000000000E+00 -0.00000000000E+00 -0.35800918590E+03  0.35800918590E+03  0.00000000000E+00 0.  1.
         21    1    1    2  503  501  0.34615997176E+02 -0.17552843311E+00  0.15949789410E+02  0.38114221138E+02  0.00000000000E+00 0.  1.
         21    1    1    2  504  505 -0.87078198040E+01 -0.94005466818E+02 -0.19273588761E+03  0.21461588080E+03  0.00000000000E+00 0.  1.
         21    1    1    2  505  503 -0.47637776993E+01 -0.84435439115E+02 -0.89444964833E+01  0.85041407407E+02  0.00000000000E+00 0.  1.
         -2    1    1    2    0  502 -0.21144399673E+02  0.17861643437E+03 -0.12236880420E+02  0.18027938736E+03  0.00000000000E+00 0.  1.
<scales pt_clust_3="34.61644" pt_clust_4="14000.00000" pt_clust_5="84.64176" pt_clust_6="103.88675"></scales>
<clustering>
<clus scale="   34.616">  1  3  2 -1</clus>
<clus scale="   84.642">  1  5  2 -1</clus>
<clus scale="  103.887">  1  6  2 -1</clus>
<clus scale="  103.887">  2  3  1 -1</clus>
</clustering>
</event>
<event>
 6    0  0.1849053E+002  0.1175593E+03  0.7546771E-02  0.1247179E+00
          1   -1    0    0  503    0 -0.00000000000E+00  0.00000000000E+00  0.17537418987E+04  0.17537418987E+04  0.00000000000E+00 0.  1.
         21   -1    0    0  505  502  0.00000000000E+00 -0.00000000000E+00 -0.29948837325E+02  0.29948837325E+02  0.00000000000E+00 0.  1.
         21    1    1    2  503  502  0.70001120109E+02 -0.10183977398E+03  0.11886251821E+04  0.11950319326E+04  0.00000000000E+00 0.  1.
         21    1    1    2  504  501 -0.60492453429E+02  0.22085110370E+02  0.82529211665E+02  0.10468122945E+03  0.00000000000E+00 0.  1.
         21    1    1    2  505  504 -0.37797735474E+02  0.32638491171E+02  0.31013478961E+02  0.58785846852E+02  0.00000000000E+00 0.  1.
          1    1    1    2  501    0  0.28289068794E+02  0.47116172438E+02  0.42162518856E+03  0.42519172705E+03  0.00000000000E+00 0.  1.
<scales pt_clust_3="112.45565" pt_clust_4="30.17191" pt_clust_5="30.17191" pt_clust_6="54.95639"></scales>
<clustering>
<clus scale="   30.172">  4  5 -1 -1</clus>
<clus scale="   54.956">  1  6  2 -1</clus>
<clus scale="  112.456">  1  3  2 -1</clus>
<clus scale="  117.559">  2  3  1 -1</clus>
</clustering>
</event>
<event>
 6    0  0.1849053E+002  0.1861289E+03  0.7546771E-02  0.1162000E+00
         21   -1    0    0  503  502  0.00000000000E+00  0.00000000000E+00  0.48663030791E+03  0.48663030791E+03  0.00000000000E+00 0.  1.
          3   -1    0    0  502    0 -0.00000000000E+00 -0.00000000000E+00 -0.41335046215E+03  0.41335046215E+03  0.00000000000E+00 0.  1.
         21    1    1    2  503  504 -0.51788233776E+02  0.76145561902E+02  0.24991850507E+03  0.26634456430E+03  0.00000000000E+00 0.  1.
         21    1    1    2  504  505 -0.82535592485E+02  0.42478504213E+02  0.19648782049E+03  0.21731086247E+03  0.00000000000E+00 0.  1.
         21    1    1    2  505  501  0.58762016306E+02 -0.68662829340E+02 -0.14483222470E+03  0.17071593952E+03  0.00000000000E+00 0.  1.
          3    1    1    2  501    0  0.75561809956E+02 -0.49961236774E+02 -0.22829425510E+03  0.24560940376E+03  0.00000000000E+00 0.  1.
<scales pt_clust_3="50.09299" pt_clust_4="50.09299" pt_clust_5="44.54473" pt_clust_6="184.67112"></scales>
<clustering>
<clus scale="   44.545">  5  6 -1 -1</clus>
<clus scale="   50.093">  3  4 -1 -1</clus>
<clus scale="  184.671">  2  5  1 -1</clus>
<clus scale="  186.129">  1  3  2 -1</clus>
</clustering>
</event>
<event>
 6    0  0.1849053E+002  0.1327389E+03  0.7546771E-02  0.1223447E+00
         21   -1    0    0  501  502  0.00000000000E+00  0.00000000000E+00  0.11984154665E+03  0.11984154665E+03  0.00000000000E+00 0. -1.
          2   -1    0    0  503    0 -0.00000000000E+00 -0.00000000000E+00 -0.29684776224E+03  0.29684776224E+03  0.00000000000E+00 0.  1.
         21    1    1    2  503  504 -0.21555990520E+02  0.35870148209E+02 -0.37416060815E+02  0.56136350672E+02  0.00000000000E+00 0. -1.
         21    1    1    2  504  505  0.56584674478E+02 -0.26373590423E+02 -0.21687216974E+01  0.62466751247E+02  0.00000000000E+00 0. -1.
         21    1    1    2  505  502  0.65972783713E+02 -0.10892121174E+02  0.51135321898E+02  0.84177595832E+02  0.00000000000E+00 0. -1.
          2    1    1    2  501    0 -0.10100146767E+03  0.13955633873E+01 -0.18855675498E+03  0.21390861113E+03  0.00000000000E+00 0.  1.
<scales pt_clust_3="41.84887" pt_clust_4="49.03306" pt_clust_5="49.03306" pt_clust_6="122.15496"></scales>
<clustering>
<clus scale="   41.849">  2  3  1 -1</clus>
<clus scale="   49.033">  4  5 -1 -1</clus>
<clus scale="  122.155">  2  6  1 -1</clus>
<clus scale="  132.739">  1  3  2 -1</clus>
</clustering>
</event>
<event>
 6    0  0.1849053E+002  0.1527651E+03  0.7546771E-02  0.1197116E+00
          1   -1    0    0  503    0 -0.00000000000E+00  0.00000000000E+00  0.68791213983E+03  0.68791213983E+03  0.00000000000E+00 0. -1.
         21   -1    0    0  501  502  0.00000000000E+00 -0.00000000000E+00 -0.53487522013E+03  0.53487522013E+03  0.00000000000E+00 0. -1.
         21    1    1    2  503  505 -0.36755197873E+02 -0.18680024422E+02  0.76314254531E+02  0.86739571867E+02  0.00000000000E+00 0. -1.
         21    1    1    2  504  502  0.56862300238E+02  0.30131876238E+02 -0.28668000875E+03  0.29381402037E+03  0.00000000000E+00 0. -1.
         21    1    1    2  505  504  0.46854155747E+02  0.70596021740E+02 -0.22705747022E+03  0.24235140804E+03  0.00000000000E+00 0. -1.
          1    1    1    2  501    0 -0.66961258112E+02 -0.82047873556E+02  0.59046014414E+03  0.59988235968E+03  0.00000000000E+00 0. -1.
<scales pt_clust_3="41.22970" pt_clust_4="44.84713" pt_clust_5="44.84713" pt_clust_6="143.85133"></scales>
<clustering>
<clus scale="   41.230">  1  3  2 -1</clus>
<clus scale="   44.847">  4  5 -1 -1</clus>
<clus scale="  143.851">  1  6  2 -1</clus>
<clus scale="  152.765">  2  3  1 -1</clus>
</clustering>
</event>
<event>
 6    0  0.1849053E+002  0.1242358E+03  0.7546771E-02  0.1236268E+00
         -4   -1    0    0    0  501 -0.00000000000E+00  0.00000000000E+00  0.26044171077E+03  0.26044171077E+03  0.00000000000E+00 0.  1.
         21   -1    0    0  505  502  0.00000000000E+00 -0.00000000000E+00 -0.16967681961E+03  0.16967681961E+03  0.00000000000E+00 0.  1.
         21    1    1    2  503  501 -0.25692487014E+02  0.15957856794E+02  0.14888884024E+02  0.33711065689E+02  0.00000000000E+00 0. -1.
         21    1    1    2  504  502  0.38714245981E+02 -0.90942476102E+02 -0.13497598438E+02  0.99757265225E+02  0.00000000000E+00 0.  1.
         21    1    1    2  505  503  0.59838832832E+02  0.15471713000E+03  0.17263118993E+02  0.16678156825E+03  0.00000000000E+00 0.  1.
         -4    1    1    2    0  504 -0.72860591799E+02 -0.79732510695E+02  0.72110486577E+02  0.12986863121E+03  0.00000000000E+00 0.  1.
<scales pt_clust_3="30.24495" pt_clust_4="94.37362" pt_clust_5="14000.00000" pt_clust_6="124.23582"></scales>
<clustering>
<clus scale="   30.245">  1  3  2 -1</clus>
<clus scale="   94.374">  2  4  1 -1</clus>
<clus scale="  124.236">  1  6  2 -1</clus>
<clus scale="   94.374">  2  3  1 -1</clus>
</clustering>
</event>
<event>
 6    0  0.1849053E+002  0.1226712E+03  0.7546771E-02  0.1238754E+00
          2   -1    0    0  504    0 -0.00000000000E+00  0.00000000000E+00  0.40272577592E+04  0.40272577592E+04  0.00000000000E+00 0.  1.
         21   -1    0    0  501  502  0.00000000000E+00 -0.00000000000E+00 -0.57531528125E+02  0.57531528125E+02  0.00000000000E+00 0.  1.
         21    1    1    2  503  502 -0.22574056798E+02  0.64496970899E+02  0.29461465566E+02  0.74413878066E+02  0.00000000000E+00 0.  1.
         21    1    1    2  504  505 -0.36471263822E+02  0.31319783160E+02  0.26315126104E+03  0.26750638887E+03  0.00000000000E+00 0. -1.
         21    1    1    2  505  503 -0.80191518571E+02  0.96564731247E+01  0.22175867229E+02  0.83759752933E+02  0.00000000000E+00 0.  1.
          2    1    1    2  501    0  0.13923683919E+03 -0.10547322718E+03  0.36549376373E+04  0.36591092675E+04  0.00000000000E+00 0.  1.
<scales pt_clust_3="68.90863" pt_clust_4="48.07371" pt_clust_5="14000.00000" pt_clust_6="122.67120"></scales>
<clustering>
<clus scale="   48.074">  1  4  2 -1</clus>
<clus scale="   68.909">  2  3  1 -1</clus>
<clus scale="  122.671">  1  6  2 -1</clus>
<clus scale="   68.909">  2  3  1 -1</clus>
</clustering>
</event>
<event>
 6    0  0.1849053E+002  0.2431893E+03  0.7546771E-02  0.1117686E+00
          2   -1    0    0  503    0 -0.00000000000E+00  0.00000000000E+00  0.26450356013E+04  0.26450356013E+04  0.00000000000E+00 0.  1.
         21   -1    0    0  505  502  0.00000000000E+00 -0.00000000000E+00 -0.37301437873E+03  0.37301437873E+03  0.00000000000E+00 0. -1.
         21    1    1    2  503  502  0.17416080011E+03 -0.44474603939E+02 -0.29317661868E+03  0.34389315845E+03  0.00000000000E+00 0. -1.
         21    1    1    2  504  501 -0.73241559954E+02  0.22947707545E+02  0.68548574438E+03  0.68976925790E+03  0.00000000000E+00 0. -1.
         21    1    1    2  505  504  0.63690255368E+02  0.42460927780E+02 -0.18651049116E+02  0.78786043496E+02  0.00000000000E+00 0. -1.
          2    1    1    2  501    0 -0.16460949552E+03 -0.20934031385E+02  0.18983631460E+04  0.19056015202E+04  0.00000000000E+00 0.  1.
<scales pt_clust_3="236.73581" pt_clust_4="37.84963" pt_clust_5="76.54658" pt_clust_6="37.84963"></scales>
<clustering>
<clus scale="   37.850">  4  6 -1 -1</clus>
<clus scale="   76.547">  2  5  1 -1</clus>
<clus scale="  236.736">  2  3  1 -1</clus>
<clus scale="   76.547">  2  3  1 -1</clus>
</clustering>
</event>
<event>
 6    0  0.1849053E+002  0.1273432E+03  0.7546771E-02  0.1231452E+00
          2   -1    0    0  503    0 -0.00000000000E+00  0.00000000000E+00  0.11765937313E+04  0.11765937313E+04  0.00000000000E+00 0. -1.
         21   -1    0    0  504  502  0.00000000000E+00 -0.00000000000E+00 -0.83617805287E+02  0.83617805287E+02  0.00000000000E+00 0. -1.
         21    1    1    2  503  502 -0.29368260486E+02  0.18440017771E+02 -0.43288022051E+02  0.55465140697E+02  0.00000000000E+00 0. -1.
         21    1    1    2  504  505 -0.11251866440E+03 -0.35258496585E+02  0.99723762676E+02  0.15442940220E+03  0.00000000000E+00 0. -1.
         21    1    1    2  505  501  0.10026482199E+03  0.39385507515E+02  0.48855095209E+03  0.50028620361E+03  0.00000000000E+00 0. -1.
          2    1    1    2  501    0  0.41622102895E+02 -0.22567028701E+02  0.54798923334E+03  0.55003079013E+03  0.00000000000E+00 0. -1.
<scales pt_clust_3="34.67750" pt_clust_4="14000.00000" pt_clust_5="127.34324" pt_clust_6="46.31465"></scales>
<clustering>
<clus scale="   34.677">  2  3  1 -1</clus>
<clus scale="   46.315">  1  6  2 -1</clus>
<clus scale="  127.343">  1  5  2 -1</clus>
<clus scale="   34.677">  2  3  1 -1</clus>
</clustering>
</event>
<event>
 6    0  0.1849053E+002  0.9448117E+02  0.7546771E-02  0.1292349E+00
          2   -1    0    0  503    0 -0.00000000000E+00  0.00000000000E+00  0.11655429048E+04  0.11655429048E+04  0.00000000000E+00 0.  1.
         21   -1    0    0  504  502  0.00000000000E+00 -0.00000000000E+00 -0.31656058980E+03  0.31656058980E+03  0.00000000000E+00 0.  1.
         21    1    1    2  503  505  0.29010947328E+02 -0.59812970436E+02  0.66841032590E+02  0.94270621802E+02  0.00000000000E+00 0. -1.
         21    1    1    2  504  501 -0.55588654332E+01  0.57676437554E+02 -0.89258651513E+01  0.58627156698E+02  0.00000000000E+00 0.  1.
         21    1    1    2  505  502 -0.19410670224E+01 -0.95085226047E+02 -0.25823413591E+03  0.27519054653E+03  0.00000000000E+00 0.  1.
          2    1    1    2  501    0 -0.21511014872E+02  0.97221758928E+02  0.10493012835E+04  0.10540151696E+04  0.00000000000E+00 0.  1.
<scales pt_clust_3="14000.00000" pt_clust_4="57.94370" pt_clust_5="41.31613" pt_clust_6="94.48117"></scales>
<clustering>
<clus scale="   57.944">  2  4  1 -1</clus>
<clus scale="   41.316">  2  5  1 -1</clus>
<clus scale="   94.481">  1  6  2 -1</clus>
<clus scale="   57.944">  2  3  1 -1</clus>
</clustering>
</event>
<event>
 6    0  0.1849053E+002  0.2007364E+03  0.7546771E-02  0.1149119E+00
         21   -1    0    0  501  502  0.00000000000E+00  0.00000000000E+00  0.47918581767E+02  0.47918581767E+02  0.00000000000E+00 0.  1.
          2   -1    0    0  504    0 -0.00000000000E+00 -0.00000000000E+00 -0.15336724618E+04  0.15336724618E+04  0.00000000000E+00 0. -1.
         21    1    1    2  503  502  0.76937322662E+02  0.66749406493E+02 -0.15293430485E+03  0.18374911288E+03  0.00000000000E+00 0.  1.
         21    1    1    2  504  505  0.29624931637E+02  0.15878104980E+02 -0.24157428694E+03  0.24390138766E+03  0.00000000000E+00 0.  1.
         21    1    1    2  505  503  0.63930587278E+02  0.62289630682E+02 -0.85490000016E+02  0.12359473364E+03  0.00000000000E+00 0.  1.
          2    1    1    2  501    0 -0.17049284158E+03 -0.14491714215E+03 -0.10057552882E+04  0.10303458094E+04  0.00000000000E+00 0. -1.
<scales pt_clust_3="31.31796" pt_clust_4="33.61177" pt_clust_5="31.31796" pt_clust_6="197.92887"></scales>
<clustering>
<clus scale="   31.318">  3  5 -1 -1</clus>
<clus scale="   33.612">  2  4  1 -1</clus>
<clus scale="  197.929">  2  6  1 -1</clus>
<clus scale="  200.736">  1  3  2 -1</clus>
</clustering>
</event>
<event>
 6    0  0.1849053E+002  0.8180380E+02  0.7546771E-02  0.1324009E+00
         -2   -1    0    0    0  501 -0.00000000000E+00  0.00000000000E+00  0.22718384094E+03  0.22718384094E+03  0.00000000000E+00 0. -1.
         21   -1    0    0  504  502  0.00000000000E+00 -0.00000000000E+00 -0.20756417050E+03  0.20756417050E+03  0.00000000000E+00 0. -1.
         21    1    1    2  503  505  0.13867275318E+02  0.63808627759E+02 -0.85430830229E+01  0.65854586543E+02  0.00000000000E+00 0.  1.
         21    1    1    2  504  503 -0.45339427227E+02 -0.78389723700E+02 -0.14079273730E+03  0.16740133607E+03  0.00000000000E+00 0. -1.
         21    1    1    2  505  501 -0.30742957136E+02 -0.19468555408E+02  0.78693122433E+02  0.86699259405E+02  0.00000000000E+00 0. -1.
         -2    1    1    2    0  502  0.62215109045E+02  0.34049651349E+02  0.90262368325E+02  0.11479282942E+03  0.00000000000E+00 0. -1.
<scales pt_clust_3="81.80380" pt_clust_4="14000.00000" pt_clust_5="36.38893" pt_clust_6="45.18426"></scales>
<clustering>
<clus scale="   36.389">  1  5  2 -1</clus>
<clus scale="   45.184">  1  6  2 -1</clus>
<clus scale="   81.804">  1  3  2 -1</clus>
<clus scale="   81.804">  2  3  1 -1</clus>
</clustering>
</event>
<event>
 6    0  0.1849053E+002  0.1456346E+03  0.7546771E-02  0.1205942E+00
         21   -1    0    0  501  502  0.00000000000E+00  0.00000000000E+00  0.41754757828E+03  0.41754757828E+03  0.00000000000E+00 0.  1.
          1   -1    0    0  505    0 -0.00000000000E+00 -0.00000000000E+00 -0.26313325647E+03  0.26313325647E+03  0.00000000000E+00 0. -1.
         21    1    1    2  503  502 -0.94184144000E+02  0.15225167154E+02  0.32086563512E+03  0.33474948021E+03  0.00000000000E+00 0.  1.
         21    1    1    2  504  503 -0.36859069815E+02  0.11749983907E+02  0.48139353368E+02  0.61757999419E+02  0.00000000000E+00 0. -1.
         21    1    1    2  505  504 -0.36364282802E+01  0.31677428909E+02 -0.12306136611E+02  0.34177830698E+02  0.00000000000E+00 0.  1.
          1    1    1    2  501    0  0.13467964210E+03 -0.58652579970E+02 -0.20228453007E+03  0.24999552443E+03  0.00000000000E+00 0. -1.
<scales pt_clust_3="35.88671" pt_clust_4="35.88671" pt_clust_5="31.88547" pt_clust_6="134.37232"></scales>
<clustering>
<clus scale="   31.885">  2  5  1 -1</clus>
<clus scale="   35.887">  3  4 -1 -1</clus>
<clus scale="  134.372">  2  6  1 -1</clus>
<clus scale="  145.635">  1  3  2 -1</clus>
</clustering>
</event>
<event>
 6    0  0.1849053E+002  0.1629645E+03  0.7546771E-02  0.1185390E+00
          2   -1    0    0  505    0 -0.00000000000E+00  0.00000000000E+00  0.19215737958E+03  0.19215737958E+03  0.00000000000E+00 0. -1.
         21   -1    0    0  504  502  0.00000000000E+00 -0.00000000000E+00 -0.29298111732E+03  0.29298111732E+03  0.00000000000E+00 0. -1.
         21    1    1    2  503  501  0.54756394698E+02 -0.53866850350E+02 -0.73487030458E+02  0.10630260567E+03  0.00000000000E+00 0. -1.
         21    1    1    2  504  503  0.20848373187E+02 -0.42450611213E+02 -0.11954757373E+03  0.12856255848E+03  0.00000000000E+00 0. -1.
         21    1    1    2  505  502  0.54999717367E+02  0.22549435906E+01 -0.14792521576E+02  0.56998880476E+02  0.00000000000E+00 0. -1.
          2    1    1    2  501    0 -0.13060448525E+03  0.94062517972E+02  0.10700338803E+03  0.19327445228E+03  0.00000000000E+00 0. -1.
<scales pt_clust_3="42.30098" pt_clust_4="42.30098" pt_clust_5="55.04592" pt_clust_6="153.78971"></scales>
<clustering>
<clus scale="   42.301">  3  4 -1 -1</clus>
<clus scale="   55.046">  2  5  1 -1</clus>
<clus scale="  153.790">  1  6  2 -1</clus>
<clus scale="   55.046">  2  3  1 -1</clus>
</clustering>
</event>
<event>
 6    0  0.1849053E+002  0.3674094E+03  0.7546771E-02  0.1055688E+00
          2   -1    0    0  503    0 -0.00000000000E+00  0.00000000000E+00  0.93374513934E+03  0.93374513934E+03  0.00000000000E+00 0.  1.
         21   -1    0    0  504  502  0.00000000000E+00 -0.00000000000E+00 -0.26222858534E+03  0.26222858534E+03  0.00000000000E+00 0. -1.
         21    1    1    2  503  505 -0.53536891503E+02  0.36837119956E+03  0.41362074436E+03  0.55645813821E+03  0.00000000000E+00 0. -1.
         21    1    1    2  504  501 -0.22087524838E+02 -0.29812989876E+02 -0.88690751755E+02  0.96139079284E+02  0.00000000000E+00 0. -1.
         21    1    1    2  505  502 -0.33088547669E+02  0.94492098627E+01 -0.74121843044E+01  0.35200568604E+02  0.00000000000E+00 0.  1.
          2    1    1    2  501    0  0.10871296401E+03 -0.34800741955E+03  0.35399874570E+03  0.50817593859E+03  0.00000000000E+00 0.  1.
<scales pt_clust_3="14000.00000" pt_clust_4="43.53703" pt_clust_5="34.41133" pt_clust_6="367.40942"></scales>
<clustering>
<clus scale="   34.411">  2  5  1 -1</clus>
<clus scale="   43.537">  2  4  1 -1</clus>
<clus scale="  367.409">  2  6  1 -1</clus>
<clus scale="   34.411">  2  3  1 -1</clus>
</clustering>
</event>
<event>
 6    0  0.1849053E+002  0.2174891E+03  0.7546771E-02  0.1135769E+00
         21   -1    0    0  501  502  0.00000000000E+00  0.00000000000E+00  0.14703531333E+04  0.14703531333E+04  0.00000000000E+00 0.  1.
          2   -1    0    0  505    0 -0.00000000000E+00 -0.00000000000E+00 -0.25900490915E+04  0.25900490915E+04  0.00000000000E+00 0.  1.
         21    1    1    2  503  504 -0.50961008397E+02  0.14135761517E+03  0.10859013264E+03  0.18539368018E+03  0.00000000000E+00 0.  1.
         21    1    1    2  504  502  0.92044422380E+02 -0.21728776544E+03  0.13112772459E+04  0.13323416095E+04  0.00000000000E+00 0.  1.
         21    1    1    2  505  503  0.28556269992E+00  0.37838624116E+02 -0.29728244320E+03  0.29968098714E+03  0.00000000000E+00 0.  1.
          2    1    1    2  501    0 -0.41368976682E+02  0.38091526151E+02 -0.22422808936E+04  0.22429859479E+04  0.00000000000E+00 0.  1.
<scales pt_clust_3="217.48909" pt_clust_4="14000.00000" pt_clust_5="37.83970" pt_clust_6="85.62526"></scales>
<clustering>
<clus scale="   37.840">  2  5  1 -1</clus>
<clus scale="   85.625">  2  6  1 -1</clus>
<clus scale="  217.489">  2  3  1 -1</clus>
<clus scale="  217.489">  1  3  2 -1</clus>
</clustering>
</event>
<event>
 6    0  0.1849053E+002  0.1389138E+03  0.7546771E-02  0.1214798E+00
         21   -1    0    0  505  502  0.00000000000E+00  0.00000000000E+00  0.23714385034E+03  0.23714385034E+03  0.00000000000E+00 0. -1.
         -2   -1    0    0    0  501 -0.00000000000E+00 -0.00000000000E+00 -0.31208092833E+03  0.31208092833E+03  0.00000000000E+00 0. -1.
         21    1    1    2  503  502  0.72494462935E+02 -0.73833389908E+02 -0.52336674081E+02  0.11595664740E+03  0.00000000000E+00 0.  1.
         21    1    1    2  504  501 -0.15083005437E+02  0.29561854364E+02 -0.39601332652E+02  0.51668809105E+02  0.00000000000E+00 0. -1.
         21    1    1    2  505  504 -0.10628196161E+03  0.10834892568E+03  0.15806797702E+03  0.21913655656E+03  0.00000000000E+00 0. -1.
         -2    1    1    2    0  503  0.48870504113E+02 -0.64077390139E+02 -0.14106704828E+03  0.16246276561E+03  0.00000000000E+00 0. -1.
<scales pt_clust_3="138.91385" pt_clust_4="33.18735" pt_clust_5="14000.00000" pt_clust_6="62.08039"></scales>
<clustering>
<clus scale="   33.187">  2  4  1 -1</clus>
<clus scale="   62.080">  2  6  1 -1</clus>
<clus scale="  138.914">  2  3  1 -1</clus>
<clus scale="  138.914">  1  3  2 -1</clus>
</clustering>
</event>
<event>
 6    0  0.1849053E+002  0.1241869E+03  0.7546771E-02  0.1236346E+00
          4   -1    0    0  503    0 -0.00000000000E+00  0.00000000000E+00  0.17896786730E+04  0.17896786730E+04  0.00000000000E+00 0. -1.
         21   -1    0    0  504  502  0.00000000000E+00 -0.00000000000E+00 -0.87739824564E+02  0.87739824564E+02  0.00000000000E+00 0.  1.
         21    1    1    2  503  505  0.39590959526E+02 -0.97869822826E+02  0.73989910750E+03  0.74739322687E+03  0.00000000000E+00 0. -1.
         21    1    1    2  504  501 -0.49848426796E+02  0.11415148780E+03 -0.24028069974E+02  0.12685730554E+03  0.00000000000E+00 0.  1.
         21    1    1    2  505  502 -0.47200104100E+02 -0.26606188310E+02  0.88951457854E+02  0.10415421709E+03  0.00000000000E+00 0.  1.
          4    1    1    2  501    0  0.57457571370E+02  0.10324523335E+02  0.89711635305E+03  0.89901374806E+03  0.00000000000E+00 0. -1.
<scales pt_clust_3="124.18688" pt_clust_4="14000.00000" pt_clust_5="54.18246" pt_clust_6="57.77253"></scales>
<clustering>
<clus scale="   54.182">  2  5  1 -1</clus>
<clus scale="   57.773">  1  6  2 -1</clus>
<clus scale="  124.187">  1  3  2 -1</clus>
<clus scale="   54.182">  2  3  1 -1</clus>
</clustering>
</event>
<event>
 6    0  0.1849053E+002  0.1546867E+03  0.7546771E-02  0.1194829E+00
         21   -1    0    0  505  502  0.00000000000E+00  0.00000000000E+00  0.62589930980E+03  0.62589930980E+03  0.00000000000E+00 0.  1.
          1   -1    0    0  503    0 -0.00000000000E+00 -0.00000000000E+00 -0.49887117529E+03  0.49887117529E+03  0.00000000000E+00 0.  1.
         21    1    1    2  503  502 -0.52330951059E+02  0.18410662563E+01 -0.10054971592E+02  0.53319981409E+02  0.00000000000E+00 0. -1.
         21    1    1    2  504  501  0.25872610929E+02  0.10916945265E+03  0.25142155523E+02  0.11497603825E+03  0.00000000000E+00 0.  1.
         21    1    1    2  505  504 -0.11701210408E+03 -0.12599866347E+03  0.50728497775E+03  0.53563564514E+03  0.00000000000E+00 0.  1.
          1    1    1    2  501    0  0.14347044421E+03  0.14988144565E+02 -0.39534402718E+03  0.42083882029E+03  0.00000000000E+00 0.  1.
<scales pt_clust_3="52.36333" pt_clust_4="14000.00000" pt_clust_5="154.68674" pt_clust_6="99.15740"></scales>
<clustering>
<clus scale="   52.363">  2  3  1 -1</clus>
<clus scale="   99.157">  2  6  1 -1</clus>
<clus scale="  154.687">  1  5  2 -1</clus>
<clus scale="  154.687">  1  3  2 -1</clus>
</clustering>
</event>
<event>
 6    0  0.1849053E+002  0.1176947E+03  0.7546771E-02  0.1246949E+00
         21   -1    0    0  504  502  0.00000000000E+00  0.00000000000E+00  0.31770978009E+04  0.31770978009E+04  0.00000000000E+00 0. -1.
          4   -1    0    0  503    0 -0.00000000000E+00 -0.00000000000E+00 -0.42088694810E+03  0.42088694810E+03  0.00000000000E+00 0.  1.
         21    1    1    2  503  505 -0.10461466912E+02  0.40499940108E+02  0.34914876186E+02  0.54486108484E+02  0.00000000000E+00 0. -1.
         21    1    1    2  504  501 -0.70215502558E+02 -0.86325351399E+02  0.46335799873E+03  0.47653217948E+03  0.00000000000E+00 0.  1.
         21    1    1    2  505  502  0.18562528007E+02  0.12036634468E+03  0.26552178201E+04  0.26580094614E+04  0.00000000000E+00 0. -1.
          4    1    1    2  501    0  0.62114441464E+02 -0.74540933390E+02 -0.39727984221E+03  0.40895699971E+03  0.00000000000E+00 0.  1.
<scales pt_clust_3="41.82927" pt_clust_4="117.69475" pt_clust_5="14000.00000" pt_clust_6="62.46605"></scales>
<clustering>
<clus scale="   41.829">  2  3  1 -1</clus>
<clus scale="   62.466">  2  6  1 -1</clus>
<clus scale="  117.695">  2  4  1 -1</clus>
<clus scale="  117.695">  1  3  2 -1</clus>
</clustering>
</event>
<event>
 6    0  0.1849053E+002  0.1034116E+03  0.7546771E-02  0.1273281E+00
          2   -1    0    0  504    0 -0.00000000000E+00  0.00000000000E+00  0.60271612578E+03  0.60271612578E+03  0.00000000000E+00 0. -1.
         21   -1    0    0  505  502  0.00000000000E+00 -0.00000000000E+00 -0.48855629590E+03  0.48855629590E+03  0.00000000000E+00 0. -1.
         21    1    1    2  503  501 -0.58697227277E+02 -0.15777261575E+02 -0.86071638381E+02  0.10536893948E+03  0.00000000000E+00 0. -1.
         21    1    1    2  504  502  0.31765991941E+02  0.48151735409E+02  0.26764735719E+03  0.27379330832E+03  0.00000000000E+00 0. -1.
         21    1    1    2  505  503 -0.52365470348E+02  0.45015351679E+01 -0.38199900532E+03  0.38559777796E+03  0.00000000000E+00 0. -1.
          2    1    1    2  501    0  0.79296705684E+02 -0.36876009002E+02  0.31458311639E+03  0.32651239592E+03  0.00000000000E+00 0. -1.
<scales pt_clust_3="103.41164" pt_clust_4="56.96640" pt_clust_5="52.55860" pt_clust_6="14000.00000"></scales>
<clustering>
<clus scale="   52.559">  2  5  1 -1</clus>
<clus scale="   56.966">  1  4  2 -1</clus>
<clus scale="  103.412">  2  3  1 -1</clus>
<clus scale="   52.559">  2  3  1 -1</clus>
</clustering>
</event>
<event>
 6    0  0.1849053E+002  0.1720855E+03  0.7546771E-02  0.1175690E+00
         21   -1    0    0  503  502  0.00000000000E+00  0.00000000000E+00  0.54898172484E+03  0.54898172484E+03  0.00000000000E+00 0.  1.
          2   -1    0    0  504    0 -0.00000000000E+00 -0.00000000000E+00 -0.89043035852E+03  0.89043035852E+03  0.00000000000E+00 0. -1.
         21    1    1    2  503  501 -0.76407850837E+02  0.89463661893E+02  0.43663140996E+03  0.45220448321E+03  0.00000000000E+00 0.  1.
         21    1    1    2  504  505  0.25849775676E+02 -0.16339780199E+02 -0.53265110490E+02  0.61419632976E+02  0.00000000000E+00 0. -1.
         21    1    1    2  505  502  0.12901093910E+02  0.73198263924E+02  0.78665471731E+02  0.10822513806E+03  0.00000000000E+00 0.  1.
          2    1    1    2  501    0  0.37656981251E+02 -0.14632214562E+03 -0.80348040488E+03  0.81756282912E+03  0.00000000000E+00 0. -1.
<scales pt_clust_3="14000.00000" pt_clust_4="30.58103" pt_clust_5="74.12229" pt_clust_6="172.08546"></scales>
<clustering>
<clus scale="   30.581">  2  4  1 -1</clus>
<clus scale="   74.122">  1  5  2 -1</clus>
<clus scale="  172.085">  2  6  1 -1</clus>
<clus scale="   74.122">  1  3  2 -1</clus>
</clustering>
</event>
<event>
 6    0  0.2044329E+002  0.9589481E+02  0.7546771E-02  0.1289173E+00
          1   -1    0    0  504    0 -0.00000000000E+00  0.00000000000E+00  0.88669869937E+03  0.88669869937E+03  0.00000000000E+00 0.  1.
         21   -1    0    0  503  502  0.00000000000E+00 -0.00000000000E+00 -0.77170340875E+03  0.77170340875E+03  0.00000000000E+00 0. -1.
         21    1    1    2  503  501 -0.53932899362E+02  0.25375906713E+02 -0.22461998968E+01  0.59646791105E+02  0.00000000000E+00 0.  1.
         21    1    1    2  504  505 -0.30661896752E+02 -0.93657440199E+01  0.13079821661E+03  0.13467012490E+03  0.00000000000E+00 0.  1.
         21    1    1    2  505  502  0.14858892054E+03 -0.38167962666E+01 -0.72985197349E+03  0.74483363139E+03  0.00000000000E+00 0. -1.
          1    1    1    2  501    0 -0.63994124427E+02 -0.12193366426E+02  0.71629524740E+03  0.71925156072E+03  0.00000000000E+00 0.  1.
<scales pt_clust_3="60.51436" pt_clust_4="32.06040" pt_clust_5="95.89481" pt_clust_6="14000.00000"></scales>
<clustering>
<clus scale="   32.060">  1  4  2 -1</clus>
<clus scale="   60.514">  2  3  1 -1</clus>
<clus scale="   95.895">  2  5  1 -1</clus>
<clus scale="   60.514">  2  3  1 -1</clus>
</clustering>
</event>
<event>
 6    0  0.1849053E+002  0.1286896E+03  0.7546771E-02  0.1229413E+00
          1   -1    0    0  504    0 -0.00000000000E+00  0.00000000000E+00  0.11717255695E+04  0.11717255695E+04  0.00000000000E+00 0. -1.
         21   -1    0    0  505  502  0.00000000000E+00 -0.00000000000E+00 -0.46754544023E+02  0.46754544023E+02  0.00000000000E+00 0. -1.
         21    1    1    2  503  502 -0.14553383939E+03 -0.60771586640E+02  0.15443440891E+03  0.22073348365E+03  0.00000000000E+00 0. -1.
         21    1    1    2  504  503 -0.41674780548E+01 -0.29854919285E+02  0.13834674027E+03  0.14159274212E+03  0.00000000000E+00 0. -1.
         21    1    1    2  505  501  0.44254730726E+02  0.44869926955E+00  0.81421128656E+02  0.92671908982E+02  0.00000000000E+00 0.  1.
          1    1    1    2  501    0  0.10544658672E+03  0.90177806656E+02  0.75076874769E+03  0.76348197882E+03  0.00000000000E+00 0. -1.
<scales pt_clust_3="14000.00000" pt_clust_4="30.14439" pt_clust_5="43.95191" pt_clust_6="128.68956"></scales>
<clustering>
<clus scale="   30.144">  1  4  2 -1</clus>
<clus scale="   43.952">  2  5  1 -1</clus>
<clus scale="  128.690">  1  6  2 -1</clus>
<clus scale="   43.952">  2  3  1 -1</clus>
</clustering>
</event>
<event>
 6    0  0.1849053E+002  0.1372632E+03  0.7546771E-02  0.1217060E+00
         21   -1    0    0  504  502  0.00000000000E+00  0.00000000000E+00  0.43276772693E+03  0.43276772693E+03  0.00000000000E+00 0. -1.
          2   -1    0    0  505    0 -0.00000000000E+00 -0.00000000000E+00 -0.28052125022E+04  0.28052125022E+04  0.00000000000E+00 0. -1.
         21    1    1    2  503  501 -0.72502623954E+02 -0.52882394983E+02 -0.14801388917E+03  0.17309329729E+03  0.00000000000E+00 0. -1.
         21    1    1    2  504  503  0.13516768760E+03  0.40642705423E+02  0.40661635692E+03  0.43041723361E+03  0.00000000000E+00 0. -1.
         21    1    1    2  505  502  0.18493751664E+02 -0.26870080867E+02 -0.31799017147E+03  0.31965883258E+03  0.00000000000E+00 0.  1.
          2    1    1    2  501    0 -0.81158815312E+02  0.39109770428E+02 -0.23130570715E+04  0.23148108656E+04  0.00000000000E+00 0. -1.
<scales pt_clust_3="14000.00000" pt_clust_4="137.26322" pt_clust_5="32.61932" pt_clust_6="65.48453"></scales>
<clustering>
<clus scale="   32.619">  2  5  1 -1</clus>
<clus scale="   65.485">  2  6  1 -1</clus>
<clus scale="  137.263">  1  4  2 -1</clus>
<clus scale="  137.263">  1  3  2 -1</clus>
</clustering>
</event>
<event>
 6    0  0.1849053E+002  0.1256765E+03  0.7546771E-02  0.1234016E+00
         21   -1    0    0  503  502  0.00000000000E+00  0.00000000000E+00  0.35841543216E+02  0.35841543216E+02  0.00000000000E+00 0. -1.
          1   -1    0    0  504    0 -0.00000000000E+00 -0.00000000000E+00 -0.10244473471E+04  0.10244473471E+04  0.00000000000E+00 0. -1.
         21    1    1    2  503  505 -0.76846615698E+02  0.49743106002E+01 -0.48403395736E+02  0.90956224795E+02  0.00000000000E+00 0. -1.
         21    1    1    2  504  502 -0.27417663408E+02  0.71298508012E+02 -0.16493277412E+03  0.18176365283E+03  0.00000000000E+00 0. -1.
         21    1    1    2  505  501  0.24515840210E+02 -0.39573732096E+02 -0.18297713996E+03  0.18880609217E+03  0.00000000000E+00 0. -1.
          1    1    1    2  501    0  0.79748438896E+02 -0.36699086516E+02 -0.59229249404E+03  0.59876292049E+03  0.00000000000E+00 0. -1.
<scales pt_clust_3="115.15734" pt_clust_4="76.38852" pt_clust_5="36.65240" pt_clust_6="36.65240"></scales>
<clustering>
<clus scale="   36.652">  5  6 -1 -1</clus>
<clus scale="   76.389">  1  4  2 -1</clus>
<clus scale="  115.157">  1  3  2 -1</clus>
<clus scale="   76.389">  1  3  2 -1</clus>
</clustering>
</event>
<event>
 6    0  0.1849053E+002  0.1135328E+03  0.7546771E-02  0.1254164E+00
          4   -1    0    0  505    0 -0.00000000000E+00  0.00000000000E+00  0.79119796997E+03  0.79119796997E+03  0.00000000000E+00 0.  1.
         21   -1    0    0  504  502  0.00000000000E+00 -0.00000000000E+00 -0.52198188414E+03  0.52198188414E+03  0.00000000000E+00 0.  1.
         21    1    1    2  503  502 -0.27294689203E+02  0.62340430988E+02 -0.10653071861E+03  0.12641251284E+03  0.00000000000E+00 0. -1.
         21    1    1    2  504  501 -0.39391052321E+02  0.43920399206E+02 -0.39612244659E+03  0.40049175917E+03  0.00000000000E+00 0.  1.
         21    1    1    2  505  503  0.12459651452E+02 -0.70134924655E+02  0.23761255694E+03  0.24806023016E+03  0.00000000000E+00 0. -1.
          4    1    1    2  501    0  0.54226090072E+02 -0.36125905539E+02  0.53425669409E+03  0.53821535195E+03  0.00000000000E+00 0.  1.
<scales pt_clust_3="113.53280" pt_clust_4="58.99709" pt_clust_5="14000.00000" pt_clust_6="64.24394"></scales>
<clustering>
<clus scale="   58.997">  2  4  1 -1</clus>
<clus scale="   64.244">  1  6  2 -1</clus>
<clus scale="  113.533">  2  3  1 -1</clus>
<clus scale="   58.997">  2  3  1 -1</clus>
</clustering>
</event>
<event>
 6    0  0.1849053E+002  0.1690675E+03  0.7546771E-02  0.1178824E+00
         21   -1    0    0  504  502  0.00000000000E+00  0.00000000000E+00  0.17900794213E+03  0.17900794213E+03  0.00000000000E+00 0. -1.
         -2   -1    0    0    0  501 -0.00000000000E+00 -0.00000000000E+00 -0.23895233053E+03  0.23895233053E+03  0.00000000000E+00 0. -1.
         21    1    1    2  503  505  0.39509617324E+02 -0.34403303907E+02 -0.52399787197E+02  0.74096793987E+02  0.00000000000E+00 0. -1.
         21    1    1    2  504  501 -0.58299750857E+02  0.16804317317E+03  0.17420138318E+02  0.17871997711E+03  0.00000000000E+00 0. -1.
         21    1    1    2  505  502  0.17125655266E+02 -0.28202902454E+02  0.31422664152E+02  0.45563972583E+02  0.00000000000E+00 0.  1.
         -2    1    1    2    0  503  0.16644782673E+01 -0.10543696681E+03 -0.56387403674E+02  0.11957952898E+03  0.00000000000E+00 0. -1.
<scales pt_clust_3="46.55871" pt_clust_4="155.43026" pt_clust_5="32.99533" pt_clust_6="46.55871"></scales>
<clustering>
<clus scale="   32.995">  1  5  2 -1</clus>
<clus scale="   46.559">  3  6 -1 -1</clus>
<clus scale="  155.430">  1  4  2 -1</clus>
<clus scale="   32.995">  1  3  2 -1</clus>
</clustering>
</event>
<event>
 6    0  0.1849053E+002  0.2925560E+03  0.7546771E-02  0.1089022E+00
         21   -1    0    0  503  502  0.00000000000E+00  0.00000000000E+00  0.35845866973E+03  0.35845866973E+03  0.00000000000E+00 0. -1.
          2   -1    0    0  502    0 -0.00000000000E+00 -0.00000000000E+00 -0.20080309990E+04  0.20080309990E+04  0.00000000000E+00 0.  1.
         21    1    1    2  503  504 -0.44331398077E+02  0.10122790060E+03  0.16209630405E+03  0.19618249794E+03  0.00000000000E+00 0. -1.
         21    1    1    2  504  505 -0.86035229081E+02  0.14457938053E+03  0.12630467779E+03  0.21037616203E+03  0.00000000000E+00 0. -1.
         21    1    1    2  505  501  0.15373472035E+02 -0.43658189186E+02 -0.15234670524E+03  0.15922279900E+03  0.00000000000E+00 0. -1.
          2    1    1    2  501    0  0.11499315512E+03 -0.20214909194E+03 -0.17856266059E+04  0.18007082098E+04  0.00000000000E+00 0.  1.
<scales pt_clust_3="55.55154" pt_clust_4="286.55683" pt_clust_5="40.32947" pt_clust_6="40.32947"></scales>
<clustering>
<clus scale="   40.329">  5  6 -1 -1</clus>
<clus scale="   55.552">  3  4 -1 -1</clus>
<clus scale="  286.557">  1  3  2 -1</clus>
<clus scale="  286.557">  1  3  2 -1</clus>
</clustering>
</event>
<event>
 6    0  0.1849053E+002  0.7160648E+02  0.7546771E-02  0.1354714E+00
         21   -1    0    0  505  502  0.00000000000E+00  0.00000000000E+00  0.19739938028E+04  0.19739938028E+04  0.00000000000E+00 0.  1.
         -1   -1    0    0    0  501 -0.00000000000E+00 -0.00000000000E+00 -0.16991281014E+03  0.16991281014E+03  0.00000000000E+00 0. -1.
         21    1    1    2  503  501  0.84449295970E+02  0.46778256904E+02  0.22357066686E+02  0.99094537385E+02  0.00000000000E+00 0. -1.
         21    1    1    2  504  502  0.29078696891E+02 -0.33283801925E+02  0.14982605134E+04  0.14989122550E+04  0.00000000000E+00 0.  1.
         21    1    1    2  505  503 -0.44310570298E+02 -0.12105745217E+02  0.40415749291E+03  0.40675945568E+03  0.00000000000E+00 0.  1.
         -1    1    1    2    0  504 -0.69217422563E+02 -0.13887097623E+01 -0.12069408037E+03  0.13914036487E+03  0.00000000000E+00 0. -1.
<scales pt_clust_3="71.60648" pt_clust_4="44.19708" pt_clust_5="44.94757" pt_clust_6="14000.00000"></scales>
<clustering>
<clus scale="   44.197">  1  4  2 -1</clus>
<clus scale="   44.948">  1  5  2 -1</clus>
<clus scale="   71.606">  1  3  2 -1</clus>
<clus scale="   44.197">  1  3  2 -1</clus>
</clustering>
</event>
<event>
 6    0  0.1849053E+002  0.1014800E+03  0.7546771E-02  0.1277214E+00
          3   -1    0    0  503    0 -0.00000000000E+00  0.00000000000E+00  0.96299762632E+02  0.96299762632E+02  0.00000000000E+00 0. -1.
         21   -1    0    0  501  502  0.00000000000E+00 -0.00000000000E+00 -0.81026620903E+03  0.81026620903E+03  0.00000000000E+00 0. -1.
         21    1    1    2  503  504  0.23535981477E+02 -0.53731905117E+02 -0.16138968291E+02  0.60840170522E+02  0.00000000000E+00 0. -1.
         21    1    1    2  504  505 -0.44564402432E+02  0.83383863587E+02 -0.56621226121E+03  0.57405154770E+03  0.00000000000E+00 0. -1.
         21    1    1    2  505  502 -0.37621236090E+02 -0.12859090834E+02 -0.18584438240E+03  0.19004959377E+03  0.00000000000E+00 0. -1.
          3    1    1    2  501    0  0.58649657044E+02 -0.16792867635E+02  0.54229165505E+02  0.81624659670E+02  0.00000000000E+00 0. -1.
<scales pt_clust_3="58.50681" pt_clust_4="14000.00000" pt_clust_5="39.75819" pt_clust_6="101.48005"></scales>
<clustering>
<clus scale="   39.758">  2  5  1 -1</clus>
<clus scale="   58.507">  1  3  2 -1</clus>
<clus scale="  101.480">  1  6  2 -1</clus>
<clus scale="   39.758">  2  3  1 -1</clus>
</clustering>
</event>
<event>
 6    0  0.1849053E+002  0.1595456E+03  0.7546771E-02  0.1189211E+00
          2   -1    0    0  505    0 -0.00000000000E+00  0.00000000000E+00  0.67313454120E+03  0.67313454120E+03  0.00000000000E+00 0. -1.
         21   -1    0    0  504  502  0.00000000000E+00 -0.00000000000E+00 -0.92709768100E+02  0.92709768100E+02  0.00000000000E+00 0. -1.
         21    1    1    2  503  501 -0.91117451457E+02 -0.22719235874E+02 -0.15785526417E+01  0.93920420928E+02  0.00000000000E+00 0. -1.
         21    1    1    2  504  503 -0.81202112728E+02 -0.11063732021E+02  0.70992389982E+02  0.10842559067E+03  0.00000000000E+00 0. -1.
         21    1    1    2  505  502  0.57145701687E+02 -0.43099288468E+02  0.65717016926E+02  0.97169471551E+02  0.00000000000E+00 0.  1.
          2    1    1    2  501    0  0.11517386250E+03  0.76882256363E+02  0.44529391883E+03  0.46632882615E+03  0.00000000000E+00 0. -1.
<scales pt_clust_3="67.94724" pt_clust_4="67.94724" pt_clust_5="71.57639" pt_clust_6="142.00177"></scales>
<clustering>
<clus scale="   67.947">  3  4 -1 -1</clus>
<clus scale="   71.576">  2  5  1 -1</clus>
<clus scale="  142.002">  1  6  2 -1</clus>
<clus scale="   71.576">  2  3  1 -1</clus>
</clustering>
</event>
<event>
 6    0  0.1849053E+002  0.1149766E+03  0.7546771E-02  0.1251622E+00
         21   -1    0    0  503  502  0.00000000000E+00  0.00000000000E+00  0.27400068369E+03  0.27400068369E+03  0.00000000000E+00 0. -1.
          1   -1    0    0  504    0 -0.00000000000E+00 -0.00000000000E+00 -0.82338207541E+03  0.82338207541E+03  0.00000000000E+00 0. -1.
         21    1    1    2  503  501  0.52935223402E+02  0.18764555503E+02  0.35643285452E+02  0.66518344971E+02  0.00000000000E+00 0.  1.
         21    1    1    2  504  505  0.39626735835E+02 -0.62985646605E+02 -0.59633114922E+03  0.60095616263E+03  0.00000000000E+00 0. -1.
         21    1    1    2  505  502 -0.14628482444E+03  0.51178093530E+02  0.18884059268E+03  0.24429330028E+03  0.00000000000E+00 0. -1.
          1    1    1    2  501    0  0.53722865202E+02 -0.69570024269E+01 -0.17753412063E+03  0.18561495122E+03  0.00000000000E+00 0. -1.
<scales pt_clust_3="57.32775" pt_clust_4="14000.00000" pt_clust_5="114.97657" pt_clust_6="54.17145"></scales>
<clustering>
<clus scale="   54.171">  2  6  1 -1</clus>
<clus scale="   57.328">  1  3  2 -1</clus>
<clus scale="  114.977">  1  5  2 -1</clus>
<clus scale="   57.328">  1  3  2 -1</clus>
</clustering>
</event>
<event>
 6    0  0.1849053E+002  0.2394045E+03  0.7546771E-02  0.1120190E+00
         21   -1    0    0  503  502  0.00000000000E+00  0.00000000000E+00  0.20858625150E+04  0.20858625150E+04  0.00000000000E+00 0. -1.
         -2   -1    0    0    0  501 -0.00000000000E+00 -0.00000000000E+00 -0.63267449990E+02  0.63267449990E+02  0.00000000000E+00 0. -1.
         21    1    1    2  503  501  0.22074122348E+03  0.75458568144E+02  0.87853080761E+03  0.90897583200E+03  0.00000000000E+00 0. -1.
         21    1    1    2  504  505 -0.11161520596E+03  0.51060707012E+02  0.22242699433E+03  0.25404510979E+03  0.00000000000E+00 0.  1.
         21    1    1    2  505  502 -0.11757700647E+01 -0.12734174773E+03  0.84296607447E+03  0.85253099994E+03  0.00000000000E+00 0. -1.
         -2    1    1    2    0  504 -0.10795024746E+03  0.82247257276E+00  0.78671188657E+02  0.13357802331E+03  0.00000000000E+00 0. -1.
<scales pt_clust_3="220.50806" pt_clust_4="87.42845" pt_clust_5="127.34718" pt_clust_6="87.42845"></scales>
<clustering>
<clus scale="   87.428">  4  6 -1 -1</clus>
<clus scale="  127.347">  1  5  2 -1</clus>
<clus scale="  220.508">  1  3  2 -1</clus>
<clus scale="  127.347">  1  3  2 -1</clus>
</clustering>
</event>
<event>
 6    0  0.1849053E+002  0.8708677E+02  0.7546771E-02  0.1310064E+00
         21   -1    0    0  505  502  0.00000000000E+00  0.00000000000E+00  0.56786004602E+03  0.56786004602E+03  0.00000000000E+00 0. -1.
          1   -1    0    0  503    0 -0.00000000000E+00 -0.00000000000E+00 -0.12047952631E+04  0.12047952631E+04  0.00000000000E+00 0.  1.
         21    1    1    2  503  504  0.32022321571E+02  0.78915620433E+01 -0.46079946026E+03  0.46197819040E+03  0.00000000000E+00 0. -1.
         21    1    1    2  504  502 -0.54217905113E+02 -0.92845569151E+02  0.50462941213E+03  0.51595612656E+03  0.00000000000E+00 0. -1.
         21    1    1    2  505  501  0.39753626387E+02  0.68291319179E+01  0.47358367627E+02  0.62207739374E+02  0.00000000000E+00 0.  1.
          1    1    1    2  501    0 -0.17558042845E+02  0.78124875189E+02 -0.72812353657E+03  0.73251325278E+03  0.00000000000E+00 0.  1.
<scales pt_clust_3="32.98039" pt_clust_4="87.08677" pt_clust_5="40.66449" pt_clust_6="14000.00000"></scales>
<clustering>
<clus scale="   32.980">  2  3  1 -1</clus>
<clus scale="   40.664">  1  5  2 -1</clus>
<clus scale="   87.087">  1  4  2 -1</clus>
<clus scale="   40.664">  1  3  2 -1</clus>
</clustering>
</event>
<event>
 6    0  0.1849053E+002  0.2771407E+03  0.7546771E-02  0.1097261E+00
         21   -1    0    0  503  502  0.00000000000E+00  0.00000000000E+00  0.23364682255E+03  0.23364682255E+03  0.00000000000E+00 0.  1.
         -3   -1    0    0    0  501 -0.00000000000E+00 -0.00000000000E+00 -0.12248242336E+04  0.12248242336E+04  0.00000000000E+00 0. -1.
         21    1    1    2  503  501 -0.15389410217E+03 -0.10094866203E+03 -0.54391942387E+02  0.19191797843E+03  0.00000000000E+00 0.  1.
         21    1    1    2  504  502  0.49985128033E+02  0.32850577833E+03 -0.46727408842E+02  0.33555626974E+03  0.00000000000E+00 0.  1.
         21    1    1    2  505  504  0.52659481159E+02 -0.31653956997E+02 -0.12072281691E+03  0.13545845293E+03  0.00000000000E+00 0. -1.
         -3    1    1    2    0  505  0.51249492973E+02 -0.19590315931E+03 -0.76933524290E+03  0.79553835504E+03  0.00000000000E+00 0. -1.
<scales pt_clust_3="184.04898" pt_clust_4="254.62635" pt_clust_5="60.27143" pt_clust_6="60.27143"></scales>
<clustering>
<clus scale="   60.271">  5  6 -1 -1</clus>
<clus scale="  184.049">  1  3  2 -1</clus>
<clus scale="  254.626">  1  4  2 -1</clus>
<clus scale="  184.049">  1  3  2 -1</clus>
</clustering>
</event>
<event>
 6    0  0.1849053E+002  0.9698843E+02  0.7546771E-02  0.1286759E+00
          4   -1    0    0  503    0 -0.00000000000E+00  0.00000000000E+00  0.13250901653E+03  0.13250901653E+03  0.00000000000E+00 0. -1.
         21   -1    0    0  504  502  0.00000000000E+00 -0.00000000000E+00 -0.27789357937E+03  0.27789357937E+03  0.00000000000E+00 0. -1.
         21    1    1    2  503  505  0.31313991182E+02 -0.39607244329E+02 -0.14189765205E+02  0.52446632720E+02  0.00000000000E+00 0. -1.
         21    1    1    2  504  501 -0.42762670642E+02  0.65004361744E+02  0.49327336925E+02  0.92127081872E+02  0.00000000000E+00 0. -1.
         21    1    1    2  505  502  0.16777252341E+02 -0.81895731288E+02 -0.19065947149E+03  0.20818122170E+03  0.00000000000E+00 0. -1.
          4    1    1    2  501    0 -0.53285728808E+01  0.56498613873E+02  0.10137336930E+02  0.57647659610E+02  0.00000000000E+00 0. -1.
<scales pt_clust_3="50.49059" pt_clust_4="36.44042" pt_clust_5="87.09805" pt_clust_6="36.44042"></scales>
<clustering>
<clus scale="   36.440">  4  6 -1 -1</clus>
<clus scale="   50.491">  1  3  2 -1</clus>
<clus scale="   87.098">  2  5  1 -1</clus>
<clus scale="   87.098">  2  3  1 -1</clus>
</clustering>
</event>
<event>
 6    0  0.1849053E+002  0.7322040E+02  0.7546771E-02  0.1349472E+00
          2   -1    0    0  505    0 -0.00000000000E+00  0.00000000000E+00  0.75514395822E+02  0.75514395822E+02  0.00000000000E+00 0. -1.
         21   -1    0    0  503  502  0.00000000000E+00 -0.00000000000E+00 -0.35975427112E+03  0.35975427112E+03  0.00000000000E+00 0. -1.
         21    1    1    2  503  501 -0.37241746821E+02 -0.38933722070E+02 -0.12853782471E+03  0.13937271900E+03  0.00000000000E+00 0. -1.
         21    1    1    2  504  502  0.10995910191E+03  0.81215690367E+01 -0.15982739164E+03  0.19416940824E+03  0.00000000000E+00 0. -1.
         21    1    1    2  505  504 -0.39806353209E+02 -0.13998551951E+02 -0.11942203538E+02  0.43853408509E+02  0.00000000000E+00 0.  1.
          2    1    1    2  501    0 -0.32911001876E+02  0.44810704984E+02  0.16067544589E+02  0.57873131199E+02  0.00000000000E+00 0. -1.
<scales pt_clust_3="57.32670" pt_clust_4="14000.00000" pt_clust_5="42.19603" pt_clust_6="73.22040"></scales>
<clustering>
<clus scale="   42.196">  1  5  2 -1</clus>
<clus scale="   57.327">  2  3  1 -1</clus>
<clus scale="   73.220">  1  6  2 -1</clus>
<clus scale="   57.327">  2  3  1 -1</clus>
</clustering>
</event>
<event>
 6    0  0.1849053E+002  0.2227875E+03  0.7546771E-02  0.1131822E+00
          2   -1    0    0  504    0 -0.00000000000E+00  0.00000000000E+00  0.23193791328E+04  0.23193791328E+04  0.00000000000E+00 0.  1.
         21   -1    0    0  503  502  0.00000000000E+00 -0.00000000000E+00 -0.28347782869E+02  0.28347782869E+02  0.00000000000E+00 0.  1.
         21    1    1    2  503  501 -0.34289799344E+02 -0.53470777828E+02  0.55545120018E+03  0.55907150723E+03  0.00000000000E+00 0.  1.
         21    1    1    2  504  505  0.92291314741E+02  0.38260980709E+02  0.37347424392E+03  0.38660651869E+03  0.00000000000E+00 0.  1.
         21    1    1    2  505  502  0.73316478294E+02  0.76382543718E+02  0.16393449656E+03  0.19515152609E+03  0.00000000000E+00 0.  1.
          2    1    1    2  501    0 -0.13131799369E+03 -0.61172746600E+02  0.11981714092E+04  0.12068973636E+04  0.00000000000E+00 0.  1.
<scales pt_clust_3="35.56519" pt_clust_4="92.48916" pt_clust_5="92.48916" pt_clust_6="208.45574"></scales>
<clustering>
<clus scale="   35.565">  3  6 -1 -1</clus>
<clus scale="   92.489">  4  5 -1 -1</clus>
<clus scale="  208.456">  1  3  2 -1</clus>
<clus scale="  222.787">  2  3  1 -1</clus>
</clustering>
</event>
<event>
 6    0  0.1849053E+002  0.1612607E+03  0.7546771E-02  0.1187281E+00
         21   -1    0    0  504  502  0.00000000000E+00  0.00000000000E+00  0.74747871165E+03  0.74747871165E+03  0.00000000000E+00 0.  1.
         -1   -1    0    0    0  501 -0.00000000000E+00 -0.00000000000E+00 -0.20665330841E+03  0.20665330841E+03  0.00000000000E+00 0. -1.
         21    1    1    2  503  502 -0.36081209995E+02 -0.36717023507E+02 -0.43077782466E+02  0.67124428281E+02  0.00000000000E+00 0. -1.
         21    1    1    2  504  505 -0.51750330203E+02  0.34790610023E+02  0.40644333019E+03  0.41119905627E+03  0.00000000000E+00 0.  1.
         21    1    1    2  505  501  0.63330632080E+02  0.11148894001E+03  0.28985410638E+03  0.31694787535E+03  0.00000000000E+00 0.  1.
         -1    1    1    2    0  503  0.24500908118E+02 -0.10956252653E+03 -0.11239425086E+03  0.15886066015E+03  0.00000000000E+00 0. -1.
<scales pt_clust_3="49.60246" pt_clust_4="62.35770" pt_clust_5="143.66316" pt_clust_6="49.60246"></scales>
<clustering>
<clus scale="   49.602">  3  6 -1 -1</clus>
<clus scale="   62.358">  1  4  2 -1</clus>
<clus scale="  143.663">  1  5  2 -1</clus>
<clus scale="   62.358">  1  3  2 -1</clus>
</clustering>
</event>
<event>
 6    0  0.1849053E+002  0.1494968E+03  0.7546771E-02  0.1201093E+00
         21   -1    0    0  503  502  0.00000000000E+00  0.00000000000E+00  0.49248904539E+03  0.49248904539E+03  0.00000000000E+00 0.  1.
         -1   -1    0    0    0  501 -0.00000000000E+00 -0.00000000000E+00 -0.89070522474E+02  0.89070522474E+02  0.00000000000E+00 0.  1.
         21    1    1    2  503  505 -0.34167560707E+02  0.33735185634E+02  0.16481051371E+03  0.17166243148E+03  0.00000000000E+00 0.  1.
         21    1    1    2  504  502  0.86636642717E+02 -0.41238870473E+01  0.26588163463E+02  0.90718491731E+02  0.00000000000E+00 0.  1.
         21    1    1    2  505  501 -0.11901531179E+03 -0.46241133946E+02  0.21551312754E+03  0.25049709589E+03  0.00000000000E+00 0.  1.
         -1    1    1    2    0  504  0.66546229782E+02  0.16629835359E+02 -0.34932817883E+01  0.68681548759E+02  0.00000000000E+00 0.  1.
<scales pt_clust_3="48.01547" pt_clust_4="31.48641" pt_clust_5="145.24356" pt_clust_6="31.48641"></scales>
<clustering>
<clus scale="   31.486">  4  6 -1 -1</clus>
<clus scale="   48.015">  1  3  2 -1</clus>
<clus scale="  145.244">  1  5  2 -1</clus>
<clus scale="   48.015">  1  3  2 -1</clus>
</clustering>
</event>
<event>
 6    0  0.1849053E+002  0.1961426E+03  0.7546771E-02  0.1153035E+00
          1   -1    0    0  503    0 -0.00000000000E+00  0.00000000000E+00  0.52816586305E+03  0.52816586305E+03  0.00000000000E+00 0.  1.
         21   -1    0    0  501  502  0.00000000000E+00 -0.00000000000E+00 -0.45537887965E+03  0.45537887965E+03  0.00000000000E+00 0.  1.
         21    1    1    2  503  504  0.43828492913E+02  0.29920646752E+02  0.37289926143E+02  0.64859235925E+02  0.00000000000E+00 0. -1.
         21    1    1    2  504  505  0.20579360655E+02  0.11763911841E+03 -0.23753249829E+03  0.26586492813E+03  0.00000000000E+00 0.  1.
         21    1    1    2  505  502 -0.36342895123E+02  0.66176602230E+02 -0.15564773324E+03  0.17299238588E+03  0.00000000000E+00 0. -1.
          1    1    1    2  501    0 -0.28064958444E+02 -0.21373636740E+03  0.42867728879E+03  0.47982819276E+03  0.00000000000E+00 0.  1.
<scales pt_clust_3="53.06771" pt_clust_4="50.08726" pt_clust_5="50.08726" pt_clust_6="185.75139"></scales>
<clustering>
<clus scale="   50.087">  4  5 -1 -1</clus>
<clus scale="   53.068">  1  3  2 -1</clus>
<clus scale="  185.751">  1  6  2 -1</clus>
<clus scale="  196.143">  2  3  1 -1</clus>
</clustering>
</event>
<event>
 6    0  0.1849053E+002  0.8953232E+02  0.7546771E-02  0.1303988E+00
          1   -1    0    0  503    0 -0.00000000000E+00  0.00000000000E+00  0.21115751917E+03  0.21115751917E+03  0.00000000000E+00 0. -1.
         21   -1    0    0  505  502  0.00000000000E+00 -0.00000000000E+00 -0.19650758952E+03  0.19650758952E+03  0.00000000000E+00 0.  1.
         21    1    1    2  503  502 -0.46507281709E+02  0.24589814354E+01 -0.40052034640E+02  0.61425884776E+02  0.00000000000E+00 0.  1.
         21    1    1    2  504  501  0.77228034464E+02 -0.22165358704E+02  0.83543696795E+02  0.11590954106E+03  0.00000000000E+00 0. -1.
         21    1    1    2  505  504 -0.24329910031E+02  0.72359453645E+02 -0.10968751601E+03  0.13363826631E+03  0.00000000000E+00 0.  1.
          1    1    1    2  501    0 -0.63908427237E+01 -0.52653076377E+02  0.80845783511E+02  0.96691416549E+02  0.00000000000E+00 0. -1.
<scales pt_clust_3="46.57224" pt_clust_4="89.53232" pt_clust_5="14000.00000" pt_clust_6="53.27130"></scales>
<clustering>
<clus scale="   46.572">  2  3  1 -1</clus>
<clus scale="   53.271">  1  6  2 -1</clus>
<clus scale="   89.532">  1  4  2 -1</clus>
<clus scale="   46.572">  2  3  1 -1</clus>
</clustering>
</event>
<event>
 6    0  0.1849053E+002  0.1097334E+03  0.7546771E-02  0.1261064E+00
         21   -1    0    0  505  502  0.00000000000E+00  0.00000000000E+00  0.22972805290E+03  0.22972805290E+03  0.00000000000E+00 0. -1.
          1   -1    0    0  503    0 -0.00000000000E+00 -0.00000000000E+00 -0.10527202048E+04  0.10527202048E+04  0.00000000000E+00 0.  1.
         21    1    1    2  503  502  0.59790777807E+02  0.40706764404E+02  0.17155463343E+03  0.18617993992E+03  0.00000000000E+00 0. -1.
         21    1    1    2  504  501 -0.20704092503E+01 -0.81770248626E+02 -0.37286628536E+03  0.38173279518E+03  0.00000000000E+00 0. -1.
         21    1    1    2  505  504 -0.20661011810E+01  0.59517174123E+02  0.25443528192E+02  0.64760604665E+02  0.00000000000E+00 0.  1.
          1    1    1    2  501    0 -0.55654267375E+02 -0.18453689902E+02 -0.64712402816E+03  0.64977491793E+03  0.00000000000E+00 0.  1.
<scales pt_clust_3="109.73338" pt_clust_4="14000.00000" pt_clust_5="58.81377" pt_clust_6="58.63392"></scales>
<clustering>
<clus scale="   58.634">  2  6  1 -1</clus>
<clus scale="   58.814">  1  5  2 -1</clus>
<clus scale="  109.733">  1  3  2 -1</clus>
<clus scale="   58.814">  1  3  2 -1</clus>
</clustering>
</event>
<event>
 6    0  0.1849053E+002  0.1531948E+03  0.7546771E-02  0.1196601E+00
          2   -1    0    0  505    0 -0.00000000000E+00  0.00000000000E+00  0.16336038302E+03  0.16336038302E+03  0.00000000000E+00 0.  1.
         21   -1    0    0  503  502  0.00000000000E+00 -0.00000000000E+00 -0.72875650132E+03  0.72875650132E+03  0.00000000000E+00 0. -1.
         21    1    1    2  503  504  0.11986859335E+03  0.12317236818E+03 -0.59173835520E+03  0.61619330811E+03  0.00000000000E+00 0. -1.
         21    1    1    2  504  501 -0.63154926999E+02 -0.13562237480E+02 -0.66704483177E+02  0.92854548438E+02  0.00000000000E+00 0. -1.
         21    1    1    2  505  502 -0.17480319836E+02 -0.87176880236E+02  0.11254888482E+02  0.89621663363E+02  0.00000000000E+00 0.  1.
          2    1    1    2  501    0 -0.39233346511E+02 -0.22433250460E+02  0.81791831590E+02  0.93447364434E+02  0.00000000000E+00 0.  1.
<scales pt_clust_3="14000.00000" pt_clust_4="72.06845" pt_clust_5="153.19479" pt_clust_6="45.19409"></scales>
<clustering>
<clus scale="   45.194">  1  6  2 -1</clus>
<clus scale="   72.068">  1  4  2 -1</clus>
<clus scale="  153.195">  1  5  2 -1</clus>
<clus scale="  153.195">  2  3  1 -1</clus>
</clustering>
</event>
<event>
 6    0  0.1849053E+002  0.1320734E+03  0.7546771E-02  0.1224411E+00
          1   -1    0    0  504    0 -0.00000000000E+00  0.00000000000E+00  0.95308402232E+03  0.95308402232E+03  0.00000000000E+00 0.  1.
         21   -1    0    0  503  502  0.00000000000E+00 -0.00000000000E+00 -0.52076175342E+02  0.52076175342E+02  0.00000000000E+00 0. -1.
         21    1    1    2  503  505  0.95879403188E+01  0.11344275881E+03  0.52779342720E+02  0.12548644207E+03  0.00000000000E+00 0. -1.
         21    1    1    2  504  502  0.53279143857E+01  0.50521372595E+02  0.10973932449E+03  0.12092772676E+03  0.00000000000E+00 0.  1.
         21    1    1    2  505  501 -0.11504142515E+02 -0.79877330612E+02  0.24004876745E+03  0.25325114807E+03  0.00000000000E+00 0.  1.
          1    1    1    2  501    0 -0.34117121894E+01 -0.84086800793E+02  0.49844041231E+03  0.50549488076E+03  0.00000000000E+00 0.  1.
<scales pt_clust_3="119.25116" pt_clust_4="50.80153" pt_clust_5="51.35470" pt_clust_6="51.35470"></scales>
<clustering>
<clus scale="   50.802">  1  4  2 -1</clus>
<clus scale="   51.355">  5  6 -1 -1</clus>
<clus scale="  119.251">  2  3  1 -1</clus>
<clus scale="  119.251">  2  3  1 -1</clus>
</clustering>
</event>
<event>
 6    0  0.1849053E+002  0.9767800E+02  0.7546771E-02  0.1285256E+00
         21   -1    0    0  505  502  0.00000000000E+00  0.00000000000E+00  0.74603686583E+03  0.74603686583E+03  0.00000000000E+00 0. -1.
         -1   -1    0    0    0  501 -0.00000000000E+00 -0.00000000000E+00 -0.38723927194E+03  0.38723927194E+03  0.00000000000E+00 0. -1.
         21    1    1    2  503  502  0.37920047305E+02 -0.11856603036E+02  0.18577428321E+02  0.43859205033E+02  0.00000000000E+00 0.  1.
         21    1    1    2  504  501  0.12490148816E+02  0.56160301206E+02 -0.35238526014E+02  0.67466561826E+02  0.00000000000E+00 0.  1.
         21    1    1    2  505  504 -0.36445914714E+02 -0.99308848131E+02  0.69216383065E+03  0.70020091436E+03  0.00000000000E+00 0. -1.
         -1    1    1    2    0  503 -0.13964281407E+02  0.55005149962E+02 -0.31670513906E+03  0.32174945654E+03  0.00000000000E+00 0. -1.
<scales pt_clust_3="39.73045" pt_clust_4="14000.00000" pt_clust_5="97.67800" pt_clust_6="56.67670"></scales>
<clustering>
<clus scale="   39.730">  1  3  2 -1</clus>
<clus scale="   56.677">  2  6  1 -1</clus>
<clus scale="   97.678">  1  5  2 -1</clus>
<clus scale="   39.730">  1  3  2 -1</clus>
</clustering>
</event>
<event>
 6    0  0.1849053E+002  0.2313985E+03  0.7546771E-02  0.1125659E+00
         21   -1    0    0  505  502  0.00000000000E+00  0.00000000000E+00  0.20574334921E+03  0.20574334921E+03  0.00000000000E+00 0. -1.
          2   -1    0    0  504    0 -0.00000000000E+00 -0.00000000000E+00 -0.16211499149E+04  0.16211499149E+04  0.00000000000E+00 0. -1.
         21    1    1    2  503  502  0.21386589046E+03 -0.16781024263E+03  0.48075501436E+02  0.27606185986E+03  0.00000000000E+00 0. -1.
         21    1    1    2  504  503 -0.18158424995E+03  0.29256853326E+02 -0.10336819356E+04  0.10499176860E+04  0.00000000000E+00 0. -1.
         21    1    1    2  505  501 -0.11856823013E+03  0.95455930269E+02 -0.19724221076E+03  0.24914804741E+03  0.00000000000E+00 0. -1.
          2    1    1    2  501    0  0.86286589616E+02  0.43097459036E+02 -0.23255792069E+03  0.25176567081E+03  0.00000000000E+00 0. -1.
<scales pt_clust_3="231.39854" pt_clust_4="131.79282" pt_clust_5="14000.00000" pt_clust_6="96.45085"></scales>
<clustering>
<clus scale="   96.451">  2  6  1 -1</clus>
<clus scale="  131.793">  2  4  1 -1</clus>
<clus scale="  231.399">  1  3  2 -1</clus>
<clus scale="  231.399">  1  3  2 -1</clus>
</clustering>
</event>
<event>
 6    0  0.1849053E+002  0.1162996E+03  0.7546771E-02  0.1249330E+00
          2   -1    0    0  504    0 -0.00000000000E+00  0.00000000000E+00  0.39246721936E+03  0.39246721936E+03  0.00000000000E+00 0. -1.
         21   -1    0    0  503  502  0.00000000000E+00 -0.00000000000E+00 -0.16639082949E+03  0.16639082949E+03  0.00000000000E+00 0.  1.
         21    1    1    2  503  501  0.12499346221E+03  0.72594132955E+02 -0.72140951764E+02  0.16154748731E+03  0.00000000000E+00 0.  1.
         21    1    1    2  504  505 -0.55746671015E+02 -0.86943628919E+02  0.22857518478E+03  0.25082563871E+03  0.00000000000E+00 0. -1.
         21    1    1    2  505  502 -0.33192225215E+02 -0.21029309383E+01 -0.26480382871E+02  0.42513019303E+02  0.00000000000E+00 0.  1.
          2    1    1    2  501    0 -0.36054565977E+02  0.16452426903E+02  0.96122539728E+02  0.10397190352E+03  0.00000000000E+00 0. -1.
<scales pt_clust_3="14000.00000" pt_clust_4="116.29957" pt_clust_5="33.25878" pt_clust_6="40.50623"></scales>
<clustering>
<clus scale="   33.259">  2  5  1 -1</clus>
<clus scale="   40.506">  1  6  2 -1</clus>
<clus scale="  116.300">  1  4  2 -1</clus>
<clus scale="   33.259">  2  3  1 -1</clus>
</clustering>
</event>
<event>
 6    0  0.1849053E+002  0.1131140E+03  0.7546771E-02  0.1254910E+00
         -2   -1    0    0    0  501 -0.00000000000E+00  0.00000000000E+00  0.13677870168E+04  0.13677870168E+04  0.00000000000E+00 0. -1.
         21   -1    0    0  503  502  0.00000000000E+00 -0.00000000000E+00 -0.17719272667E+03  0.17719272667E+03  0.00000000000E+00 0.  1.
         21    1    1    2  503  501 -0.39498128751E+02 -0.53115224655E+01  0.36871836405E+02  0.54294076708E+02  0.00000000000E+00 0.  1.
         21    1    1    2  504  502  0.84226869056E+02 -0.89675595465E+02 -0.14323582662E+03  0.18881837813E+03  0.00000000000E+00 0.  1.
         21    1    1    2  505  504 -0.32307160902E+01  0.52228356063E+02  0.51940045071E+03  0.52202975672E+03  0.00000000000E+00 0. -1.
         -2    1    1    2    0  505 -0.41498024214E+02  0.42758761867E+02  0.77755782966E+03  0.77983753193E+03  0.00000000000E+00 0. -1.
<scales pt_clust_3="39.85366" pt_clust_4="105.16808" pt_clust_5="39.02821" pt_clust_6="39.02821"></scales>
<clustering>
<clus scale="   39.028">  5  6 -1 -1</clus>
<clus scale="   39.854">  2  3  1 -1</clus>
<clus scale="  105.168">  2  4  1 -1</clus>
<clus scale="   39.854">  2  3  1 -1</clus>
</clustering>
</event>
<event>
 6    0  0.1849053E+002  0.9814438E+02  0.7546771E-02  0.1284247E+00
         21   -1    0    0  505  502  0.00000000000E+00  0.00000000000E+00  0.16102046785E+03  0.16102046785E+03  0.00000000000E+00 0. -1.
          1   -1    0    0  503    0 -0.00000000000E+00 -0.00000000000E+00 -0.68385116107E+03  0.68385116107E+03  0.00000000000E+00 0. -1.
         21    1    1    2  503  504 -0.46904525182E+02  0.46801777367E+02 -0.39305386666E+03  0.39859977790E+03  0.00000000000E+00 0. -1.
         21    1    1    2  504  502 -0.10105499112E+02  0.34246859748E+02 -0.15112500721E+02  0.38773137517E+02  0.00000000000E+00 0. -1.
         21    1    1    2  505  501  0.11158311618E+03 -0.47624293047E+02  0.11616182873E+03  0.16796557850E+03  0.00000000000E+00 0. -1.
          1    1    1    2  501    0 -0.54573091885E+02 -0.33424344067E+02 -0.23082615457E+03  0.23953313501E+03  0.00000000000E+00 0. -1.
<scales pt_clust_3="98.14438" pt_clust_4="35.70670" pt_clust_5="14000.00000" pt_clust_6="63.73284"></scales>
<clustering>
<clus scale="   35.707">  1  4  2 -1</clus>
<clus scale="   63.733">  2  6  1 -1</clus>
<clus scale="   98.144">  2  3  1 -1</clus>
<clus scale="   35.707">  1  3  2 -1</clus>
</clustering>
</event>
<event>
 6    0  0.1849053E+002  0.1487158E+03  0.7546771E-02  0.1202060E+00
          2   -1    0    0  503    0 -0.00000000000E+00  0.00000000000E+00  0.31373297610E+04  0.31373297610E+04  0.00000000000E+00 0.  1.
         21   -1    0    0  504  502  0.00000000000E+00 -0.00000000000E+00 -0.12335882551E+03  0.12335882551E+03  0.00000000000E+00 0. -1.
         21    1    1    2  503  505 -0.31920288835E+02  0.45853114610E+02  0.28252902269E+03  0.28800010699E+03  0.00000000000E+00 0. -1.
         21    1    1    2  504  501 -0.14212568941E+02 -0.62495465344E+02 -0.27641800201E+02  0.69797918471E+02  0.00000000000E+00 0. -1.
         21    1    1    2  505  502  0.12231870268E+03 -0.44974406934E+02 -0.11263897174E+02  0.13081069407E+03  0.00000000000E+00 0. -1.
          2    1    1    2  501    0 -0.76185844900E+02  0.61616757668E+02  0.27703476102E+04  0.27720798670E+04  0.00000000000E+00 0.  1.
<scales pt_clust_3="55.86961" pt_clust_4="63.81379" pt_clust_5="14000.00000" pt_clust_6="148.71577"></scales>
<clustering>
<clus scale="   55.870">  1  3  2 -1</clus>
<clus scale="   63.814">  2  4  1 -1</clus>
<clus scale="  148.716">  1  6  2 -1</clus>
<clus scale="   63.814">  2  3  1 -1</clus>
</clustering>
</event>
<event>
 6    0  0.1849053E+002  0.7333290E+02  0.7546771E-02  0.1349113E+00
          2   -1    0    0  503    0 -0.00000000000E+00  0.00000000000E+00  0.31070475067E+03  0.31070475067E+03  0.00000000000E+00 0.  1.
         21   -1    0    0  505  502  0.00000000000E+00 -0.00000000000E+00 -0.75645920229E+02  0.75645920229E+02  0.00000000000E+00 0. -1.
         21    1    1    2  503  504  0.15281227396E+02  0.28302379411E+02  0.41104148786E+02  0.52192831294E+02  0.00000000000E+00 0.  1.
         21    1    1    2  504  502  0.68090406284E+02  0.67140361402E+02  0.46089549688E+01  0.95735959926E+02  0.00000000000E+00 0. -1.
         21    1    1    2  505  501 -0.28295264255E+02 -0.24396571067E+02  0.11403975067E+02  0.39062325921E+02  0.00000000000E+00 0. -1.
          2    1    1    2  501    0 -0.55076369426E+02 -0.71046169747E+02  0.17794175162E+03  0.19935955376E+03  0.00000000000E+00 0.  1.
<scales pt_clust_3="32.16428" pt_clust_4="14000.00000" pt_clust_5="34.50594" pt_clust_6="73.33290"></scales>
<clustering>
<clus scale="   32.164">  1  3  2 -1</clus>
<clus scale="   34.506">  2  5  1 -1</clus>
<clus scale="   73.333">  1  6  2 -1</clus>
<clus scale="   34.506">  2  3  1 -1</clus>
</clustering>
</event>
<event>
 6    0  0.1849053E+002  0.8749075E+02  0.7546771E-02  0.1309045E+00
          2   -1    0    0  505    0 -0.00000000000E+00  0.00000000000E+00  0.50869395946E+03  0.50869395946E+03  0.00000000000E+00 0.  1.
         21   -1    0    0  503  502  0.00000000000E+00 -0.00000000000E+00 -0.19580331667E+03  0.19580331667E+03  0.00000000000E+00 0. -1.
         21    1    1    2  503  504 -0.32428854580E+02 -0.15531407882E+02  0.12024977015E+02  0.37913787893E+02  0.00000000000E+00 0.  1.
         21    1    1    2  504  501  0.24805499584E+01 -0.70304559122E+02 -0.38454113421E+02  0.80172333136E+02  0.00000000000E+00 0. -1.
         21    1    1    2  505  502 -0.48440661592E+02  0.41784262914E+02 -0.11050548879E+03  0.12768666875E+03  0.00000000000E+00 0. -1.
          2    1    1    2  501    0  0.78388966213E+02  0.44051704090E+02  0.44982526799E+03  0.45872448635E+03  0.00000000000E+00 0.  1.
<scales pt_clust_3="35.95630" pt_clust_4="75.77001" pt_clust_5="14000.00000" pt_clust_6="87.49075"></scales>
<clustering>
<clus scale="   35.956">  2  3  1 -1</clus>
<clus scale="   75.770">  2  4  1 -1</clus>
<clus scale="   87.491">  1  6  2 -1</clus>
<clus scale="   35.956">  2  3  1 -1</clus>
</clustering>
</event>
<event>
 6    0  0.1849053E+002  0.1230723E+03  0.7546771E-02  0.1238113E+00
          1   -1    0    0  505    0 -0.00000000000E+00  0.00000000000E+00  0.13669485621E+04  0.13669485621E+04  0.00000000000E+00 0.  1.
         21   -1    0    0  503  502  0.00000000000E+00 -0.00000000000E+00 -0.24976948265E+03  0.24976948265E+03  0.00000000000E+00 0. -1.
         21    1    1    2  503  501 -0.38137161301E+00 -0.83725671644E+02  0.29836496108E+01  0.83779685494E+02  0.00000000000E+00 0.  1.
         21    1    1    2  504  502  0.11896666318E+02 -0.45348405316E+02 -0.20190840217E+03  0.20728003136E+03  0.00000000000E+00 0. -1.
         21    1    1    2  505  504  0.32409108459E+02  0.22141275071E+02  0.21986834819E+03  0.22334430127E+03  0.00000000000E+00 0. -1.
          1    1    1    2  501    0 -0.43924403164E+02  0.10693280189E+03  0.10962354838E+04  0.11023140266E+04  0.00000000000E+00 0.  1.
<scales pt_clust_3="123.07233" pt_clust_4="46.85207" pt_clust_5="39.25030" pt_clust_6="14000.00000"></scales>
<clustering>
<clus scale="   39.250">  1  5  2 -1</clus>
<clus scale="   46.852">  2  4  1 -1</clus>
<clus scale="  123.072">  2  3  1 -1</clus>
<clus scale="   46.852">  2  3  1 -1</clus>
</clustering>
</event>
<event>
 6    0  0.1849053E+002  0.1439348E+03  0.7546771E-02  0.1208130E+00
         21   -1    0    0  505  502  0.00000000000E+00  0.00000000000E+00  0.24151130472E+03  0.24151130472E+03  0.00000000000E+00 0.  1.
          1   -1    0    0  503    0 -0.00000000000E+00 -0.00000000000E+00 -0.89585414678E+03  0.89585414678E+03  0.00000000000E+00 0. -1.
         21    1    1    2  503  502  0.28967212317E+02  0.25145256216E+02 -0.16250365794E+03  0.16696952459E+03  0.00000000000E+00 0.  1.
         21    1    1    2  504  501  0.74321820008E+02 -0.58660139900E+02  0.66829545703E+02  0.11589190274E+03  0.00000000000E+00 0. -1.
         21    1    1    2  505  504  0.45693884510E+02 -0.29894072757E+02  0.13319151356E+03  0.14394987306E+03  0.00000000000E+00 0.  1.
          1    1    1    2  501    0 -0.14898291684E+03  0.63408956440E+02 -0.69186024340E+03  0.71055415111E+03  0.00000000000E+00 0. -1.
<scales pt_clust_3="38.35861" pt_clust_4="143.93482" pt_clust_5="54.68164" pt_clust_6="14000.00000"></scales>
<clustering>
<clus scale="   38.359">  2  3  1 -1</clus>
<clus scale="   54.682">  1  5  2 -1</clus>
<clus scale="  143.935">  1  4  2 -1</clus>
<clus scale="   54.682">  1  3  2 -1</clus>
</clustering>
</event>
<event>
 6    0  0.1849053E+002  0.8723248E+02  0.7546771E-02  0.1309695E+00
          2   -1    0    0  504    0 -0.00000000000E+00  0.00000000000E+00  0.53221500248E+03  0.53221500248E+03  0.00000000000E+00 0.  1.
         21   -1    0    0  503  502  0.00000000000E+00 -0.00000000000E+00 -0.90662965687E+02  0.90662965687E+02  0.00000000000E+00 0.  1.
         21    1    1    2  503  501  0.55217215999E+01 -0.36995566124E+02 -0.17409110200E+02  0.41258192401E+02  0.00000000000E+00 0.  1.
         21    1    1    2  504  505  0.31561613734E+02 -0.77091275025E+02  0.22407952549E+03  0.23906240585E+03  0.00000000000E+00 0.  1.
         21    1    1    2  505  502  0.40063467959E+02  0.52749804275E+02 -0.20074484936E+02  0.69214220081E+02  0.00000000000E+00 0.  1.
          2    1    1    2  501    0 -0.77146803293E+02  0.61337036874E+02  0.25495610644E+03  0.27334314984E+03  0.00000000000E+00 0.  1.
<scales pt_clust_3="37.40536" pt_clust_4="14000.00000" pt_clust_5="51.08751" pt_clust_6="87.23248"></scales>
<clustering>
<clus scale="   37.405">  2  3  1 -1</clus>
<clus scale="   51.088">  2  5  1 -1</clus>
<clus scale="   87.232">  2  6  1 -1</clus>
<clus scale="   37.405">  2  3  1 -1</clus>
</clustering>
</event>
<event>
 6    0  0.1849053E+002  0.1207273E+03  0.7546771E-02  0.1241902E+00
         21   -1    0    0  504  502  0.00000000000E+00  0.00000000000E+00  0.24331923598E+03  0.24331923598E+03  0.00000000000E+00 0. -1.
          1   -1    0    0  503    0 -0.00000000000E+00 -0.00000000000E+00 -0.10022911393E+04  0.10022911393E+04  0.00000000000E+00 0.  1.
         21    1    1    2  503  505  0.61000638466E+02 -0.71222545134E+02 -0.12975959003E+03  0.16009772026E+03  0.00000000000E+00 0. -1.
         21    1    1    2  504  501 -0.47160722096E+02  0.25668713836E+02  0.49502460000E+02  0.73030884732E+02  0.00000000000E+00 0.  1.
         21    1    1    2  505  502  0.21589007729E+01  0.10129421691E+03  0.15039905847E+03  0.18134237238E+03  0.00000000000E+00 0. -1.
          1    1    1    2  501    0 -0.15998817143E+02 -0.55740385612E+02 -0.82911383174E+03  0.83113939789E+03  0.00000000000E+00 0.  1.
<scales pt_clust_3="120.72731" pt_clust_4="53.69373" pt_clust_5="14000.00000" pt_clust_6="57.92683"></scales>
<clustering>
<clus scale="   53.694">  1  4  2 -1</clus>
<clus scale="   57.927">  2  6  1 -1</clus>
<clus scale="  120.727">  2  3  1 -1</clus>
<clus scale="   53.694">  1  3  2 -1</clus>
</clustering>
</event>
<event>
 6    0  0.1849053E+002  0.7392824E+02  0.7546771E-02  0.1347222E+00
          2   -1    0    0  503    0 -0.00000000000E+00  0.00000000000E+00  0.58931502044E+03  0.58931502044E+03  0.00000000000E+00 0.  1.
         21   -1    0    0  501  502  0.00000000000E+00 -0.00000000000E+00 -0.13444895184E+03  0.13444895184E+03  0.00000000000E+00 0.  1.
         21    1    1    2  503  504 -0.14163459250E+02  0.48650547960E+02  0.52551687079E+02  0.73001090469E+02  0.00000000000E+00 0. -1.
         21    1    1    2  504  505 -0.82124717373E+01  0.65545021418E+02 -0.84622380310E+02  0.10735241858E+03  0.00000000000E+00 0.  1.
         21    1    1    2  505  502 -0.37010771791E+02 -0.77315131673E+01 -0.35735774418E+01  0.37978204014E+02  0.00000000000E+00 0.  1.
          2    1    1    2  501    0  0.59386702778E+02 -0.10646405621E+03  0.49051033927E+03  0.50543225923E+03  0.00000000000E+00 0.  1.
<scales pt_clust_3="51.04587" pt_clust_4="14000.00000" pt_clust_5="37.80970" pt_clust_6="73.92824"></scales>
<clustering>
<clus scale="   37.810">  2  5  1 -1</clus>
<clus scale="   51.046">  1  3  2 -1</clus>
<clus scale="   73.928">  1  6  2 -1</clus>
<clus scale="   37.810">  2  3  1 -1</clus>
</clustering>
</event>
<event>
 6    0  0.1849053E+002  0.1922915E+03  0.7546771E-02  0.1156411E+00
         21   -1    0    0  504  502  0.00000000000E+00  0.00000000000E+00  0.23716185887E+02  0.23716185887E+02  0.00000000000E+00 0. -1.
          2   -1    0    0  502    0 -0.00000000000E+00 -0.00000000000E+00 -0.28099255680E+04  0.28099255680E+04  0.00000000000E+00 0.  1.
         21    1    1    2  503  505  0.18832167732E+02  0.98832004358E+02 -0.21835742524E+03  0.24042125693E+03  0.00000000000E+00 0. -1.
         21    1    1    2  504  503 -0.17884189643E+02  0.88296279901E+02 -0.22318435941E+03  0.24068098298E+03  0.00000000000E+00 0. -1.
         21    1    1    2  505  501  0.77386298255E+01 -0.99471651929E+02 -0.14925972442E+04  0.14959281497E+04  0.00000000000E+00 0.  1.
          2    1    1    2  501    0 -0.86866079148E+01 -0.87656632329E+02 -0.85207035335E+03  0.85661136428E+03  0.00000000000E+00 0.  1.
<scales pt_clust_3="191.05030" pt_clust_4="36.43234" pt_clust_5="41.57854" pt_clust_6="41.57854"></scales>
<clustering>
<clus scale="   36.432">  3  4 -1 -1</clus>
<clus scale="   41.579">  5  6 -1 -1</clus>
<clus scale="  191.050">  1  3  2 -1</clus>
<clus scale="  191.050">  1  3  2 -1</clus>
</clustering>
</event>
<event>
 6    0  0.1849053E+002  0.1300166E+03  0.7546771E-02  0.1227431E+00
         21   -1    0    0  504  502  0.00000000000E+00  0.00000000000E+00  0.13405358180E+03  0.13405358180E+03  0.00000000000E+00 0.  1.
          2   -1    0    0  505    0 -0.00000000000E+00 -0.00000000000E+00 -0.13118468380E+04  0.13118468380E+04  0.00000000000E+00 0. -1.
         21    1    1    2  503  502  0.30412719438E+02 -0.35972302680E+02  0.56616080646E+02  0.73649987450E+02  0.00000000000E+00 0.  1.
         21    1    1    2  504  501  0.20285201648E+02  0.10873678074E+03 -0.78080530858E+03  0.78860136114E+03  0.00000000000E+00 0. -1.
         21    1    1    2  505  503 -0.17081041758E+01 -0.97498477241E+02  0.25996227581E+02  0.10091914849E+03  0.00000000000E+00 0.  1.
          2    1    1    2  501    0 -0.48989816910E+02  0.24733999182E+02 -0.47960025590E+03  0.48272992276E+03  0.00000000000E+00 0. -1.
<scales pt_clust_3="47.10563" pt_clust_4="14000.00000" pt_clust_5="130.01659" pt_clust_6="53.89673"></scales>
<clustering>
<clus scale="   47.106">  1  3  2 -1</clus>
<clus scale="   53.897">  2  6  1 -1</clus>
<clus scale="  130.017">  1  5  2 -1</clus>
<clus scale="   47.106">  1  3  2 -1</clus>
</clustering>
</event>
<event>
 6    0  0.1849053E+002  0.1293821E+03  0.7546771E-02  0.1228376E+00
         21   -1    0    0  503  502  0.00000000000E+00  0.00000000000E+00  0.22188022370E+03  0.22188022370E+03  0.00000000000E+00 0.  1.
          2   -1    0    0  505    0 -0.00000000000E+00 -0.00000000000E+00 -0.10732511633E+04  0.10732511633E+04  0.00000000000E+00 0. -1.
         21    1    1    2  503  504 -0.53898651469E+01  0.32774540939E+02  0.20830011899E+02  0.39206001783E+02  0.00000000000E+00 0.  1.
         21    1    1    2  504  501  0.82571752499E+02  0.51551040903E+02 -0.23276512738E+03  0.25229983879E+03  0.00000000000E+00 0.  1.
         21    1    1    2  505  502 -0.13028550820E+03 -0.37295241920E+02  0.15508013642E+03  0.20594925935E+03  0.00000000000E+00 0.  1.
          2    1    1    2  501    0  0.53103620845E+02 -0.47030339922E+02 -0.79451596053E+03  0.79767628707E+03  0.00000000000E+00 0. -1.
<scales pt_clust_3="33.21477" pt_clust_4="129.38206" pt_clust_5="14000.00000" pt_clust_6="70.72353"></scales>
<clustering>
<clus scale="   33.215">  1  3  2 -1</clus>
<clus scale="   70.724">  2  6  1 -1</clus>
<clus scale="  129.382">  2  4  1 -1</clus>
<clus scale="   33.215">  1  3  2 -1</clus>
</clustering>
</event>
<event>
 6    0  0.1849053E+002  0.1774327E+03  0.7546771E-02  0.1170311E+00
         21   -1    0    0  501  502  0.00000000000E+00  0.00000000000E+00  0.79454121467E+03  0.79454121467E+03  0.00000000000E+00 0. -1.
          2   -1    0    0  504    0 -0.00000000000E+00 -0.00000000000E+00 -0.87898071351E+03  0.87898071351E+03  0.00000000000E+00 0. -1.
         21    1    1    2  503  505  0.40277747607E+01 -0.32132665348E+02  0.12629012075E+03  0.13037609348E+03  0.00000000000E+00 0. -1.
         21    1    1    2  504  503  0.76964024870E+02 -0.12785216030E+03 -0.28717651437E+03  0.32363557657E+03  0.00000000000E+00 0. -1.
         21    1    1    2  505  502  0.25020806584E+02 -0.16915439473E+02  0.62899987622E+03  0.62972455656E+03  0.00000000000E+00 0. -1.
          2    1    1    2  501    0 -0.10601260621E+03  0.17690026512E+03 -0.55255298144E+03  0.58978570157E+03  0.00000000000E+00 0. -1.
<scales pt_clust_3="50.99533" pt_clust_4="14000.00000" pt_clust_5="30.20220" pt_clust_6="177.43265"></scales>
<clustering>
<clus scale="   30.202">  1  5  2 -1</clus>
<clus scale="   50.995">  1  3  2 -1</clus>
<clus scale="  177.433">  1  6  2 -1</clus>
<clus scale="   30.202">  1  3  2 -1</clus>
</clustering>
</event>
<event>
 6    0  0.1849053E+002  0.1039785E+03  0.7546771E-02  0.1272145E+00
          2   -1    0    0  505    0 -0.00000000000E+00  0.00000000000E+00  0.14159944724E+04  0.14159944724E+04  0.00000000000E+00 0. -1.
         21   -1    0    0  503  502  0.00000000000E+00 -0.00000000000E+00 -0.57540295242E+03  0.57540295242E+03  0.00000000000E+00 0. -1.
         21    1    1    2  503  501 -0.31056194494E+02  0.11377666654E+01 -0.21062401064E+02  0.37542062650E+02  0.00000000000E+00 0. -1.
         21    1    1    2  504  502  0.10048559127E+03 -0.81082821785E+02 -0.52359826475E+03  0.53928371095E+03  0.00000000000E+00 0. -1.
         21    1    1    2  505  504 -0.82323529253E+02  0.30663914523E+02  0.12223976667E+03  0.15053238747E+03  0.00000000000E+00 0. -1.
          2    1    1    2  501    0  0.12894132472E+02  0.49281140596E+02  0.12630124191E+04  0.12640392637E+04  0.00000000000E+00 0. -1.
<scales pt_clust_3="31.07703" pt_clust_4="14000.00000" pt_clust_5="103.97845" pt_clust_6="50.93371"></scales>
<clustering>
<clus scale="   31.077">  2  3  1 -1</clus>
<clus scale="   50.934">  1  6  2 -1</clus>
<clus scale="  103.978">  1  5  2 -1</clus>
<clus scale="   31.077">  2  3  1 -1</clus>
</clustering>
</event>
<event>
 6    0  0.1849053E+002  0.8801614E+02  0.7546771E-02  0.1307728E+00
         21   -1    0    0  501  502  0.00000000000E+00  0.00000000000E+00  0.52537903413E+03  0.52537903413E+03  0.00000000000E+00 0.  1.
          2   -1    0    0  505    0 -0.00000000000E+00 -0.00000000000E+00 -0.72975958019E+03  0.72975958019E+03  0.00000000000E+00 0.  1.
         21    1    1    2  503  502  0.14788038519E+02 -0.60351967097E+02  0.35019841060E+03  0.35566834664E+03  0.00000000000E+00 0.  1.
         21    1    1    2  504  503 -0.91642451105E+02  0.10276115326E+03  0.14049996732E+03  0.19671917619E+03  0.00000000000E+00 0.  1.
         21    1    1    2  505  504  0.28969339364E+02  0.10640755985E+02 -0.16319176906E+03  0.16608432135E+03  0.00000000000E+00 0. -1.
          2    1    1    2  501    0  0.47885073221E+02 -0.53049942147E+02 -0.53188715492E+03  0.53666677014E+03  0.00000000000E+00 0.  1.
<scales pt_clust_3="62.12084" pt_clust_4="88.01614" pt_clust_5="30.86176" pt_clust_6="14000.00000"></scales>
<clustering>
<clus scale="   30.862">  2  5  1 -1</clus>
<clus scale="   62.121">  1  3  2 -1</clus>
<clus scale="   88.016">  1  4  2 -1</clus>
<clus scale="   62.121">  1  3  2 -1</clus>
</clustering>
</event>
<event>
 6    0  0.1849053E+002  0.1469812E+03  0.7546771E-02  0.1204232E+00
          1   -1    0    0  503    0 -0.00000000000E+00  0.00000000000E+00  0.13161710814E+04  0.13161710814E+04  0.00000000000E+00 0. -1.
         21   -1    0    0  504  502  0.00000000000E+00 -0.00000000000E+00 -0.25088379950E+03  0.25088379950E+03  0.00000000000E+00 0. -1.
         21    1    1    2  503  502 -0.51252118265E+02 -0.23452492684E+02  0.52155161501E+02  0.76791665634E+02  0.00000000000E+00 0. -1.
         21    1    1    2  504  505  0.47934606794E+02  0.34382566373E+02 -0.77194957327E+02  0.97154252792E+02  0.00000000000E+00 0. -1.
         21    1    1    2  505  501  0.47825227892E+02  0.11818031500E+03 -0.12001141584E+03  0.17509020306E+03  0.00000000000E+00 0. -1.
          1    1    1    2  501    0 -0.44507716421E+02 -0.12911038869E+03  0.12103384935E+04  0.12180187594E+04  0.00000000000E+00 0. -1.
<scales pt_clust_3="56.36310" pt_clust_4="35.87378" pt_clust_5="35.87378" pt_clust_6="137.19391"></scales>
<clustering>
<clus scale="   35.874">  4  5 -1 -1</clus>
<clus scale="   56.363">  2  3  1 -1</clus>
<clus scale="  137.194">  1  6  2 -1</clus>
<clus scale="   56.363">  2  3  1 -1</clus>
</clustering>
</event>
<event>
 6    0  0.1849053E+002  0.1812845E+03  0.7546771E-02  0.1166566E+00
          2   -1    0    0  505    0 -0.00000000000E+00  0.00000000000E+00  0.20337743601E+04  0.20337743601E+04  0.00000000000E+00 0. -1.
         21   -1    0    0  503  502  0.00000000000E+00 -0.00000000000E+00 -0.11552686528E+03  0.11552686528E+03  0.00000000000E+00 0.  1.
         21    1    1    2  503  501 -0.32357018015E+02 -0.23328754932E+02  0.24348509092E+03  0.24673102140E+03  0.00000000000E+00 0.  1.
         21    1    1    2  504  502  0.98029122133E+02  0.34520298759E+02 -0.46628717801E+02  0.11391047861E+03  0.00000000000E+00 0.  1.
         21    1    1    2  505  504  0.66940070297E+02 -0.68191295790E+01  0.53523778630E+01  0.67499048055E+02  0.00000000000E+00 0.  1.
          2    1    1    2  501    0 -0.13261217441E+03 -0.43724142479E+01  0.17160387438E+04  0.17211606773E+04  0.00000000000E+00 0. -1.
<scales pt_clust_3="38.31034" pt_clust_4="176.65130" pt_clust_5="45.68331" pt_clust_6="38.31034"></scales>
<clustering>
<clus scale="   38.310">  3  6 -1 -1</clus>
<clus scale="   45.683">  4  5 -1 -1</clus>
<clus scale="  176.651">  2  4  1 -1</clus>
<clus scale="  176.651">  2  3  1 -1</clus>
</clustering>
</event>
<event>
 6    0  0.1849053E+002  0.2717819E+03  0.7546771E-02  0.1100264E+00
         21   -1    0    0  501  502  0.00000000000E+00  0.00000000000E+00  0.34369978846E+03  0.34369978846E+03  0.00000000000E+00 0. -1.
          1   -1    0    0  505    0 -0.00000000000E+00 -0.00000000000E+00 -0.30407780941E+03  0.30407780941E+03  0.00000000000E+00 0. -1.
         21    1    1    2  503  502  0.61296570675E+02  0.39844276803E+02  0.38892346488E+02  0.82809725188E+02  0.00000000000E+00 0. -1.
         21    1    1    2  504  503  0.11393492331E+03  0.17316031838E+03  0.94443665839E+02  0.22778338093E+03  0.00000000000E+00 0. -1.
         21    1    1    2  505  504 -0.65252506203E+02  0.17640779116E+02 -0.29262202359E+02  0.73657064430E+02  0.00000000000E+00 0.  1.
          1    1    1    2  501    0 -0.10997898779E+03 -0.23064537430E+03 -0.64451830920E+02  0.26352742732E+03  0.00000000000E+00 0. -1.
<scales pt_clust_3="30.35538" pt_clust_4="30.35538" pt_clust_5="67.59502" pt_clust_6="266.93226"></scales>
<clustering>
<clus scale="   30.355">  3  4 -1 -1</clus>
<clus scale="   67.595">  2  5  1 -1</clus>
<clus scale="  266.932">  2  6  1 -1</clus>
<clus scale="  271.782">  1  3  2 -1</clus>
</clustering>
</event>
<event>
 6    0  0.1849053E+002  0.2805483E+03  0.7546771E-02  0.1095390E+00
         21   -1    0    0  503  502  0.00000000000E+00  0.00000000000E+00  0.14509928529E+04  0.14509928529E+04  0.00000000000E+00 0.  1.
         -4   -1    0    0    0  501 -0.00000000000E+00 -0.00000000000E+00 -0.69009295015E+02  0.69009295015E+02  0.00000000000E+00 0.  1.
         21    1    1    2  503  501 -0.64757346083E+02 -0.25835855494E+03  0.81229708094E+03  0.85485039890E+03  0.00000000000E+00 0.  1.
         21    1    1    2  504  502  0.36836883887E+02 -0.99843781909E+01  0.17988246879E+03  0.18388677603E+03  0.00000000000E+00 0. -1.
         21    1    1    2  505  504 -0.50984903886E+01  0.58125270456E+02  0.36493219053E+02  0.68820757818E+02  0.00000000000E+00 0. -1.
         -4    1    1    2    0  505  0.33018952584E+02  0.21021766268E+03  0.35331078912E+03  0.41244421518E+03  0.00000000000E+00 0.  1.
<scales pt_clust_3="268.00379" pt_clust_4="38.16600" pt_clust_5="43.33738" pt_clust_6="43.33738"></scales>
<clustering>
<clus scale="   38.166">  1  4  2 -1</clus>
<clus scale="   43.337">  5  6 -1 -1</clus>
<clus scale="  268.004">  1  3  2 -1</clus>
<clus scale="   38.166">  1  3  2 -1</clus>
</clustering>
</event>
<event>
 6    0  0.1849053E+002  0.1799685E+03  0.7546771E-02  0.1167834E+00
          3   -1    0    0  503    0 -0.00000000000E+00  0.00000000000E+00  0.65072129580E+03  0.65072129580E+03  0.00000000000E+00 0.  1.
         21   -1    0    0  501  502  0.00000000000E+00 -0.00000000000E+00 -0.43031239096E+03  0.43031239096E+03  0.00000000000E+00 0. -1.
         21    1    1    2  503  504  0.79312449595E+01 -0.61608573551E+02  0.21763402535E+02  0.65819196831E+02  0.00000000000E+00 0. -1.
         21    1    1    2  504  505  0.19825465430E+02 -0.73322168410E+02 -0.20054002556E+02  0.78557956175E+02  0.00000000000E+00 0. -1.
         21    1    1    2  505  502  0.64378551082E+02  0.18289619577E+03 -0.32753998424E+03  0.38062850332E+03  0.00000000000E+00 0. -1.
          3    1    1    2  501    0 -0.92135261472E+02 -0.47965453812E+02  0.54623948911E+03  0.55602803043E+03  0.00000000000E+00 0.  1.
<scales pt_clust_3="39.05509" pt_clust_4="39.05509" pt_clust_5="174.70995" pt_clust_6="103.87296"></scales>
<clustering>
<clus scale="   39.055">  3  4 -1 -1</clus>
<clus scale="  103.873">  1  6  2 -1</clus>
<clus scale="  174.710">  2  5  1 -1</clus>
<clus scale="  174.710">  2  3  1 -1</clus>
</clustering>
</event>
<event>
 6    0  0.1849053E+002  0.4430419E+03  0.7546771E-02  0.1029818E+00
         21   -1    0    0  504  502  0.00000000000E+00  0.00000000000E+00  0.87348772877E+03  0.87348772877E+03  0.00000000000E+00 0.  1.
          1   -1    0    0  503    0 -0.00000000000E+00 -0.00000000000E+00 -0.23591100260E+04  0.23591100260E+04  0.00000000000E+00 0. -1.
         21    1    1    2  503  502  0.29611048382E+02  0.16445256751E+02 -0.38271103233E+03  0.38420696886E+03  0.00000000000E+00 0. -1.
         21    1    1    2  504  505 -0.65628542261E+02 -0.30856255804E+03  0.66000556193E+03  0.73152258992E+03  0.00000000000E+00 0.  1.
         21    1    1    2  505  501  0.20668343935E+02 -0.11518153728E+03  0.13327869458E+03  0.17736171346E+03  0.00000000000E+00 0.  1.
          1    1    1    2  501    0  0.15349149944E+02  0.40729883857E+03 -0.18961955214E+04  0.19395064825E+04  0.00000000000E+00 0. -1.
<scales pt_clust_3="33.87124" pt_clust_4="75.07427" pt_clust_5="75.07427" pt_clust_6="425.55354"></scales>
<clustering>
<clus scale="   33.871">  2  3  1 -1</clus>
<clus scale="   75.074">  4  5 -1 -1</clus>
<clus scale="  425.554">  2  6  1 -1</clus>
<clus scale="  443.042">  1  3  2 -1</clus>
</clustering>
</event>
<event>
 6    0  0.1849053E+002  0.1234560E+03  0.7546771E-02  0.1237502E+00
         21   -1    0    0  504  502  0.00000000000E+00  0.00000000000E+00  0.17675030564E+03  0.17675030564E+03  0.00000000000E+00 0. -1.
          2   -1    0    0  503    0 -0.00000000000E+00 -0.00000000000E+00 -0.56680774498E+03  0.56680774498E+03  0.00000000000E+00 0. -1.
         21    1    1    2  503  505  0.35271973233E+02  0.20858442441E+02 -0.89422723069E+02  0.98364679219E+02  0.00000000000E+00 0. -1.
         21    1    1    2  504  501  0.20437551277E+02 -0.26697140510E+02 -0.12376039936E+02  0.35827324463E+02  0.00000000000E+00 0. -1.
         21    1    1    2  505  502  0.23383615671E+00 -0.98763422793E+02  0.13642753097E+03  0.16842428438E+03  0.00000000000E+00 0. -1.
          2    1    1    2  501    0 -0.55943360667E+02  0.10460212086E+03 -0.42468620731E+03  0.44094176256E+03  0.00000000000E+00 0. -1.
<scales pt_clust_3="41.09627" pt_clust_4="33.62188" pt_clust_5="14000.00000" pt_clust_6="123.45596"></scales>
<clustering>
<clus scale="   33.622">  1  4  2 -1</clus>
<clus scale="   41.096">  2  3  1 -1</clus>
<clus scale="  123.456">  2  6  1 -1</clus>
<clus scale="   33.622">  1  3  2 -1</clus>
</clustering>
</event>
<event>
 6    0  0.1849053E+002  0.1041323E+03  0.7546771E-02  0.1271839E+00
         21   -1    0    0  503  502  0.00000000000E+00  0.00000000000E+00  0.18098154177E+04  0.18098154177E+04  0.00000000000E+00 0.  1.
          2   -1    0    0  505    0 -0.00000000000E+00 -0.00000000000E+00 -0.28046231592E+03  0.28046231592E+03  0.00000000000E+00 0.  1.
         21    1    1    2  503  504  0.10109135295E+03 -0.23343653036E+02  0.16358208051E+04  0.16391077128E+04  0.00000000000E+00 0.  1.
         21    1    1    2  504  501 -0.35927404431E+02  0.34522377582E+02 -0.90786895114E+02  0.10356077089E+03  0.00000000000E+00 0.  1.
         21    1    1    2  505  502 -0.24886631283E+02 -0.40288261620E+02  0.15904944534E+03  0.16594943358E+03  0.00000000000E+00 0. -1.
          2    1    1    2  501    0 -0.40277317238E+02  0.29109537075E+02 -0.17473025346E+03  0.18165981643E+03  0.00000000000E+00 0.  1.
<scales pt_clust_3="99.23850" pt_clust_4="31.50633" pt_clust_5="47.35492" pt_clust_6="31.50633"></scales>
<clustering>
<clus scale="   31.506">  4  6 -1 -1</clus>
<clus scale="   47.355">  1  5  2 -1</clus>
<clus scale="   99.239">  1  3  2 -1</clus>
<clus scale="   47.355">  1  3  2 -1</clus>
</clustering>
</event>
<event>
 6    0  0.1849053E+002  0.1777074E+03  0.7546771E-02  0.1170040E+00
          1   -1    0    0  504    0 -0.00000000000E+00  0.00000000000E+00  0.90970619498E+03  0.90970619498E+03  0.00000000000E+00 0. -1.
         21   -1    0    0  503  502  0.00000000000E+00 -0.00000000000E+00 -0.69612768202E+02  0.69612768202E+02  0.00000000000E+00 0. -1.
         21    1    1    2  503  501  0.61235683563E+02 -0.46769954054E+02  0.28388726676E+03  0.29415849091E+03  0.00000000000E+00 0. -1.
         21    1    1    2  504  505 -0.32916266243E+02  0.51266681238E+02 -0.72459647255E+00  0.60928468129E+02  0.00000000000E+00 0. -1.
         21    1    1    2  505  502 -0.78222471019E+02  0.75579214510E+02  0.72546665940E+02  0.13074399174E+03  0.00000000000E+00 0. -1.
          1    1    1    2  501    0  0.49903053699E+02 -0.80075941693E+02  0.48438409055E+03  0.49348801240E+03  0.00000000000E+00 0. -1.
<scales pt_clust_3="37.30858" pt_clust_4="41.92581" pt_clust_5="41.92581" pt_clust_6="173.62643"></scales>
<clustering>
<clus scale="   37.309">  3  6 -1 -1</clus>
<clus scale="   41.926">  4  5 -1 -1</clus>
<clus scale="  173.626">  1  3  2 -1</clus>
<clus scale="  177.707">  2  3  1 -1</clus>
</clustering>
</event>
<event>
 6    0  0.1849053E+002  0.1373826E+03  0.7546771E-02  0.1216895E+00
          2   -1    0    0  505    0 -0.00000000000E+00  0.00000000000E+00  0.31132684111E+03  0.31132684111E+03  0.00000000000E+00 0.  1.
         21   -1    0    0  504  502  0.00000000000E+00 -0.00000000000E+00 -0.50704051424E+03  0.50704051424E+03  0.00000000000E+00 0. -1.
         21    1    1    2  503  501  0.11549590775E+03  0.34057444572E+02 -0.35877946693E+02  0.12564410570E+03  0.00000000000E+00 0.  1.
         21    1    1    2  504  503  0.26637126513E+02  0.28729718456E+02 -0.11484909002E+03  0.12134762754E+03  0.00000000000E+00 0.  1.
         21    1    1    2  505  502 -0.37098866268E+02  0.36083715575E+02 -0.28591760743E+03  0.29056365679E+03  0.00000000000E+00 0. -1.
          2    1    1    2  501    0 -0.10503416800E+03 -0.98870878603E+02  0.24093097101E+03  0.28081196533E+03  0.00000000000E+00 0.  1.
<scales pt_clust_3="14000.00000" pt_clust_4="39.17822" pt_clust_5="59.94333" pt_clust_6="137.38258"></scales>
<clustering>
<clus scale="   39.178">  2  4  1 -1</clus>
<clus scale="   59.943">  2  5  1 -1</clus>
<clus scale="  137.383">  1  6  2 -1</clus>
<clus scale="   39.178">  2  3  1 -1</clus>
</clustering>
</event>
<event>
 6    0  0.1849053E+002  0.1035523E+03  0.7546771E-02  0.1272998E+00
         21   -1    0    0  504  502  0.00000000000E+00  0.00000000000E+00  0.75522320237E+02  0.75522320237E+02  0.00000000000E+00 0.  1.
          1   -1    0    0  505    0 -0.00000000000E+00 -0.00000000000E+00 -0.87982588862E+03  0.87982588862E+03  0.00000000000E+00 0. -1.
         21    1    1    2  503  502  0.11844477282E+02 -0.52778576729E+02 -0.38109836476E+02  0.66168190544E+02  0.00000000000E+00 0.  1.
         21    1    1    2  504  501 -0.98640251820E+02  0.38965271376E+02  0.43304070285E+01  0.10614586227E+03  0.00000000000E+00 0.  1.
         21    1    1    2  505  503  0.24089911202E+02 -0.26049622656E+02 -0.69020217209E+02  0.77606037432E+02  0.00000000000E+00 0.  1.
          1    1    1    2  501    0  0.62705863336E+02  0.39862928010E+02 -0.70150392173E+03  0.70542811861E+03  0.00000000000E+00 0. -1.
<scales pt_clust_3="33.28522" pt_clust_4="95.04771" pt_clust_5="33.28522" pt_clust_6="74.30396"></scales>
<clustering>
<clus scale="   33.285">  3  5 -1 -1</clus>
<clus scale="   74.304">  2  6  1 -1</clus>
<clus scale="   95.048">  1  4  2 -1</clus>
<clus scale="   95.048">  1  3  2 -1</clus>
</clustering>
</event>
<event>
 6    0  0.1849053E+002  0.1824283E+03  0.7546771E-02  0.1165473E+00
          1   -1    0    0  503    0 -0.00000000000E+00  0.00000000000E+00  0.23106075498E+04  0.23106075498E+04  0.00000000000E+00 0.  1.
         21   -1    0    0  501  502  0.00000000000E+00 -0.00000000000E+00 -0.50867037820E+03  0.50867037820E+03  0.00000000000E+00 0.  1.
         21    1    1    2  503  504 -0.36625681743E+02  0.23671680402E+02  0.25813972928E+03  0.26179745768E+03  0.00000000000E+00 0. -1.
         21    1    1    2  504  505  0.11933395956E+03 -0.47767899954E+02 -0.37596631893E+03  0.39733240383E+03  0.00000000000E+00 0.  1.
         21    1    1    2  505  502  0.49931714390E+02  0.16507519917E+02 -0.11216441939E+03  0.12388111758E+03  0.00000000000E+00 0. -1.
          1    1    1    2  501    0 -0.13263999220E+03  0.75886996351E+01  0.20319281806E+04  0.20362669489E+04  0.00000000000E+00 0.  1.
<scales pt_clust_3="43.60951" pt_clust_4="39.24168" pt_clust_5="39.24168" pt_clust_6="171.80294"></scales>
<clustering>
<clus scale="   39.242">  4  5 -1 -1</clus>
<clus scale="   43.610">  1  3  2 -1</clus>
<clus scale="  171.803">  1  6  2 -1</clus>
<clus scale="  182.428">  2  3  1 -1</clus>
</clustering>
</event>
<event>
 6    0  0.1849053E+002  0.1354284E+03  0.7546771E-02  0.1219616E+00
         21   -1    0    0  503  502  0.00000000000E+00  0.00000000000E+00  0.80258085475E+02  0.80258085475E+02  0.00000000000E+00 0.  1.
          2   -1    0    0  505    0 -0.00000000000E+00 -0.00000000000E+00 -0.16639675447E+04  0.16639675447E+04  0.00000000000E+00 0.  1.
         21    1    1    2  503  501  0.57467788795E+02  0.81341463726E+02  0.23005067491E+02  0.10221650356E+03  0.00000000000E+00 0.  1.
         21    1    1    2  504  502  0.98283929724E+00  0.45691762789E+02 -0.26961631658E+02  0.53062536139E+02  0.00000000000E+00 0.  1.
         21    1    1    2  505  504 -0.25203047439E+02 -0.11920746462E+03 -0.14373378704E+04  0.14424929001E+04  0.00000000000E+00 0.  1.
          2    1    1    2  501    0 -0.33247580654E+02 -0.78257618901E+01 -0.14241502462E+03  0.14645369031E+03  0.00000000000E+00 0.  1.
<scales pt_clust_3="135.42840" pt_clust_4="45.48582" pt_clust_5="14000.00000" pt_clust_6="34.15617"></scales>
<clustering>
<clus scale="   34.156">  2  6  1 -1</clus>
<clus scale="   45.486">  1  4  2 -1</clus>
<clus scale="  135.428">  1  3  2 -1</clus>
<clus scale="   45.486">  1  3  2 -1</clus>
</clustering>
</event>
<event>
 6    0  0.1849053E+002  0.1750648E+03  0.7546771E-02  0.1172667E+00
         21   -1    0    0  505  502  0.00000000000E+00  0.00000000000E+00  0.13840188148E+03  0.13840188148E+03  0.00000000000E+00 0.  1.
          2   -1    0    0  503    0 -0.00000000000E+00 -0.00000000000E+00 -0.23874823982E+04  0.23874823982E+04  0.00000000000E+00 0. -1.
         21    1    1    2  503  502 -0.11415219431E+03 -0.10005756650E+02 -0.11479951095E+03  0.16220285555E+03  0.00000000000E+00 0.  1.
         21    1    1    2  504  501  0.60706205988E+02 -0.29884751111E+02 -0.54064599253E+03  0.54486368114E+03  0.00000000000E+00 0. -1.
         21    1    1    2  505  504 -0.41743874295E+02  0.92396838893E+02  0.87649090739E+02  0.13402272190E+03  0.00000000000E+00 0.  1.
          2    1    1    2  501    0  0.95189862619E+02 -0.52506331132E+02 -0.16812841040E+04  0.16847950211E+04  0.00000000000E+00 0. -1.
<scales pt_clust_3="165.33297" pt_clust_4="45.40795" pt_clust_5="101.38899" pt_clust_6="45.40795"></scales>
<clustering>
<clus scale="   45.408">  4  6 -1 -1</clus>
<clus scale="  101.389">  1  5  2 -1</clus>
<clus scale="  165.333">  1  3  2 -1</clus>
<clus scale="  101.389">  1  3  2 -1</clus>
</clustering>
</event>
<event>
 6    0  0.1849053E+002  0.1893880E+03  0.7546771E-02  0.1159014E+00
          2   -1    0    0  505    0 -0.00000000000E+00  0.00000000000E+00  0.19396531760E+04  0.19396531760E+04  0.00000000000E+00 0.  1.
         21   -1    0    0  504  502  0.00000000000E+00 -0.00000000000E+00 -0.19146729421E+03  0.19146729421E+03  0.00000000000E+00 0. -1.
         21    1    1    2  503  501 -0.89095199251E+02 -0.17695783814E+02  0.66062961105E+03  0.66684524313E+03  0.00000000000E+00 0.  1.
         21    1    1    2  504  503 -0.37993992596E+02 -0.55991553261E+01  0.39125897095E+01  0.38603139406E+02  0.00000000000E+00 0.  1.
         21    1    1    2  505  502  0.20397418950E+03  0.69182325161E+02 -0.10082932560E+03  0.23781971532E+03  0.00000000000E+00 0. -1.
          2    1    1    2  501    0 -0.76884997650E+02 -0.45887386021E+02  0.11844730066E+04  0.11878523723E+04  0.00000000000E+00 0.  1.
<scales pt_clust_3="61.94668" pt_clust_4="38.40435" pt_clust_5="178.77497" pt_clust_6="61.94668"></scales>
<clustering>
<clus scale="   38.404">  2  4  1 -1</clus>
<clus scale="   61.947">  3  6 -1 -1</clus>
<clus scale="  178.775">  2  5  1 -1</clus>
<clus scale="   38.404">  2  3  1 -1</clus>
</clustering>
</event>
<event>
 6    0  0.1849053E+002  0.2366727E+03  0.7546771E-02  0.1122029E+00
          2   -1    0    0  504    0 -0.00000000000E+00  0.00000000000E+00  0.19213623694E+04  0.19213623694E+04  0.00000000000E+00 0.  1.
         21   -1    0    0  501  502  0.00000000000E+00 -0.00000000000E+00 -0.33724229087E+03  0.33724229087E+03  0.00000000000E+00 0.  1.
         21    1    1    2  503  502 -0.15809075991E+03  0.61034508018E+02 -0.14717105305E+03  0.22444869880E+03  0.00000000000E+00 0.  1.
         21    1    1    2  504  505 -0.17289274274E+03  0.95403940260E+02  0.27063243038E+03  0.33501600661E+03  0.00000000000E+00 0.  1.
         21    1    1    2  505  503 -0.30187611765E+02  0.50656731087E+02 -0.82161267173E+02  0.10113293297E+03  0.00000000000E+00 0. -1.
          2    1    1    2  501    0  0.36117111442E+03 -0.20709517936E+03  0.15428199684E+04  0.15980070219E+04  0.00000000000E+00 0.  1.
<scales pt_clust_3="43.69376" pt_clust_4="197.46851" pt_clust_5="43.69376" pt_clust_6="224.78340"></scales>
<clustering>
<clus scale="   43.694">  3  5 -1 -1</clus>
<clus scale="  197.469">  1  4  2 -1</clus>
<clus scale="  224.783">  1  6  2 -1</clus>
<clus scale="  236.673">  2  3  1 -1</clus>
</clustering>
</event>
<event>
 6    0  0.1849053E+002  0.1689134E+03  0.7546771E-02  0.1178986E+00
         21   -1    0    0  504  502  0.00000000000E+00  0.00000000000E+00  0.30111408728E+03  0.30111408728E+03  0.00000000000E+00 0. -1.
          2   -1    0    0  503    0 -0.00000000000E+00 -0.00000000000E+00 -0.99160999989E+03  0.99160999989E+03  0.00000000000E+00 0. -1.
         21    1    1    2  503  505 -0.70137010039E+02  0.12111206093E+03 -0.51456326751E+03  0.53325668093E+03  0.00000000000E+00 0. -1.
         21    1    1    2  504  501 -0.13508061005E+03 -0.34869659683E+01  0.21179959050E+03  0.25123295301E+03  0.00000000000E+00 0. -1.
         21    1    1    2  505  502 -0.28392011457E+02 -0.42526661396E+02 -0.21320069615E+01  0.51177814508E+02  0.00000000000E+00 0.  1.
          2    1    1    2  501    0  0.23360963155E+03 -0.75098433563E+02 -0.38560022863E+03  0.45705663872E+03  0.00000000000E+00 0. -1.
<scales pt_clust_3="139.20059" pt_clust_4="168.91341" pt_clust_5="51.13339" pt_clust_6="14000.00000"></scales>
<clustering>
<clus scale="   51.133">  1  5  2 -1</clus>
<clus scale="  139.201">  2  3  1 -1</clus>
<clus scale="  168.913">  1  4  2 -1</clus>
<clus scale="   51.133">  1  3  2 -1</clus>
</clustering>
</event>
<event>
 6    0  0.1849053E+002  0.1242869E+03  0.7546771E-02  0.1236188E+00
          1   -1    0    0  505    0 -0.00000000000E+00  0.00000000000E+00  0.30311663767E+03  0.30311663767E+03  0.00000000000E+00 0.  1.
         21   -1    0    0  504  502  0.00000000000E+00 -0.00000000000E+00 -0.97280157894E+03  0.97280157894E+03  0.00000000000E+00 0. -1.
         21    1    1    2  503  502  0.93677945180E+02 -0.23117554732E+02 -0.21072468094E+03  0.23176468649E+03  0.00000000000E+00 0.  1.
         21    1    1    2  504  501 -0.12027575359E+03  0.83191724959E+02 -0.73746408381E+03  0.75182471023E+03  0.00000000000E+00 0. -1.
         21    1    1    2  505  503 -0.15091204493E+02 -0.28988049852E+02  0.67276858848E+02  0.74794566806E+02  0.00000000000E+00 0.  1.
          1    1    1    2  501    0  0.41689012903E+02 -0.31086120375E+02  0.21122696463E+03  0.21753425308E+03  0.00000000000E+00 0.  1.
<scales pt_clust_3="124.28690" pt_clust_4="14000.00000" pt_clust_5="32.68106" pt_clust_6="64.17288"></scales>
<clustering>
<clus scale="   32.681">  1  5  2 -1</clus>
<clus scale="   64.173">  1  6  2 -1</clus>
<clus scale="  124.287">  1  3  2 -1</clus>
<clus scale="  124.287">  2  3  1 -1</clus>
</clustering>
</event>
<event>
 6    0  0.1849053E+002  0.1757821E+03  0.7546771E-02  0.1171949E+00
         21   -1    0    0  504  502  0.00000000000E+00  0.00000000000E+00  0.11193349297E+04  0.11193349297E+04  0.00000000000E+00 0. -1.
          2   -1    0    0  505    0 -0.00000000000E+00 -0.00000000000E+00 -0.47594473731E+04  0.47594473731E+04  0.00000000000E+00 0. -1.
         21    1    1    2  503  502  0.50337403578E+02 -0.15202077863E+03  0.11050630142E+04  0.11166057660E+04  0.00000000000E+00 0. -1.
         21    1    1    2  504  501 -0.45315326744E+02  0.12816674456E+03 -0.39660619202E+04  0.39683910276E+04  0.00000000000E+00 0. -1.
         21    1    1    2  505  503 -0.13202926966E+02 -0.27108190460E+02 -0.28793153565E+02  0.41691929227E+02  0.00000000000E+00 0.  1.
          2    1    1    2  501    0  0.81808501314E+01  0.50962224538E+02 -0.75032038383E+03  0.75209357997E+03  0.00000000000E+00 0. -1.
<scales pt_clust_3="160.16435" pt_clust_4="45.44049" pt_clust_5="30.15247" pt_clust_6="45.44049"></scales>
<clustering>
<clus scale="   30.152">  2  5  1 -1</clus>
<clus scale="   45.440">  4  6 -1 -1</clus>
<clus scale="  160.164">  1  3  2 -1</clus>
<clus scale="  160.164">  1  3  2 -1</clus>
</clustering>
</event>
<event>
 6    0  0.1849053E+002  0.1110555E+03  0.7546771E-02  0.1258628E+00
         21   -1    0    0  503  502  0.00000000000E+00  0.00000000000E+00  0.72089324166E+02  0.72089324166E+02  0.00000000000E+00 0.  1.
          1   -1    0    0  504    0 -0.00000000000E+00 -0.00000000000E+00 -0.36163193786E+04  0.36163193786E+04  0.00000000000E+00 0.  1.
         21    1    1    2  503  501 -0.38006185977E+02  0.29143894778E+02  0.54277199223E+02  0.72386816001E+02  0.00000000000E+00 0.  1.
         21    1    1    2  504  505 -0.71868992189E+02 -0.22652941073E+02 -0.69917856941E+03  0.70322754475E+03  0.00000000000E+00 0. -1.
         21    1    1    2  505  502 -0.35560401346E+02 -0.13654197448E+02 -0.69766798733E+02  0.79488272451E+02  0.00000000000E+00 0.  1.
          1    1    1    2  501    0  0.14543557951E+03  0.71632437432E+01 -0.28295618855E+04  0.28333060695E+04  0.00000000000E+00 0.  1.
<scales pt_clust_3="73.33560" pt_clust_4="111.05546" pt_clust_5="38.09172" pt_clust_6="14000.00000"></scales>
<clustering>
<clus scale="   38.092">  1  5  2 -1</clus>
<clus scale="   73.336">  1  3  2 -1</clus>
<clus scale="  111.055">  1  4  2 -1</clus>
<clus scale="   38.092">  1  3  2 -1</clus>
</clustering>
</event>
<event>
 6    0  0.1849053E+002  0.7214335E+02  0.7546771E-02  0.1352953E+00
         21   -1    0    0  501  502  0.00000000000E+00  0.00000000000E+00  0.46130019737E+02  0.46130019737E+02  0.00000000000E+00 0. -1.
          2   -1    0    0  505    0 -0.00000000000E+00 -0.00000000000E+00 -0.14009837907E+04  0.14009837907E+04  0.00000000000E+00 0.  1.
         21    1    1    2  503  504 -0.62514366233E+02  0.38326142474E+02 -0.15203915240E+03  0.16879823176E+03  0.00000000000E+00 0. -1.
         21    1    1    2  504  502  0.15965300139E+02  0.35571350764E+02  0.18523251914E+02  0.43166221344E+02  0.00000000000E+00 0. -1.
         21    1    1    2  505  503  0.72631149406E+02 -0.26665915624E+01 -0.23702294862E+03  0.24791585820E+03  0.00000000000E+00 0. -1.
          2    1    1    2  501    0 -0.26082083312E+02 -0.71230901675E+02 -0.98431492184E+03  0.98723349912E+03  0.00000000000E+00 0.  1.
<scales pt_clust_3="14000.00000" pt_clust_4="38.98989" pt_clust_5="70.56471" pt_clust_6="72.14335"></scales>
<clustering>
<clus scale="   38.990">  1  4  2 -1</clus>
<clus scale="   72.143">  2  6  1 -1</clus>
<clus scale="   70.565">  2  5  1 -1</clus>
<clus scale="   38.990">  1  3  2 -1</clus>
</clustering>
</event>
<event>
 6    0  0.1849053E+002  0.3482481E+03  0.7546771E-02  0.1063336E+00
          2   -1    0    0  503    0 -0.00000000000E+00  0.00000000000E+00  0.77013282834E+03  0.77013282834E+03  0.00000000000E+00 0. -1.
         21   -1    0    0  505  502  0.00000000000E+00 -0.00000000000E+00 -0.11795661719E+04  0.11795661719E+04  0.00000000000E+00 0. -1.
         21    1    1    2  503  502  0.78855627929E+02 -0.18040879273E+03  0.82164453114E+02  0.21334605669E+03  0.00000000000E+00 0. -1.
         21    1    1    2  504  501 -0.27105605312E+03  0.46262148873E+03 -0.71937646858E+03  0.89721375898E+03  0.00000000000E+00 0. -1.
         21    1    1    2  505  504  0.62385968778E+02 -0.13036715114E+03 -0.26807703214E+03  0.30455360507E+03  0.00000000000E+00 0.  1.
          2    1    1    2  501    0  0.12981445641E+03 -0.15184554485E+03  0.49585570404E+03  0.53458557951E+03  0.00000000000E+00 0. -1.
<scales pt_clust_3="348.24813" pt_clust_4="14000.00000" pt_clust_5="144.52544" pt_clust_6="202.80071"></scales>
<clustering>
<clus scale="  144.525">  2  5  1 -1</clus>
<clus scale="  202.801">  1  6  2 -1</clus>
<clus scale="  348.248">  1  3  2 -1</clus>
<clus scale="  144.525">  2  3  1 -1</clus>
</clustering>
</event>
<event>
 6    0  0.1849053E+002  0.7554145E+02  0.7546771E-02  0.1342202E+00
          2   -1    0    0  505    0 -0.00000000000E+00  0.00000000000E+00  0.15766387414E+04  0.15766387414E+04  0.00000000000E+00 0.  1.
         21   -1    0    0  503  502  0.00000000000E+00 -0.00000000000E+00 -0.31657794916E+03  0.31657794916E+03  0.00000000000E+00 0.  1.
         21    1    1    2  503  501 -0.40959434399E+02  0.36459346602E+02 -0.13915019868E+02  0.56573730643E+02  0.00000000000E+00 0. -1.
         21    1    1    2  504  502  0.81106745455E+02  0.86014994395E+00 -0.27055610574E+03  0.28245291709E+03  0.00000000000E+00 0.  1.
         21    1    1    2  505  504  0.51337554604E+02 -0.52173216960E+02  0.90806765409E+03  0.91101287230E+03  0.00000000000E+00 0. -1.
          2    1    1    2  501    0 -0.91484865660E+02  0.14853720415E+02  0.63646426380E+03  0.64317717058E+03  0.00000000000E+00 0.  1.
<scales pt_clust_3="54.83575" pt_clust_4="54.91065" pt_clust_5="75.54145" pt_clust_6="14000.00000"></scales>
<clustering>
<clus scale="   54.836">  2  3  1 -1</clus>
<clus scale="   54.911">  2  4  1 -1</clus>
<clus scale="   75.541">  1  5  2 -1</clus>
<clus scale="   54.836">  2  3  1 -1</clus>
</clustering>
</event>
<event>
 6    0  0.1849053E+002  0.1186510E+03  0.7546771E-02  0.1245339E+00
         21   -1    0    0  501  502  0.00000000000E+00  0.00000000000E+00  0.12259706715E+03  0.12259706715E+03  0.00000000000E+00 0.  1.
          2   -1    0    0  504    0 -0.00000000000E+00 -0.00000000000E+00 -0.62581439711E+03  0.62581439711E+03  0.00000000000E+00 0.  1.
         21    1    1    2  503  502  0.22238052820E+02 -0.28853437312E+02  0.48225860234E+02  0.60438277881E+02  0.00000000000E+00 0.  1.
         21    1    1    2  504  505  0.80559275045E+02  0.46576441809E+02 -0.26126704576E+03  0.27734388568E+03  0.00000000000E+00 0. -1.
         21    1    1    2  505  503  0.38443364877E+02 -0.60034340427E+02  0.13956304597E+02  0.72641536132E+02  0.00000000000E+00 0.  1.
          2    1    1    2  501    0 -0.14124069274E+03  0.42311335930E+02 -0.30413244903E+03  0.33798776455E+03  0.00000000000E+00 0.  1.
<scales pt_clust_3="33.98602" pt_clust_4="93.05462" pt_clust_5="33.98602" pt_clust_6="108.70930"></scales>
<clustering>
<clus scale="   33.986">  3  5 -1 -1</clus>
<clus scale="   93.055">  2  4  1 -1</clus>
<clus scale="  108.709">  2  6  1 -1</clus>
<clus scale="  118.651">  1  3  2 -1</clus>
</clustering>
</event>
<event>
 6    0  0.1849053E+002  0.1988698E+03  0.7546771E-02  0.1150696E+00
         21   -1    0    0  503  502  0.00000000000E+00  0.00000000000E+00  0.22350478910E+03  0.22350478910E+03  0.00000000000E+00 0.  1.
          4   -1    0    0  504    0 -0.00000000000E+00 -0.00000000000E+00 -0.62082016924E+03  0.62082016924E+03  0.00000000000E+00 0.  1.
         21    1    1    2  503  501  0.35450313509E+02 -0.94540749554E+02 -0.20269240089E+03  0.22644842113E+03  0.00000000000E+00 0.  1.
         21    1    1    2  504  505  0.95276229633E+01  0.13229338593E+03  0.10103597915E+03  0.16673507322E+03  0.00000000000E+00 0.  1.
         21    1    1    2  505  502 -0.50184623908E+02  0.42930502720E+02  0.58283345918E+02  0.88082194296E+02  0.00000000000E+00 0.  1.
          4    1    1    2  501    0  0.52066874353E+01 -0.80683139093E+02 -0.35394230431E+03  0.36305926969E+03  0.00000000000E+00 0.  1.
<scales pt_clust_3="65.27313" pt_clust_4="59.84495" pt_clust_5="59.84495" pt_clust_6="194.10596"></scales>
<clustering>
<clus scale="   59.845">  4  5 -1 -1</clus>
<clus scale="   65.273">  3  6 -1 -1</clus>
<clus scale="  194.106">  2  3  1 -1</clus>
<clus scale="  198.870">  1  3  2 -1</clus>
</clustering>
</event>
<event>
 6    0  0.1849053E+002  0.1632757E+03  0.7546771E-02  0.1185047E+00
         -1   -1    0    0    0  501 -0.00000000000E+00  0.00000000000E+00  0.26964674607E+03  0.26964674607E+03  0.00000000000E+00 0.  1.
         21   -1    0    0  504  502  0.00000000000E+00 -0.00000000000E+00 -0.22273926263E+04  0.22273926263E+04  0.00000000000E+00 0. -1.
         21    1    1    2  503  502  0.45847382809E+02 -0.62209612101E+02 -0.17271210173E+04  0.17288490469E+04  0.00000000000E+00 0. -1.
         21    1    1    2  504  505  0.11132792657E+03 -0.25837598022E+02 -0.44145211789E+03  0.45600598800E+03  0.00000000000E+00 0. -1.
         21    1    1    2  505  501 -0.11692861528E+03  0.55941267532E+02  0.42890625177E+02  0.13653326412E+03  0.00000000000E+00 0. -1.
         -1    1    1    2    0  503 -0.40246694105E+02  0.32105942592E+02  0.16793662982E+03  0.17565107336E+03  0.00000000000E+00 0.  1.
<scales pt_clust_3="76.83989" pt_clust_4="163.27575" pt_clust_5="14000.00000" pt_clust_6="51.48386"></scales>
<clustering>
<clus scale="   51.484">  1  6  2 -1</clus>
<clus scale="   76.840">  2  3  1 -1</clus>
<clus scale="  163.276">  2  4  1 -1</clus>
<clus scale="   76.840">  2  3  1 -1</clus>
</clustering>
</event>
<event>
 6    0  0.1849053E+002  0.1155880E+03  0.7546771E-02  0.1250558E+00
         21   -1    0    0  505  502  0.00000000000E+00  0.00000000000E+00  0.10520815209E+03  0.10520815209E+03  0.00000000000E+00 0. -1.
          2   -1    0    0  503    0 -0.00000000000E+00 -0.00000000000E+00 -0.18969422974E+04  0.18969422974E+04  0.00000000000E+00 0.  1.
         21    1    1    2  503  502 -0.44237845420E+02  0.11985297501E+02 -0.12299525550E+04  0.12308062081E+04  0.00000000000E+00 0.  1.
         21    1    1    2  504  501  0.13269576923E+03 -0.81586855951E+02 -0.38150210714E+02  0.16037462646E+03  0.00000000000E+00 0. -1.
         21    1    1    2  505  504 -0.31494694404E+02  0.19577719770E+02  0.32733235712E+02  0.49463800978E+02  0.00000000000E+00 0. -1.
          2    1    1    2  501    0 -0.56963229407E+02  0.50023838680E+02 -0.55636461524E+03  0.56150581389E+03  0.00000000000E+00 0.  1.
<scales pt_clust_3="46.06920" pt_clust_4="14000.00000" pt_clust_5="37.08373" pt_clust_6="115.58797"></scales>
<clustering>
<clus scale="   37.084">  1  5  2 -1</clus>
<clus scale="   46.069">  2  3  1 -1</clus>
<clus scale="  115.588">  2  6  1 -1</clus>
<clus scale="   37.084">  1  3  2 -1</clus>
</clustering>
</event>
<event>
 6    0  0.1849053E+002  0.1741389E+03  0.7546771E-02  0.1173599E+00
         21   -1    0    0  504  502  0.00000000000E+00  0.00000000000E+00  0.22436696460E+03  0.22436696460E+03  0.00000000000E+00 0. -1.
          1   -1    0    0  503    0 -0.00000000000E+00 -0.00000000000E+00 -0.53017324373E+03  0.53017324373E+03  0.00000000000E+00 0. -1.
         21    1    1    2  503  505  0.40216733183E+02 -0.16205275472E+02 -0.24781564932E+02  0.49941190830E+02  0.00000000000E+00 0.  1.
         21    1    1    2  504  501 -0.85911668515E+02 -0.74854708975E+01  0.11260756116E+02  0.86969257154E+02  0.00000000000E+00 0. -1.
         21    1    1    2  505  502 -0.10445916986E+03  0.40879054617E+02  0.12847218630E+03  0.17055180423E+03  0.00000000000E+00 0. -1.
          1    1    1    2  501    0  0.15015410519E+03 -0.17188308247E+02 -0.42075765661E+03  0.44707795611E+03  0.00000000000E+00 0. -1.
<scales pt_clust_3="43.35893" pt_clust_4="83.28136" pt_clust_5="174.13889" pt_clust_6="14000.00000"></scales>
<clustering>
<clus scale="   43.359">  2  3  1 -1</clus>
<clus scale="   83.281">  1  4  2 -1</clus>
<clus scale="  174.139">  1  5  2 -1</clus>
<clus scale="   83.281">  1  3  2 -1</clus>
</clustering>
</event>
<event>
 6    0  0.1849053E+002  0.1783938E+03  0.7546771E-02  0.1169367E+00
         21   -1    0    0  503  502  0.00000000000E+00  0.00000000000E+00  0.17464097339E+03  0.17464097339E+03  0.00000000000E+00 0. -1.
          2   -1    0    0  505    0 -0.00000000000E+00 -0.00000000000E+00 -0.69553108538E+03  0.69553108538E+03  0.00000000000E+00 0. -1.
         21    1    1    2  503  501 -0.61703555579E+01  0.42607836658E+02  0.90273655325E-01  0.43052400417E+02  0.00000000000E+00 0. -1.
         21    1    1    2  504  502 -0.13441217731E+03  0.72028946776E+02  0.87777264954E+02  0.17595354735E+03  0.00000000000E+00 0. -1.
         21    1    1    2  505  504 -0.29544188472E+02 -0.23631497489E+02 -0.86606197530E+02  0.94508942417E+02  0.00000000000E+00 0. -1.
          2    1    1    2  501    0  0.17012672134E+03 -0.91005285945E+02 -0.52215145307E+03  0.55665716858E+03  0.00000000000E+00 0. -1.
<scales pt_clust_3="42.38806" pt_clust_4="178.39381" pt_clust_5="37.83261" pt_clust_6="14000.00000"></scales>
<clustering>
<clus scale="   37.833">  2  5  1 -1</clus>
<clus scale="   42.388">  1  3  2 -1</clus>
<clus scale="  178.394">  1  4  2 -1</clus>
<clus scale="   42.388">  1  3  2 -1</clus>
</clustering>
</event>
<event>
 6    0  0.1849053E+002  0.1595477E+03  0.7546771E-02  0.1189208E+00
         21   -1    0    0  503  502  0.00000000000E+00  0.00000000000E+00  0.11311066024E+04  0.11311066024E+04  0.00000000000E+00 0.  1.
          1   -1    0    0  502    0 -0.00000000000E+00 -0.00000000000E+00 -0.19702553434E+03  0.19702553434E+03  0.00000000000E+00 0.  1.
         21    1    1    2  503  504  0.30696468551E+02  0.22434303884E+02  0.99422578329E+02  0.10644444680E+03  0.00000000000E+00 0. -1.
         21    1    1    2  504  505  0.95385485356E+02  0.48296641682E+02  0.99144838175E+03  0.99719649522E+03  0.00000000000E+00 0.  1.
         21    1    1    2  505  501 -0.66588347068E+02 -0.13024649277E+02 -0.11019658143E+03  0.12940995330E+03  0.00000000000E+00 0.  1.
          1    1    1    2  501    0 -0.59493606839E+02 -0.57706296289E+02 -0.46593310557E+02  0.95081241445E+02  0.00000000000E+00 0.  1.
<scales pt_clust_3="38.02067" pt_clust_4="143.32399" pt_clust_5="63.61440" pt_clust_6="63.61440"></scales>
<clustering>
<clus scale="   38.021">  1  3  2 -1</clus>
<clus scale="   63.614">  5  6 -1 -1</clus>
<clus scale="  143.324">  1  4  2 -1</clus>
<clus scale="   38.021">  1  3  2 -1</clus>
</clustering>
</event>
<event>
 6    0  0.1849053E+002  0.1703474E+03  0.7546771E-02  0.1177486E+00
         -2   -1    0    0    0  501 -0.00000000000E+00  0.00000000000E+00  0.85253994110E+03  0.85253994110E+03  0.00000000000E+00 0.  1.
         21   -1    0    0  503  502  0.00000000000E+00 -0.00000000000E+00 -0.47459829485E+02  0.47459829485E+02  0.00000000000E+00 0.  1.
         21    1    1    2  503  504  0.65601182128E+02 -0.31548489276E+02  0.31653876365E+02  0.79377516723E+02  0.00000000000E+00 0.  1.
         21    1    1    2  504  501  0.76144823194E+02 -0.26319152155E+02  0.11430553716E+03  0.13984451257E+03  0.00000000000E+00 0. -1.
         21    1    1    2  505  502 -0.98111839905E+02  0.37700039025E+01  0.32510510336E+03  0.33960782425E+03  0.00000000000E+00 0.  1.
         -2    1    1    2    0  505 -0.43634165416E+02  0.54097637528E+02  0.33401559473E+03  0.34116991705E+03  0.00000000000E+00 0.  1.
<scales pt_clust_3="54.71652" pt_clust_4="163.56695" pt_clust_5="62.83511" pt_clust_6="62.83511"></scales>
<clustering>
<clus scale="   54.717">  3  4 -1 -1</clus>
<clus scale="   62.835">  5  6 -1 -1</clus>
<clus scale="  163.567">  2  3  1 -1</clus>
<clus scale="  163.567">  2  3  1 -1</clus>
</clustering>
</event>
<event>
 6    0  0.1849053E+002  0.8187131E+02  0.7546771E-02  0.1323823E+00
         21   -1    0    0  503  502  0.00000000000E+00  0.00000000000E+00  0.12861617848E+03  0.12861617848E+03  0.00000000000E+00 0.  1.
         -1   -1    0    0    0  501 -0.00000000000E+00 -0.00000000000E+00 -0.38352156469E+03  0.38352156469E+03  0.00000000000E+00 0.  1.
         21    1    1    2  503  501 -0.49130913646E+01 -0.58249904469E+02 -0.36876484926E+02  0.69116314846E+02  0.00000000000E+00 0.  1.
         21    1    1    2  504  502  0.36016179354E+02 -0.45554480091E+01  0.18950503448E+02  0.40951664957E+02  0.00000000000E+00 0.  1.
         21    1    1    2  505  504 -0.35996255062E+02  0.13985711167E+03  0.85692450291E+01  0.14466918823E+03  0.00000000000E+00 0.  1.
         -1    1    1    2    0  505  0.48931670731E+01 -0.77051759191E+02 -0.24554864977E+03  0.25740057514E+03  0.00000000000E+00 0.  1.
<scales pt_clust_3="59.00217" pt_clust_4="36.30313" pt_clust_5="81.87131" pt_clust_6="14000.00000"></scales>
<clustering>
<clus scale="   36.303">  1  4  2 -1</clus>
<clus scale="   59.002">  1  3  2 -1</clus>
<clus scale="   81.871">  1  5  2 -1</clus>
<clus scale="   36.303">  1  3  2 -1</clus>
</clustering>
</event>
<event>
 6    0  0.1849053E+002  0.1293990E+03  0.7546771E-02  0.1228350E+00
         -2   -1    0    0    0  501 -0.00000000000E+00  0.00000000000E+00  0.64584618504E+03  0.64584618504E+03  0.00000000000E+00 0.  1.
         21   -1    0    0  505  502  0.00000000000E+00 -0.00000000000E+00 -0.85964683808E+02  0.85964683808E+02  0.00000000000E+00 0.  1.
         21    1    1    2  503  504 -0.38627161686E+02  0.10929229930E+02  0.78346840029E+01  0.40900953048E+02  0.00000000000E+00 0.  1.
         21    1    1    2  504  501  0.35822524238E+02  0.32823281381E+02  0.23489682647E+03  0.23986900619E+03  0.00000000000E+00 0. -1.
         21    1    1    2  505  503 -0.43678312687E+02  0.74710944625E+02 -0.21582763825E+02  0.89192689949E+02  0.00000000000E+00 0.  1.
         -2    1    1    2    0  502  0.46482950135E+02 -0.11846345594E+03  0.33873275458E+03  0.36184821966E+03  0.00000000000E+00 0.  1.
<scales pt_clust_3="34.90740" pt_clust_4="48.58622" pt_clust_5="34.90740" pt_clust_6="118.81572"></scales>
<clustering>
<clus scale="   34.907">  3  5 -1 -1</clus>
<clus scale="   48.586">  1  4  2 -1</clus>
<clus scale="  118.816">  1  6  2 -1</clus>
<clus scale="  129.399">  2  3  1 -1</clus>
</clustering>
</event>
<event>
 6    0  0.1849053E+002  0.3285656E+03  0.7546771E-02  0.1071773E+00
          2   -1    0    0  503    0 -0.00000000000E+00  0.00000000000E+00  0.18427452104E+04  0.18427452104E+04  0.00000000000E+00 0. -1.
         21   -1    0    0  505  502  0.00000000000E+00 -0.00000000000E+00 -0.17351138380E+04  0.17351138380E+04  0.00000000000E+00 0. -1.
         21    1    1    2  503  504  0.29285385149E+02 -0.65443875368E+02  0.72857851868E+03  0.73209780254E+03  0.00000000000E+00 0.  1.
         21    1    1    2  504  502 -0.30083794235E+02 -0.22481556921E+03 -0.15975816276E+04  0.16136028420E+04  0.00000000000E+00 0. -1.
         21    1    1    2  505  501  0.40947651740E+02 -0.10291759413E+03 -0.57697008002E+02  0.12489069659E+03  0.00000000000E+00 0.  1.
          2    1    1    2  501    0 -0.40149242654E+02  0.39317703870E+03  0.10343314894E+04  0.11072677072E+04  0.00000000000E+00 0. -1.
<scales pt_clust_3="71.69752" pt_clust_4="328.56559" pt_clust_5="112.92787" pt_clust_6="14000.00000"></scales>
<clustering>
<clus scale="   71.698">  1  3  2 -1</clus>
<clus scale="  112.928">  2  5  1 -1</clus>
<clus scale="  328.566">  2  4  1 -1</clus>
<clus scale="  112.928">  2  3  1 -1</clus>
</clustering>
</event>
<event>
 6    0  0.1849053E+002  0.1504651E+03  0.7546771E-02  0.1199903E+00
         21   -1    0    0  504  502  0.00000000000E+00  0.00000000000E+00  0.53028467226E+03  0.53028467226E+03  0.00000000000E+00 0.  1.
         -2   -1    0    0    0  501 -0.00000000000E+00 -0.00000000000E+00 -0.18072172951E+03  0.18072172951E+03  0.00000000000E+00 0.  1.
         21    1    1    2  503  505 -0.42433832799E+02 -0.46861516153E+02  0.13144345818E+03  0.14585614337E+03  0.00000000000E+00 0.  1.
         21    1    1    2  504  503 -0.60573064280E+02 -0.49649950006E+02  0.26806891717E+03  0.27927613218E+03  0.00000000000E+00 0.  1.
         21    1    1    2  505  501 -0.37633849062E+00 -0.78342975158E+02 -0.14360184975E+02  0.79649094783E+02  0.00000000000E+00 0.  1.
         -2    1    1    2    0  502  0.10338323557E+03  0.17485444132E+03 -0.35589247617E+02  0.20622503144E+03  0.00000000000E+00 0.  1.
<scales pt_clust_3="31.15399" pt_clust_4="31.15399" pt_clust_5="78.34388" pt_clust_6="146.41486"></scales>
<clustering>
<clus scale="   31.154">  3  4 -1 -1</clus>
<clus scale="   78.344">  2  5  1 -1</clus>
<clus scale="  146.415">  2  6  1 -1</clus>
<clus scale="  150.465">  1  3  2 -1</clus>
</clustering>
</event>
<event>
 6    0  0.1849053E+002  0.8291882E+02  0.7546771E-02  0.1320967E+00
          2   -1    0    0  504    0 -0.00000000000E+00  0.00000000000E+00  0.11416009654E+04  0.11416009654E+04  0.00000000000E+00 0. -1.
         21   -1    0    0  503  502  0.00000000000E+00 -0.00000000000E+00 -0.66556588696E+02  0.66556588696E+02  0.00000000000E+00 0.  1.
         21    1    1    2  503  501 -0.31375884530E+02  0.19251717881E+01  0.58915180985E+00  0.31440412152E+02  0.00000000000E+00 0.  1.
         21    1    1    2  504  505 -0.56142233738E+02  0.95689894982E+00  0.13050276347E+03  0.14206983261E+03  0.00000000000E+00 0.  1.
         21    1    1    2  505  502 -0.36051881134E+02 -0.53723031209E+02 -0.15012890347E+02  0.66417536029E+02  0.00000000000E+00 0.  1.
          2    1    1    2  501    0  0.12356999940E+03  0.50840960471E+02  0.95896535176E+03  0.96822977329E+03  0.00000000000E+00 0. -1.
<scales pt_clust_3="31.43489" pt_clust_4="59.70279" pt_clust_5="14000.00000" pt_clust_6="82.91882"></scales>
<clustering>
<clus scale="   31.435">  2  3  1 -1</clus>
<clus scale="   59.703">  1  4  2 -1</clus>
<clus scale="   82.919">  1  6  2 -1</clus>
<clus scale="   31.435">  2  3  1 -1</clus>
</clustering>
</event>
<event>
 6    0  0.1849053E+002  0.1039322E+03  0.7546771E-02  0.1272238E+00
          1   -1    0    0  505    0 -0.00000000000E+00  0.00000000000E+00  0.12704840191E+04  0.12704840191E+04  0.00000000000E+00 0. -1.
         21   -1    0    0  504  502  0.00000000000E+00 -0.00000000000E+00 -0.57189010690E+02  0.57189010690E+02  0.00000000000E+00 0. -1.
         21    1    1    2  503  502 -0.37132552716E+02 -0.53760125916E+02  0.14274832962E+03  0.15699064692E+03  0.00000000000E+00 0. -1.
         21    1    1    2  504  501  0.14013803810E+03  0.42430062462E+02  0.93911594715E+02  0.17394932465E+03  0.00000000000E+00 0. -1.
         21    1    1    2  505  503 -0.31327843859E+02  0.78637642100E+02  0.26122301731E+03  0.27459566153E+03  0.00000000000E+00 0.  1.
          1    1    1    2  501    0 -0.71677641530E+02 -0.67307578646E+02  0.71541206679E+03  0.72213739673E+03  0.00000000000E+00 0. -1.
<scales pt_clust_3="65.33741" pt_clust_4="103.93221" pt_clust_5="80.14365" pt_clust_6="14000.00000"></scales>
<clustering>
<clus scale="   65.337">  2  3  1 -1</clus>
<clus scale="   80.144">  1  5  2 -1</clus>
<clus scale="  103.932">  2  4  1 -1</clus>
<clus scale="   65.337">  2  3  1 -1</clus>
</clustering>
</event>
<event>
 6    0  0.1849053E+002  0.1247503E+03  0.7546771E-02  0.1235460E+00
         21   -1    0    0  503  502  0.00000000000E+00  0.00000000000E+00  0.10543042851E+03  0.10543042851E+03  0.00000000000E+00 0. -1.
          2   -1    0    0  502    0 -0.00000000000E+00 -0.00000000000E+00 -0.21300684707E+04  0.21300684707E+04  0.00000000000E+00 0.  1.
         21    1    1    2  503  504 -0.29264178381E+00  0.42578322416E+02  0.37847935904E+02  0.56968986573E+02  0.00000000000E+00 0. -1.
         21    1    1    2  504  505 -0.93982218158E+02  0.29401437506E+02  0.12930672483E+02  0.99319203321E+02  0.00000000000E+00 0. -1.
         21    1    1    2  505  501  0.21972729173E+02 -0.40347025733E+02 -0.66168805307E+03  0.66328105874E+03  0.00000000000E+00 0. -1.
          2    1    1    2  501    0  0.72302130769E+02 -0.31632734189E+02 -0.14137285975E+04  0.14159296506E+04  0.00000000000E+00 0.  1.
<scales pt_clust_3="42.57933" pt_clust_4="117.76486" pt_clust_5="31.40362" pt_clust_6="31.40362"></scales>
<clustering>
<clus scale="   31.404">  5  6 -1 -1</clus>
<clus scale="   42.579">  1  3  2 -1</clus>
<clus scale="  117.765">  1  4  2 -1</clus>
<clus scale="   42.579">  1  3  2 -1</clus>
</clustering>
</event>
<event>
 6    0  0.1849053E+002  0.3426613E+03  0.7546771E-02  0.1065668E+00
         21   -1    0    0  504  502  0.00000000000E+00  0.00000000000E+00  0.20294996040E+04  0.20294996040E+04  0.00000000000E+00 0. -1.
          2   -1    0    0  503    0 -0.00000000000E+00 -0.00000000000E+00 -0.12129356242E+04  0.12129356242E+04  0.00000000000E+00 0.  1.
         21    1    1    2  503  505  0.47345911341E+02 -0.37247768526E+02 -0.62274321036E+03  0.62565017192E+03  0.00000000000E+00 0.  1.
         21    1    1    2  504  501 -0.19922688469E+03 -0.19728614830E+03  0.71418092468E+02  0.28933323319E+03  0.00000000000E+00 0.  1.
         21    1    1    2  505  502  0.25413550349E+03  0.24398074803E+03  0.18251308268E+04  0.18588205924E+04  0.00000000000E+00 0. -1.
          2    1    1    2  501    0 -0.10225453014E+03 -0.94468312084E+01 -0.45724172914E+03  0.46863123073E+03  0.00000000000E+00 0.  1.
<scales pt_clust_3="60.24144" pt_clust_4="342.66129" pt_clust_5="14000.00000" pt_clust_6="75.68856"></scales>
<clustering>
<clus scale="   60.241">  2  3  1 -1</clus>
<clus scale="   75.689">  2  6  1 -1</clus>
<clus scale="  342.661">  2  4  1 -1</clus>
<clus scale="  342.661">  1  3  2 -1</clus>
</clustering>
</event>
<event>
 6    0  0.1849053E+002  0.1638305E+03  0.7546771E-02  0.1184439E+00
          1   -1    0    0  504    0 -0.00000000000E+00  0.00000000000E+00  0.44941697061E+03  0.44941697061E+03  0.00000000000E+00 0. -1.
         21   -1    0    0  503  502  0.00000000000E+00 -0.00000000000E+00 -0.20878535373E+04  0.20878535373E+04  0.00000000000E+00 0.  1.
         21    1    1    2  503  505  0.58766940214E+01  0.33183234454E+02 -0.11998649902E+04  0.12003381429E+04  0.00000000000E+00 0.  1.
         21    1    1    2  504  502 -0.94103259233E+01 -0.24572143571E+03  0.11433871341E+03  0.27118429081E+03  0.00000000000E+00 0. -1.
         21    1    1    2  505  501  0.21822239211E+01  0.69654270469E+02 -0.78776429388E+03  0.79084073125E+03  0.00000000000E+00 0.  1.
          1    1    1    2  501    0  0.13514079808E+01  0.14288393078E+03  0.23485400402E+03  0.27490734291E+03  0.00000000000E+00 0. -1.
<scales pt_clust_3="33.69959" pt_clust_4="163.83052" pt_clust_5="99.43385" pt_clust_6="14000.00000"></scales>
<clustering>
<clus scale="   33.700">  2  3  1 -1</clus>
<clus scale="   99.434">  2  5  1 -1</clus>
<clus scale="  163.831">  2  4  1 -1</clus>
<clus scale="   33.700">  2  3  1 -1</clus>
</clustering>
</event>
<event>
 6    0  0.1849053E+002  0.7880029E+02  0.7546771E-02  0.1332491E+00
         21   -1    0    0  505  502  0.00000000000E+00  0.00000000000E+00  0.49561054352E+02  0.49561054352E+02  0.00000000000E+00 0.  1.
          1   -1    0    0  503    0 -0.00000000000E+00 -0.00000000000E+00 -0.15681435439E+04  0.15681435439E+04  0.00000000000E+00 0. -1.
         21    1    1    2  503  504 -0.11178109995E+03 -0.45360791915E+02 -0.55203451911E+03  0.56506170109E+03  0.00000000000E+00 0. -1.
         21    1    1    2  504  502  0.49095065460E+02 -0.31059165656E+02  0.85787175755E+01  0.58724710463E+02  0.00000000000E+00 0.  1.
         21    1    1    2  505  501  0.30134084329E+02  0.13555983263E+02 -0.25712438279E+02  0.41868331742E+02  0.00000000000E+00 0.  1.
          1    1    1    2  501    0  0.32551950165E+02  0.62863974308E+02 -0.94941424976E+03  0.95204985498E+03  0.00000000000E+00 0. -1.
<scales pt_clust_3="78.80029" pt_clust_4="14000.00000" pt_clust_5="33.04282" pt_clust_6="71.61757"></scales>
<clustering>
<clus scale="   33.043">  1  5  2 -1</clus>
<clus scale="   71.618">  2  6  1 -1</clus>
<clus scale="   78.800">  2  3  1 -1</clus>
<clus scale="   33.043">  1  3  2 -1</clus>
</clustering>
</event>
<event>
 6    0  0.1849053E+002  0.1814876E+03  0.7546771E-02  0.1166371E+00
          1   -1    0    0  503    0 -0.00000000000E+00  0.00000000000E+00  0.70524772346E+03  0.70524772346E+03  0.00000000000E+00 0.  1.
         21   -1    0    0  504  502  0.00000000000E+00 -0.00000000000E+00 -0.19816121406E+03  0.19816121406E+03  0.00000000000E+00 0. -1.
         21    1    1    2  503  502  0.10992625569E+03  0.49794463064E+02  0.12612324409E+03  0.17455756340E+03  0.00000000000E+00 0. -1.
         21    1    1    2  504  505  0.76265396295E+01 -0.10502800467E+03 -0.79859383711E+02  0.13216114042E+03  0.00000000000E+00 0. -1.
         21    1    1    2  505  501  0.57436181041E+02 -0.43703722166E+02 -0.20540394280E+02  0.75038910046E+02  0.00000000000E+00 0. -1.
          1    1    1    2  501    0 -0.17498897636E+03  0.98937263769E+02  0.48136304330E+03  0.52165132365E+03  0.00000000000E+00 0.  1.
<scales pt_clust_3="120.67838" pt_clust_4="66.73220" pt_clust_5="66.73220" pt_clust_6="162.60468"></scales>
<clustering>
<clus scale="   66.732">  4  5 -1 -1</clus>
<clus scale="  120.678">  1  3  2 -1</clus>
<clus scale="  162.605">  1  6  2 -1</clus>
<clus scale="  181.488">  2  3  1 -1</clus>
</clustering>
</event>
<event>
 6    0  0.1849053E+002  0.1355549E+03  0.7546771E-02  0.1219438E+00
         21   -1    0    0  504  502  0.00000000000E+00  0.00000000000E+00  0.88499312337E+02  0.88499312337E+02  0.00000000000E+00 0. -1.
          4   -1    0    0  502    0 -0.00000000000E+00 -0.00000000000E+00 -0.37922758678E+03  0.37922758678E+03  0.00000000000E+00 0. -1.
         21    1    1    2  503  505 -0.93928450070E+02  0.10315791887E+03 -0.49648911840E+02  0.14808485542E+03  0.00000000000E+00 0. -1.
         21    1    1    2  504  503 -0.18604245402E+02 -0.53137101277E+02 -0.17040443915E+02  0.58822157457E+02  0.00000000000E+00 0. -1.
         21    1    1    2  505  501  0.35448187051E+02 -0.15589183386E+02 -0.29274538023E+02  0.48544775005E+02  0.00000000000E+00 0.  1.
          4    1    1    2  501    0  0.77084508421E+02 -0.34431634210E+02 -0.19476438066E+03  0.21227511123E+03  0.00000000000E+00 0. -1.
<scales pt_clust_3="125.32859" pt_clust_4="56.29982" pt_clust_5="34.98179" pt_clust_6="34.98179"></scales>
<clustering>
<clus scale="   34.982">  5  6 -1 -1</clus>
<clus scale="   56.300">  1  4  2 -1</clus>
<clus scale="  125.329">  1  3  2 -1</clus>
<clus scale="   56.300">  1  3  2 -1</clus>
</clustering>
</event>
<event>
 6    0  0.1849053E+002  0.1038243E+03  0.7546771E-02  0.1272453E+00
         21   -1    0    0  505  502  0.00000000000E+00  0.00000000000E+00  0.15401657514E+04  0.15401657514E+04  0.00000000000E+00 0. -1.
          2   -1    0    0  504    0 -0.00000000000E+00 -0.00000000000E+00 -0.17422909363E+03  0.17422909363E+03  0.00000000000E+00 0. -1.
         21    1    1    2  503  501  0.12480917926E+03  0.49725805731E+02 -0.84098600420E+01  0.13461319672E+03  0.00000000000E+00 0. -1.
         21    1    1    2  504  502  0.46042044438E+02 -0.23809051461E+02  0.25068285899E+03  0.25598561792E+03  0.00000000000E+00 0. -1.
         21    1    1    2  505  503 -0.13223325978E+03 -0.27273964724E+02  0.12161186604E+04  0.12235906588E+04  0.00000000000E+00 0. -1.
          2    1    1    2  501    0 -0.38617963922E+02  0.13572104542E+01 -0.92455001637E+02  0.10020537154E+03  0.00000000000E+00 0. -1.
<scales pt_clust_3="103.82431" pt_clust_4="50.64815" pt_clust_5="14000.00000" pt_clust_6="38.64181"></scales>
<clustering>
<clus scale="   38.642">  2  6  1 -1</clus>
<clus scale="   50.648">  1  4  2 -1</clus>
<clus scale="  103.824">  2  3  1 -1</clus>
<clus scale="   50.648">  1  3  2 -1</clus>
</clustering>
</event>
<event>
 6    0  0.1849053E+002  0.1626551E+03  0.7546771E-02  0.1185731E+00
          2   -1    0    0  503    0 -0.00000000000E+00  0.00000000000E+00  0.12963193586E+04  0.12963193586E+04  0.00000000000E+00 0.  1.
         21   -1    0    0  504  502  0.00000000000E+00 -0.00000000000E+00 -0.10872970484E+04  0.10872970484E+04  0.00000000000E+00 0.  1.
         21    1    1    2  503  505  0.13359121358E+03 -0.15623716004E+02 -0.99854839047E+03  0.10075661770E+04  0.00000000000E+00 0.  1.
         21    1    1    2  504  501 -0.71634297044E+02  0.38649360074E+02  0.56156805323E+03  0.56743627303E+03  0.00000000000E+00 0.  1.
         21    1    1    2  505  502  0.17294358682E+02 -0.33785460860E+02 -0.74539757080E+02  0.83646443997E+02  0.00000000000E+00 0.  1.
          2    1    1    2  501    0 -0.79251275214E+02  0.10759816791E+02  0.72054240453E+03  0.72496751307E+03  0.00000000000E+00 0.  1.
<scales pt_clust_3="158.63189" pt_clust_4="35.63834" pt_clust_5="37.95461" pt_clust_6="35.63834"></scales>
<clustering>
<clus scale="   35.638">  4  6 -1 -1</clus>
<clus scale="   37.955">  2  5  1 -1</clus>
<clus scale="  158.632">  2  3  1 -1</clus>
<clus scale="   37.955">  2  3  1 -1</clus>
</clustering>
</event>
<event>
 6    0  0.1849053E+002  0.1131502E+03  0.7546771E-02  0.1254845E+00
         21   -1    0    0  504  502  0.00000000000E+00  0.00000000000E+00  0.94939021038E+03  0.94939021038E+03  0.00000000000E+00 0.  1.
         -4   -1    0    0    0  501 -0.00000000000E+00 -0.00000000000E+00 -0.15750787265E+03  0.15750787265E+03  0.00000000000E+00 0. -1.
         21    1    1    2  503  502 -0.30067770144E+02 -0.20366834456E+02  0.45654952590E+02  0.58337410323E+02  0.00000000000E+00 0.  1.
         21    1    1    2  504  505 -0.75891112234E+02 -0.30281490549E+02  0.85290247099E+03  0.85680747815E+03  0.00000000000E+00 0.  1.
         21    1    1    2  505  501  0.18708311894E+02  0.44845899237E+02  0.61826279530E+01  0.48983471710E+02  0.00000000000E+00 0.  1.
         -4    1    1    2    0  503  0.87250570484E+02  0.58024257675E+01 -0.11285771382E+03  0.14276972285E+03  0.00000000000E+00 0. -1.
<scales pt_clust_3="36.31637" pt_clust_4="113.15019" pt_clust_5="47.66208" pt_clust_6="14000.00000"></scales>
<clustering>
<clus scale="   36.316">  1  3  2 -1</clus>
<clus scale="   47.662">  2  5  1 -1</clus>
<clus scale="  113.150">  1  4  2 -1</clus>
<clus scale="   36.316">  1  3  2 -1</clus>
</clustering>
</event>
<event>
 6    0  0.1849053E+002  0.3377798E+03  0.7546771E-02  0.1067746E+00
         21   -1    0    0  504  502  0.00000000000E+00  0.00000000000E+00  0.40597332115E+03  0.40597332115E+03  0.00000000000E+00 0. -1.
          1   -1    0    0  505    0 -0.00000000000E+00 -0.00000000000E+00 -0.35590637585E+03  0.35590637585E+03  0.00000000000E+00 0. -1.
         21    1    1    2  503  502 -0.17112602679E+03  0.21938984442E+01  0.10830932836E+03  0.20253355486E+03  0.00000000000E+00 0. -1.
         21    1    1    2  504  501  0.15907636487E+03 -0.40081192222E+01 -0.63909481706E+02  0.17148112646E+03  0.00000000000E+00 0.  1.
         21    1    1    2  505  503 -0.14315723041E+03  0.84991333741E+02  0.93650489307E+02  0.19101814986E+03  0.00000000000E+00 0. -1.
          1    1    1    2  501    0  0.15520689233E+03 -0.83177112963E+02 -0.87983390664E+02  0.19684686581E+03  0.00000000000E+00 0. -1.
<scales pt_clust_3="86.66023" pt_clust_4="74.96511" pt_clust_5="86.66023" pt_clust_6="335.55039"></scales>
<clustering>
<clus scale="   74.965">  4  6 -1 -1</clus>
<clus scale="   86.660">  3  5 -1 -1</clus>
<clus scale="  335.550">  2  4  1 -1</clus>
<clus scale="  337.780">  1  3  2 -1</clus>
</clustering>
</event>
<event>
 6    0  0.1849053E+002  0.8830031E+02  0.7546771E-02  0.1307021E+00
          1   -1    0    0  505    0 -0.00000000000E+00  0.00000000000E+00  0.15386196846E+04  0.15386196846E+04  0.00000000000E+00 0.  1.
         21   -1    0    0  503  502  0.00000000000E+00 -0.00000000000E+00 -0.52927156059E+02  0.52927156059E+02  0.00000000000E+00 0.  1.
         21    1    1    2  503  504  0.46396478644E+02  0.21501563155E+02 -0.12496463587E+02  0.52641353049E+02  0.00000000000E+00 0.  1.
         21    1    1    2  504  501 -0.10906238995E+03 -0.79200772923E+02  0.24148439841E+03  0.27655394051E+03  0.00000000000E+00 0.  1.
         21    1    1    2  505  502  0.38521105185E+02 -0.13558198177E+02  0.59090679682E+03  0.59231625236E+03  0.00000000000E+00 0.  1.
          1    1    1    2  501    0  0.24144806121E+02  0.71257407945E+02  0.66579779686E+03  0.67003529471E+03  0.00000000000E+00 0.  1.
<scales pt_clust_3="51.76007" pt_clust_4="14000.00000" pt_clust_5="40.83749" pt_clust_6="88.30031"></scales>
<clustering>
<clus scale="   40.837">  1  5  2 -1</clus>
<clus scale="   51.760">  2  3  1 -1</clus>
<clus scale="   88.300">  1  6  2 -1</clus>
<clus scale="   51.760">  2  3  1 -1</clus>
</clustering>
</event>
<event>
 6    0  0.1849053E+002  0.5257511E+03  0.7546771E-02  0.1007268E+00
         21   -1    0    0  504  502  0.00000000000E+00  0.00000000000E+00  0.10036019905E+03  0.10036019905E+03  0.00000000000E+00 0. -1.
          2   -1    0    0  503    0 -0.00000000000E+00 -0.00000000000E+00 -0.39128928823E+04  0.39128928823E+04  0.00000000000E+00 0.  1.
         21    1    1    2  503  502 -0.50728695117E+02  0.25764293257E+02 -0.13173646757E+03  0.14349807038E+03  0.00000000000E+00 0. -1.
         21    1    1    2  504  505  0.13027632309E+03  0.79631678642E+02 -0.21743679874E+03  0.26569133604E+03  0.00000000000E+00 0. -1.
         21    1    1    2  505  501  0.33443003433E+03  0.19944672424E+03 -0.77878683796E+03  0.87070740358E+03  0.00000000000E+00 0. -1.
          2    1    1    2  501    0 -0.41397766230E+03 -0.30484269614E+03 -0.26845725790E+04  0.27333562714E+04  0.00000000000E+00 0.  1.
<scales pt_clust_3="56.89639" pt_clust_4="44.73592" pt_clust_5="44.73592" pt_clust_6="520.87468"></scales>
<clustering>
<clus scale="   44.736">  4  5 -1 -1</clus>
<clus scale="   56.896">  1  3  2 -1</clus>
<clus scale="  520.875">  2  6  1 -1</clus>
<clus scale="   56.896">  1  3  2 -1</clus>
</clustering>
</event>
<event>
 6    0  0.1849053E+002  0.1049871E+03  0.7546771E-02  0.1270145E+00
         21   -1    0    0  503  502  0.00000000000E+00  0.00000000000E+00  0.62324189987E+03  0.62324189987E+03  0.00000000000E+00 0.  1.
         -4   -1    0    0    0  501 -0.00000000000E+00 -0.00000000000E+00 -0.10666354389E+04  0.10666354389E+04  0.00000000000E+00 0. -1.
         21    1    1    2  503  504  0.45983118428E+02 -0.32248902258E+02  0.11376688872E+03  0.12687530826E+03  0.00000000000E+00 0. -1.
         21    1    1    2  504  501  0.48542500179E+02  0.22157476323E+02 -0.35945052550E+03  0.36338960959E+03  0.00000000000E+00 0.  1.
         21    1    1    2  505  502  0.50046245365E+02 -0.15954818693E+02  0.49181549010E+03  0.49461263552E+03  0.00000000000E+00 0.  1.
         -4    1    1    2    0  505 -0.14457186397E+03  0.26046244628E+02 -0.68952539234E+03  0.70499978538E+03  0.00000000000E+00 0. -1.
<scales pt_clust_3="104.98708" pt_clust_4="53.95227" pt_clust_5="52.52793" pt_clust_6="14000.00000"></scales>
<clustering>
<clus scale="   52.528">  1  5  2 -1</clus>
<clus scale="   53.952">  2  4  1 -1</clus>
<clus scale="  104.987">  1  3  2 -1</clus>
<clus scale="   52.528">  1  3  2 -1</clus>
</clustering>
</event>
<event>
 6    0  0.1849053E+002  0.8250393E+02  0.7546771E-02  0.1322092E+00
          2   -1    0    0  504    0 -0.00000000000E+00  0.00000000000E+00  0.33477293318E+04  0.33477293318E+04  0.00000000000E+00 0. -1.
         21   -1    0    0  505  502  0.00000000000E+00 -0.00000000000E+00 -0.21817438269E+02  0.21817438269E+02  0.00000000000E+00 0. -1.
         21    1    1    2  503  502 -0.29689081461E+02  0.79188162214E+02  0.98529173746E+02  0.12984685084E+03  0.00000000000E+00 0. -1.
         21    1    1    2  504  503  0.77995351992E+02 -0.38746939746E+02  0.17472722914E+04  0.17494413567E+04  0.00000000000E+00 0. -1.
         21    1    1    2  505  501  0.35877600381E+02 -0.30219250495E+02  0.14374674512E+03  0.15120691797E+03  0.00000000000E+00 0. -1.
          2    1    1    2  501    0 -0.84183870912E+02 -0.10221971973E+02  0.13363636833E+04  0.13390516446E+04  0.00000000000E+00 0. -1.
<scales pt_clust_3="53.04406" pt_clust_4="14000.00000" pt_clust_5="46.90848" pt_clust_6="82.50393"></scales>
<clustering>
<clus scale="   46.908">  2  5  1 -1</clus>
<clus scale="   53.044">  2  3  1 -1</clus>
<clus scale="   82.504">  2  6  1 -1</clus>
<clus scale="   46.908">  2  3  1 -1</clus>
</clustering>
</event>
<event>
 6    0  0.1849053E+002  0.8882629E+02  0.7546771E-02  0.1305719E+00
          4   -1    0    0  503    0 -0.00000000000E+00  0.00000000000E+00  0.26353104803E+03  0.26353104803E+03  0.00000000000E+00 0.  1.
         21   -1    0    0  504  502  0.00000000000E+00 -0.00000000000E+00 -0.35308054175E+03  0.35308054175E+03  0.00000000000E+00 0. -1.
         21    1    1    2  503  505  0.34840806099E+02  0.46981813820E+02 -0.87340290666E+02  0.10511659704E+03  0.00000000000E+00 0. -1.
         21    1    1    2  504  501 -0.44198971793E+02 -0.72346918524E+00 -0.36706706348E+02  0.57458287532E+02  0.00000000000E+00 0. -1.
         21    1    1    2  505  502  0.62984425979E+02  0.28004543903E+02 -0.19505849242E+03  0.20687945248E+03  0.00000000000E+00 0. -1.
          4    1    1    2  501    0 -0.53626260285E+02 -0.74262888538E+02  0.22955599572E+03  0.24715725273E+03  0.00000000000E+00 0.  1.
<scales pt_clust_3="14000.00000" pt_clust_4="44.20489" pt_clust_5="43.71363" pt_clust_6="88.82629"></scales>
<clustering>
<clus scale="   44.205">  2  4  1 -1</clus>
<clus scale="   43.714">  2  5  1 -1</clus>
<clus scale="   88.826">  1  6  2 -1</clus>
<clus scale="   44.205">  2  3  1 -1</clus>
</clustering>
</event>
<event>
 6    0  0.1849053E+002  0.1287573E+03  0.7546771E-02  0.1229311E+00
          4   -1    0    0  503    0 -0.00000000000E+00  0.00000000000E+00  0.70354537924E+02  0.70354537924E+02  0.00000000000E+00 0.  1.
         21   -1    0    0  501  502  0.00000000000E+00 -0.00000000000E+00 -0.83581654643E+03  0.83581654643E+03  0.00000000000E+00 0. -1.
         21    1    1    2  503  505 -0.96338437761E+00  0.30046961402E+02 -0.27522270308E+02  0.40758107928E+02  0.00000000000E+00 0. -1.
         21    1    1    2  504  502  0.74579105010E+02 -0.39074651208E+02 -0.49409510294E+03  0.50121736005E+03  0.00000000000E+00 0. -1.
         21    1    1    2  505  504  0.74665304998E+02 -0.45041165246E+02 -0.16756954635E+03  0.18889988671E+03  0.00000000000E+00 0. -1.
          4    1    1    2  501    0 -0.14828102563E+03  0.54068855052E+02 -0.76275088913E+02  0.17529572966E+03  0.00000000000E+00 0.  1.
<scales pt_clust_3="30.06240" pt_clust_4="83.38145" pt_clust_5="14000.00000" pt_clust_6="128.75734"></scales>
<clustering>
<clus scale="   30.062">  1  3  2 -1</clus>
<clus scale="   83.381">  2  4  1 -1</clus>
<clus scale="  128.757">  1  6  2 -1</clus>
<clus scale="   83.381">  2  3  1 -1</clus>
</clustering>
</event>
<event>
 6    0  0.1849053E+002  0.1685491E+03  0.7546771E-02  0.1179369E+00
         21   -1    0    0  501  502  0.00000000000E+00  0.00000000000E+00  0.33968822203E+03  0.33968822203E+03  0.00000000000E+00 0.  1.
          1   -1    0    0  503    0 -0.00000000000E+00 -0.00000000000E+00 -0.45795106785E+03  0.45795106785E+03  0.00000000000E+00 0.  1.
         21    1    1    2  503  505 -0.74326185988E+01 -0.36527686880E+02 -0.43651950852E+02  0.57402164953E+02  0.00000000000E+00 0. -1.
         21    1    1    2  504  502 -0.57865848554E+02  0.60652565034E+02  0.20929722494E+03  0.22546068047E+03  0.00000000000E+00 0.  1.
         21    1    1    2  505  504 -0.31229727380E+02  0.70635761409E+02  0.89150618486E+02  0.11795142830E+03  0.00000000000E+00 0.  1.
          1    1    1    2  501    0  0.96528194533E+02 -0.94760639563E+02 -0.37305873839E+03  0.39682501615E+03  0.00000000000E+00 0.  1.
<scales pt_clust_3="37.27621" pt_clust_4="58.01576" pt_clust_5="58.01576" pt_clust_6="157.23454"></scales>
<clustering>
<clus scale="   37.276">  2  3  1 -1</clus>
<clus scale="   58.016">  4  5 -1 -1</clus>
<clus scale="  157.235">  2  6  1 -1</clus>
<clus scale="  168.549">  1  3  2 -1</clus>
</clustering>
</event>
<event>
 6    0  0.1849053E+002  0.1451203E+03  0.7546771E-02  0.1206601E+00
         21   -1    0    0  504  502  0.00000000000E+00  0.00000000000E+00  0.77735052534E+02  0.77735052534E+02  0.00000000000E+00 0. -1.
          1   -1    0    0  503    0 -0.00000000000E+00 -0.00000000000E+00 -0.25680343648E+04  0.25680343648E+04  0.00000000000E+00 0.  1.
         21    1    1    2  503  502 -0.12004838656E+02  0.28701067742E+02 -0.11646493379E+03  0.12054853065E+03  0.00000000000E+00 0. -1.
         21    1    1    2  504  505 -0.10988644375E+02 -0.66146605755E+02  0.25293423736E+02  0.71665061518E+02  0.00000000000E+00 0. -1.
         21    1    1    2  505  501  0.47967289244E+02 -0.85185253559E+02 -0.68033952166E+02  0.11910502470E+03  0.00000000000E+00 0. -1.
          1    1    1    2  501    0 -0.24973806214E+02  0.12263079157E+03 -0.23310938501E+04  0.23344508005E+04  0.00000000000E+00 0.  1.
<scales pt_clust_3="31.11057" pt_clust_4="66.80395" pt_clust_5="14000.00000" pt_clust_6="145.12027"></scales>
<clustering>
<clus scale="   31.111">  2  3  1 -1</clus>
<clus scale="   66.804">  1  4  2 -1</clus>
<clus scale="  145.120">  2  6  1 -1</clus>
<clus scale="   66.804">  1  3  2 -1</clus>
</clustering>
</event>
<event>
 6    0  0.1849053E+002  0.1370442E+03  0.7546771E-02  0.1217362E+00
         21   -1    0    0  504  502  0.00000000000E+00  0.00000000000E+00  0.17921369973E+03  0.17921369973E+03  0.00000000000E+00 0. -1.
          2   -1    0    0  505    0 -0.00000000000E+00 -0.00000000000E+00 -0.37238935183E+03  0.37238935183E+03  0.00000000000E+00 0.  1.
         21    1    1    2  503  501  0.73512775105E+02 -0.40736645246E+01  0.35763275130E+02  0.81851907090E+02  0.00000000000E+00 0. -1.
         21    1    1    2  504  503 -0.31805668758E+02  0.31161847139E+01  0.25500100903E+00  0.31958976796E+02  0.00000000000E+00 0.  1.
         21    1    1    2  505  502  0.38455279643E+02 -0.11496268996E+03  0.45153839657E+02  0.12936034110E+03  0.00000000000E+00 0. -1.
          2    1    1    2  501    0 -0.80162385989E+02  0.11592016977E+03 -0.27434776790E+03  0.30843182657E+03  0.00000000000E+00 0.  1.
<scales pt_clust_3="62.11544" pt_clust_4="31.95796" pt_clust_5="137.04420" pt_clust_6="14000.00000"></scales>
<clustering>
<clus scale="   31.958">  1  4  2 -1</clus>
<clus scale="   62.115">  1  3  2 -1</clus>
<clus scale="  137.044">  1  5  2 -1</clus>
<clus scale="   31.958">  1  3  2 -1</clus>
</clustering>
</event>
<event>
 6    0  0.1849053E+002  0.1589927E+03  0.7546771E-02  0.1189839E+00
          2   -1    0    0  505    0 -0.00000000000E+00  0.00000000000E+00  0.58304513641E+03  0.58304513641E+03  0.00000000000E+00 0. -1.
         21   -1    0    0  504  502  0.00000000000E+00 -0.00000000000E+00 -0.15027070987E+03  0.15027070987E+03  0.00000000000E+00 0.  1.
         21    1    1    2  503  502 -0.17613505164E+02  0.52588699530E+02 -0.37138533760E+02  0.66746367484E+02  0.00000000000E+00 0.  1.
         21    1    1    2  504  501  0.19478340350E+02  0.53351055692E+02  0.42652655888E+02  0.71028092615E+02  0.00000000000E+00 0.  1.
         21    1    1    2  505  503 -0.12841440881E+03  0.10511477281E+02 -0.64233637714E+01  0.12900391911E+03  0.00000000000E+00 0.  1.
          2    1    1    2  501    0  0.12654957362E+03 -0.11645123250E+03  0.43368366818E+03  0.46653746707E+03  0.00000000000E+00 0. -1.
<scales pt_clust_3="55.45996" pt_clust_4="63.24892" pt_clust_5="158.99266" pt_clust_6="14000.00000"></scales>
<clustering>
<clus scale="   55.460">  2  3  1 -1</clus>
<clus scale="   63.249">  2  4  1 -1</clus>
<clus scale="  158.993">  2  5  1 -1</clus>
<clus scale="   55.460">  2  3  1 -1</clus>
</clustering>
</event>
<event>
 6    0  0.1849053E+002  0.1189276E+03  0.7546771E-02  0.1244877E+00
         21   -1    0    0  501  502  0.00000000000E+00  0.00000000000E+00  0.98409344864E+02  0.98409344864E+02  0.00000000000E+00 0. -1.
          2   -1    0    0  504    0 -0.00000000000E+00 -0.00000000000E+00 -0.14897064958E+04  0.14897064958E+04  0.00000000000E+00 0.  1.
         21    1    1    2  503  505 -0.95679464045E+01  0.62118883398E+02  0.49292270145E+01  0.63044417294E+02  0.00000000000E+00 0. -1.
         21    1    1    2  504  503  0.42080691384E+02  0.24651010656E+02 -0.17375499496E+03  0.18046954089E+03  0.00000000000E+00 0.  1.
         21    1    1    2  505  502  0.52152469562E+01  0.45786422574E+02  0.48079716612E+02  0.66597705985E+02  0.00000000000E+00 0. -1.
          2    1    1    2  501    0 -0.37727991936E+02 -0.13255631663E+03 -0.12705510996E+04  0.12780041765E+04  0.00000000000E+00 0.  1.
<scales pt_clust_3="41.37324" pt_clust_4="48.76943" pt_clust_5="41.37324" pt_clust_6="108.66983"></scales>
<clustering>
<clus scale="   41.373">  3  5 -1 -1</clus>
<clus scale="   48.769">  2  4  1 -1</clus>
<clus scale="  108.670">  2  6  1 -1</clus>
<clus scale="  118.928">  1  3  2 -1</clus>
</clustering>
</event>
<event>
 6    0  0.1849053E+002  0.1004831E+03  0.7546771E-02  0.1279283E+00
          2   -1    0    0  504    0 -0.00000000000E+00  0.00000000000E+00  0.39984097381E+03  0.39984097381E+03  0.00000000000E+00 0.  1.
         21   -1    0    0  505  502  0.00000000000E+00 -0.00000000000E+00 -0.15672718526E+03  0.15672718526E+03  0.00000000000E+00 0. -1.
         21    1    1    2  503  502 -0.29228393311E+02  0.17728387227E+02 -0.45785278288E+01  0.34489963849E+02  0.00000000000E+00 0. -1.
         21    1    1    2  504  503 -0.54016166318E+02 -0.49507189096E+02  0.64970709475E+02  0.97928040344E+02  0.00000000000E+00 0. -1.
         21    1    1    2  505  501 -0.35679401724E+02 -0.85440847258E+01 -0.10445930517E+03  0.11071480266E+03  0.00000000000E+00 0. -1.
          2    1    1    2  501    0  0.11892396135E+03  0.40322886595E+02  0.28718091206E+03  0.31343535222E+03  0.00000000000E+00 0.  1.
<scales pt_clust_3="34.18471" pt_clust_4="100.48312" pt_clust_5="58.84487" pt_clust_6="14000.00000"></scales>
<clustering>
<clus scale="   34.185">  2  3  1 -1</clus>
<clus scale="   58.845">  2  5  1 -1</clus>
<clus scale="  100.483">  2  4  1 -1</clus>
<clus scale="   34.185">  2  3  1 -1</clus>
</clustering>
</event>
<event>
 6    0  0.1849053E+002  0.7979766E+02  0.7546771E-02  0.1329627E+00
         21   -1    0    0  504  502  0.00000000000E+00  0.00000000000E+00  0.27784641975E+02  0.27784641975E+02  0.00000000000E+00 0.  1.
          2   -1    0    0  503    0 -0.00000000000E+00 -0.00000000000E+00 -0.90770273667E+03  0.90770273667E+03  0.00000000000E+00 0.  1.
         21    1    1    2  503  502 -0.12156628075E+02 -0.75044435542E+02 -0.16389396234E+03  0.18066732357E+03  0.00000000000E+00 0.  1.
         21    1    1    2  504  505  0.40064637992E+02  0.25161079757E+01 -0.35688777018E+02  0.53714009549E+02  0.00000000000E+00 0.  1.
         21    1    1    2  505  501  0.41036241032E+02  0.87166536308E+02 -0.33122658025E+03  0.34495365717E+03  0.00000000000E+00 0.  1.
          2    1    1    2  501    0 -0.68944250949E+02 -0.14638208741E+02 -0.34910877509E+03  0.35615238836E+03  0.00000000000E+00 0.  1.
<scales pt_clust_3="79.79766" pt_clust_4="40.14357" pt_clust_5="14000.00000" pt_clust_6="63.04006"></scales>
<clustering>
<clus scale="   40.144">  1  4  2 -1</clus>
<clus scale="   63.040">  2  6  1 -1</clus>
<clus scale="   79.798">  1  3  2 -1</clus>
<clus scale="   40.144">  1  3  2 -1</clus>
</clustering>
</event>
<event>
 6    0  0.1849053E+002  0.1777900E+03  0.7546771E-02  0.1169959E+00
         21   -1    0    0  504  502  0.00000000000E+00  0.00000000000E+00  0.92473296796E+03  0.92473296796E+03  0.00000000000E+00 0.  1.
          2   -1    0    0  505    0 -0.00000000000E+00 -0.00000000000E+00 -0.28888832356E+03  0.28888832356E+03  0.00000000000E+00 0.  1.
         21    1    1    2  503  501 -0.35410494871E+02  0.41328288201E+02 -0.44903949146E+02  0.70557035096E+02  0.00000000000E+00 0.  1.
         21    1    1    2  504  503  0.91961872853E+02 -0.18458163506E+03  0.78619607638E+03  0.81279249294E+03  0.00000000000E+00 0.  1.
         21    1    1    2  505  502 -0.66085231551E+02  0.26069537194E+02  0.82318091045E+02  0.10873429409E+03  0.00000000000E+00 0. -1.
          2    1    1    2  501    0  0.95338535688E+01  0.11718380966E+03 -0.18776557388E+03  0.22153746939E+03  0.00000000000E+00 0.  1.
<scales pt_clust_3="49.94291" pt_clust_4="161.92857" pt_clust_5="71.04139" pt_clust_6="49.94291"></scales>
<clustering>
<clus scale="   49.943">  3  6 -1 -1</clus>
<clus scale="   71.041">  1  5  2 -1</clus>
<clus scale="  161.929">  1  4  2 -1</clus>
<clus scale="   71.041">  1  3  2 -1</clus>
</clustering>
</event>
<event>
 6    0  0.2889067E+002  0.7603461E+02  0.7546771E-02  0.1340697E+00
         21   -1    0    0  505  502  0.00000000000E+00  0.00000000000E+00  0.69532210396E+03  0.69532210396E+03  0.00000000000E+00 0.  1.
          2   -1    0    0  503    0 -0.00000000000E+00 -0.00000000000E+00 -0.31981712258E+04  0.31981712258E+04  0.00000000000E+00 0.  1.
         21    1    1    2  503  504 -0.10323091431E+03 -0.20049983203E+02 -0.15863236123E+04  0.15898054052E+04  0.00000000000E+00 0. -1.
         21    1    1    2  504  502 -0.15179027012E+02  0.33876671353E+02 -0.23201863414E+02  0.43776228582E+02  0.00000000000E+00 0.  1.
         21    1    1    2  505  501  0.79540532503E+02  0.56603704197E+01  0.68066627475E+03  0.68532132148E+03  0.00000000000E+00 0.  1.
          2    1    1    2  501    0  0.38869408815E+02 -0.19487058569E+02 -0.15739899209E+04  0.15745903745E+04  0.00000000000E+00 0.  1.
<scales pt_clust_3="76.03461" pt_clust_4="37.12185" pt_clust_5="14000.00000" pt_clust_6="43.46816"></scales>
<clustering>
<clus scale="   37.122">  1  4  2 -1</clus>
<clus scale="   43.468">  2  6  1 -1</clus>
<clus scale="   76.035">  2  3  1 -1</clus>
<clus scale="   37.122">  1  3  2 -1</clus>
</clustering>
</event>
<event>
 6    0  0.1849053E+002  0.1530275E+03  0.7546771E-02  0.1196801E+00
         21   -1    0    0  503  502  0.00000000000E+00  0.00000000000E+00  0.14052905928E+03  0.14052905928E+03  0.00000000000E+00 0.  1.
         -1   -1    0    0    0  501 -0.00000000000E+00 -0.00000000000E+00 -0.53520209020E+03  0.53520209020E+03  0.00000000000E+00 0. -1.
         21    1    1    2  503  505 -0.67437549099E+02  0.11098336331E+02  0.48852323823E+02  0.84009199738E+02  0.00000000000E+00 0.  1.
         21    1    1    2  504  501  0.22009874369E+02 -0.22939006319E+02 -0.30952881275E+02  0.44370186385E+02  0.00000000000E+00 0. -1.
         21    1    1    2  505  504 -0.46313682423E+02  0.71882713938E+02  0.30597516533E+02  0.90820095577E+02  0.00000000000E+00 0.  1.
         -1    1    1    2    0  502  0.91741357152E+02 -0.60042043950E+02 -0.44316999000E+03  0.45653166778E+03  0.00000000000E+00 0. -1.
<scales pt_clust_3="59.76124" pt_clust_4="31.79045" pt_clust_5="59.76124" pt_clust_6="137.80284"></scales>
<clustering>
<clus scale="   31.790">  2  4  1 -1</clus>
<clus scale="   59.761">  3  5 -1 -1</clus>
<clus scale="  137.803">  2  6  1 -1</clus>
<clus scale="  153.028">  1  3  2 -1</clus>
</clustering>
</event>
<event>
 6    0  0.1849053E+002  0.9096239E+02  0.7546771E-02  0.1300538E+00
          2   -1    0    0  504    0 -0.00000000000E+00  0.00000000000E+00  0.26633890070E+04  0.26633890070E+04  0.00000000000E+00 0.  1.
         21   -1    0    0  505  502  0.00000000000E+00 -0.00000000000E+00 -0.80429198150E+02  0.80429198150E+02  0.00000000000E+00 0. -1.
         21    1    1    2  503  502 -0.86311670705E+02 -0.33033394065E+02 -0.30553146364E+02  0.97336552107E+02  0.00000000000E+00 0. -1.
         21    1    1    2  504  503 -0.33268297179E+02 -0.14877779064E+02  0.46001425501E+03  0.46145556960E+03  0.00000000000E+00 0.  1.
         21    1    1    2  505  501  0.17464799350E+02 -0.25314517458E+02  0.30457160395E+01  0.30905022191E+02  0.00000000000E+00 0. -1.
          2    1    1    2  501    0  0.10211516853E+03  0.73225690587E+02  0.21504529842E+04  0.21541210613E+04  0.00000000000E+00 0.  1.
<scales pt_clust_3="90.96239" pt_clust_4="36.38418" pt_clust_5="30.75458" pt_clust_6="14000.00000"></scales>
<clustering>
<clus scale="   30.755">  2  5  1 -1</clus>
<clus scale="   36.384">  1  4  2 -1</clus>
<clus scale="   90.962">  2  3  1 -1</clus>
<clus scale="   30.755">  2  3  1 -1</clus>
</clustering>
</event>
<event>
 6    0  0.1849053E+002  0.9310729E+02  0.7546771E-02  0.1295497E+00
          2   -1    0    0  505    0 -0.00000000000E+00  0.00000000000E+00  0.11310981451E+04  0.11310981451E+04  0.00000000000E+00 0. -1.
         21   -1    0    0  503  502  0.00000000000E+00 -0.00000000000E+00 -0.58916648008E+02  0.58916648008E+02  0.00000000000E+00 0.  1.
         21    1    1    2  503  504 -0.17686484390E+02  0.28845019163E+02  0.25196886725E+02  0.42186845832E+02  0.00000000000E+00 0. -1.
         21    1    1    2  504  501  0.20721485675E+02  0.61812822081E+02  0.27622441835E+03  0.28381355541E+03  0.00000000000E+00 0. -1.
         21    1    1    2  505  502 -0.24968368458E+02 -0.11856451319E+03  0.33241657891E+02  0.12564223427E+03  0.00000000000E+00 0.  1.
          2    1    1    2  501    0  0.21933367173E+02  0.27906671949E+02  0.73751853409E+03  0.73837215756E+03  0.00000000000E+00 0. -1.
<scales pt_clust_3="33.83559" pt_clust_4="93.10729" pt_clust_5="14000.00000" pt_clust_6="35.59491"></scales>
<clustering>
<clus scale="   33.836">  2  3  1 -1</clus>
<clus scale="   35.595">  1  6  2 -1</clus>
<clus scale="   93.107">  1  4  2 -1</clus>
<clus scale="   33.836">  2  3  1 -1</clus>
</clustering>
</event>
<event>
 6    0  0.1849053E+002  0.6836745E+02  0.7546771E-02  0.1365734E+00
         21   -1    0    0  501  502  0.00000000000E+00  0.00000000000E+00  0.14936856610E+04  0.14936856610E+04  0.00000000000E+00 0. -1.
          2   -1    0    0  505    0 -0.00000000000E+00 -0.00000000000E+00 -0.13774324689E+04  0.13774324689E+04  0.00000000000E+00 0. -1.
         21    1    1    2  503  502 -0.25523481397E+02  0.25177699437E+02  0.27714593912E+03  0.27945524905E+03  0.00000000000E+00 0. -1.
         21    1    1    2  504  503 -0.35465100310E+02 -0.56018775362E+02  0.12085766707E+04  0.12103939216E+04  0.00000000000E+00 0. -1.
         21    1    1    2  505  504 -0.33738864690E+02 -0.25675363129E+02 -0.12652469533E+03  0.13343925131E+03  0.00000000000E+00 0.  1.
          2    1    1    2  501    0  0.94727446397E+02  0.56516439055E+02 -0.12429447224E+04  0.12478297079E+04  0.00000000000E+00 0. -1.
<scales pt_clust_3="35.85198" pt_clust_4="14000.00000" pt_clust_5="42.41187" pt_clust_6="68.36745"></scales>
<clustering>
<clus scale="   35.852">  1  3  2 -1</clus>
<clus scale="   42.412">  2  5  1 -1</clus>
<clus scale="   68.367">  2  6  1 -1</clus>
<clus scale="   35.852">  1  3  2 -1</clus>
</clustering>
</event>
<event>
 6    0  0.1849053E+002  0.1286376E+03  0.7546771E-02  0.1229491E+00
          2   -1    0    0  504    0 -0.00000000000E+00  0.00000000000E+00  0.72660519162E+03  0.72660519162E+03  0.00000000000E+00 0.  1.
         21   -1    0    0  505  502  0.00000000000E+00 -0.00000000000E+00 -0.14445802901E+03  0.14445802901E+03  0.00000000000E+00 0.  1.
         21    1    1    2  503  502 -0.15839732130E+03  0.96092066817E+00  0.58916563153E+02  0.16900235553E+03  0.00000000000E+00 0.  1.
         21    1    1    2  504  503  0.26419676255E+02 -0.29864494402E+02  0.12714873321E+03  0.13325422199E+03  0.00000000000E+00 0.  1.
         21    1    1    2  505  501  0.11630151488E+03 -0.22664861444E+02 -0.43283601105E+02  0.12614756610E+03  0.00000000000E+00 0.  1.
          2    1    1    2  501    0  0.15676130158E+02  0.51568435178E+02  0.43936546734E+03  0.44265907701E+03  0.00000000000E+00 0.  1.
<scales pt_clust_3="128.63756" pt_clust_4="39.87339" pt_clust_5="14000.00000" pt_clust_6="45.92679"></scales>
<clustering>
<clus scale="   39.873">  1  4  2 -1</clus>
<clus scale="   45.927">  1  6  2 -1</clus>
<clus scale="  128.638">  1  3  2 -1</clus>
<clus scale="  128.638">  2  3  1 -1</clus>
</clustering>
</event>
<event>
 6    0  0.1849053E+002  0.8841198E+02  0.7546771E-02  0.1306744E+00
         21   -1    0    0  505  502  0.00000000000E+00  0.00000000000E+00  0.88734761096E+02  0.88734761096E+02  0.00000000000E+00 0.  1.
          1   -1    0    0  503    0 -0.00000000000E+00 -0.00000000000E+00 -0.14227843828E+04  0.14227843828E+04  0.00000000000E+00 0. -1.
         21    1    1    2  503  504 -0.13559811426E+02 -0.68604545187E+02 -0.44954389743E+03  0.45495073120E+03  0.00000000000E+00 0. -1.
         21    1    1    2  504  502  0.34187208894E+02  0.97915905213E+01  0.26689697131E+00  0.35562785758E+02  0.00000000000E+00 0.  1.
         21    1    1    2  505  501 -0.31356275619E+02 -0.51794469148E+02  0.50690796328E+02  0.78964801573E+02  0.00000000000E+00 0.  1.
          1    1    1    2  501    0  0.10728878151E+02  0.11060742381E+03 -0.93546341755E+03  0.94204082534E+03  0.00000000000E+00 0. -1.
<scales pt_clust_3="88.41198" pt_clust_4="35.56178" pt_clust_5="42.83140" pt_clust_6="14000.00000"></scales>
<clustering>
<clus scale="   35.562">  1  4  2 -1</clus>
<clus scale="   42.831">  1  5  2 -1</clus>
<clus scale="   88.412">  2  3  1 -1</clus>
<clus scale="   35.562">  1  3  2 -1</clus>
</clustering>
</event>
<event>
 6    0  0.1849053E+002  0.1310868E+03  0.7546771E-02  0.1225852E+00
         -1   -1    0    0    0  501 -0.00000000000E+00  0.00000000000E+00  0.14822133112E+03  0.14822133112E+03  0.00000000000E+00 0. -1.
         21   -1    0    0  505  502  0.00000000000E+00 -0.00000000000E+00 -0.11004347418E+04  0.11004347418E+04  0.00000000000E+00 0.  1.
         21    1    1    2  503  502 -0.56633826331E+02 -0.17597033429E+03 -0.83246317244E+03  0.85274139239E+03  0.00000000000E+00 0.  1.
         21    1    1    2  504  501  0.29075285676E+02  0.84093123078E+01 -0.15256397045E+02  0.33894637060E+02  0.00000000000E+00 0. -1.
         21    1    1    2  505  504  0.67592374581E+02  0.47255515486E+02 -0.19132646286E+03  0.20834497410E+03  0.00000000000E+00 0. -1.
         -1    1    1    2    0  503 -0.40033833926E+02  0.12030550650E+03  0.86832621669E+02  0.15367506934E+03  0.00000000000E+00 0. -1.
<scales pt_clust_3="131.08682" pt_clust_4="30.26696" pt_clust_5="84.23020" pt_clust_6="14000.00000"></scales>
<clustering>
<clus scale="   30.267">  1  4  2 -1</clus>
<clus scale="   84.230">  2  5  1 -1</clus>
<clus scale="  131.087">  2  3  1 -1</clus>
<clus scale="   84.230">  2  3  1 -1</clus>
</clustering>
</event>
<event>
 6    0  0.1849053E+002  0.1304544E+03  0.7546771E-02  0.1226783E+00
          2   -1    0    0  502    0 -0.00000000000E+00  0.00000000000E+00  0.16182809255E+04  0.16182809255E+04  0.00000000000E+00 0. -1.
         21   -1    0    0  505  502  0.00000000000E+00 -0.00000000000E+00 -0.51043393478E+02  0.51043393478E+02  0.00000000000E+00 0. -1.
         21    1    1    2  503  504  0.58440024512E+02  0.44651494626E+01  0.40369817813E+02  0.71168084244E+02  0.00000000000E+00 0. -1.
         21    1    1    2  504  501 -0.84083692853E+02 -0.62929075297E+01  0.11071707781E+04  0.11103768729E+04  0.00000000000E+00 0. -1.
         21    1    1    2  505  503  0.55411340642E+02  0.34415344926E+02 -0.53965268447E+00  0.65231310450E+02  0.00000000000E+00 0. -1.
          2    1    1    2  501    0 -0.29767672300E+02 -0.32587586859E+02  0.42023658875E+03  0.42254805130E+03  0.00000000000E+00 0. -1.
<scales pt_clust_3="47.81565" pt_clust_4="35.53065" pt_clust_5="47.81565" pt_clust_6="129.94445"></scales>
<clustering>
<clus scale="   35.531">  4  6 -1 -1</clus>
<clus scale="   47.816">  3  5 -1 -1</clus>
<clus scale="  129.944">  1  4  2 -1</clus>
<clus scale="  130.454">  2  3  1 -1</clus>
</clustering>
</event>
<event>
 6    0  0.1849053E+002  0.1606709E+03  0.7546771E-02  0.1187941E+00
         21   -1    0    0  503  502  0.00000000000E+00  0.00000000000E+00  0.15463422383E+03  0.15463422383E+03  0.00000000000E+00 0. -1.
          2   -1    0    0  505    0 -0.00000000000E+00 -0.00000000000E+00 -0.41133253118E+04  0.41133253118E+04  0.00000000000E+00 0. -1.
         21    1    1    2  503  501  0.18559627655E+02  0.37531755871E+02 -0.55015013432E+02  0.69135693968E+02  0.00000000000E+00 0.  1.
         21    1    1    2  504  502 -0.13047931803E+03  0.72792900683E+02  0.98464953854E+02  0.17893855359E+03  0.00000000000E+00 0. -1.
         21    1    1    2  505  504 -0.36579583555E+02 -0.18954729352E+03 -0.15500549703E+04  0.15620296583E+04  0.00000000000E+00 0. -1.
          2    1    1    2  501    0  0.14849927393E+03  0.79222636962E+02 -0.24520860580E+04  0.24578556297E+04  0.00000000000E+00 0. -1.
<scales pt_clust_3="41.86995" pt_clust_4="156.38341" pt_clust_5="160.67086" pt_clust_6="14000.00000"></scales>
<clustering>
<clus scale="   41.870">  1  3  2 -1</clus>
<clus scale="  156.383">  1  4  2 -1</clus>
<clus scale="  160.671">  1  5  2 -1</clus>
<clus scale="   41.870">  1  3  2 -1</clus>
</clustering>
</event>
<event>
 6    0  0.1849053E+002  0.1602221E+03  0.7546771E-02  0.1188446E+00
         21   -1    0    0  504  502  0.00000000000E+00  0.00000000000E+00  0.14791283479E+03  0.14791283479E+03  0.00000000000E+00 0.  1.
          1   -1    0    0  505    0 -0.00000000000E+00 -0.00000000000E+00 -0.42200303756E+04  0.42200303756E+04  0.00000000000E+00 0.  1.
         21    1    1    2  503  502 -0.44939715228E+02  0.69887373006E+02  0.70775298595E+02  0.10914653362E+03  0.00000000000E+00 0.  1.
         21    1    1    2  504  501  0.67304224529E+02 -0.76430595368E+02 -0.47992224540E+03  0.49060865889E+03  0.00000000000E+00 0. -1.
         21    1    1    2  505  503 -0.66963405396E+02  0.38642179251E+02  0.23888421981E+02  0.80919542660E+02  0.00000000000E+00 0.  1.
          1    1    1    2  501    0  0.44598896095E+02 -0.32098956889E+02 -0.36868590159E+04  0.36872684752E+04  0.00000000000E+00 0.  1.
<scales pt_clust_3="51.61297" pt_clust_4="151.02388" pt_clust_5="51.61297" pt_clust_6="54.94911"></scales>
<clustering>
<clus scale="   51.613">  3  5 -1 -1</clus>
<clus scale="   54.949">  2  6  1 -1</clus>
<clus scale="  151.024">  2  4  1 -1</clus>
<clus scale="  160.222">  1  3  2 -1</clus>
</clustering>
</event>
<event>
 6    0  0.1849053E+002  0.1562233E+03  0.7546771E-02  0.1193028E+00
         21   -1    0    0  503  502  0.00000000000E+00  0.00000000000E+00  0.61320348396E+03  0.61320348396E+03  0.00000000000E+00 0.  1.
          3   -1    0    0  505    0 -0.00000000000E+00 -0.00000000000E+00 -0.10990673531E+03  0.10990673531E+03  0.00000000000E+00 0.  1.
         21    1    1    2  503  501  0.28939709881E+02 -0.17775861511E+02  0.58981338051E+02  0.68060901396E+02  0.00000000000E+00 0. -1.
         21    1    1    2  504  502  0.12644648114E+03  0.83092742455E+02  0.44497980769E+03  0.47000015499E+03  0.00000000000E+00 0.  1.
         21    1    1    2  505  504 -0.39432476301E+02  0.97933974290E+00 -0.28434008260E+02  0.48624809709E+02  0.00000000000E+00 0.  1.
          3    1    1    2  501    0 -0.11595371472E+03 -0.66296220687E+02  0.27769611170E+02  0.13642435317E+03  0.00000000000E+00 0.  1.
<scales pt_clust_3="33.96304" pt_clust_4="156.22328" pt_clust_5="38.90645" pt_clust_6="14000.00000"></scales>
<clustering>
<clus scale="   33.963">  1  3  2 -1</clus>
<clus scale="   38.906">  2  5  1 -1</clus>
<clus scale="  156.223">  1  4  2 -1</clus>
<clus scale="   33.963">  1  3  2 -1</clus>
</clustering>
</event>
<event>
 6    0  0.1849053E+002  0.1514822E+03  0.7546771E-02  0.1198663E+00
          4   -1    0    0  503    0 -0.00000000000E+00  0.00000000000E+00  0.11637528919E+04  0.11637528919E+04  0.00000000000E+00 0. -1.
         21   -1    0    0  505  502  0.00000000000E+00 -0.00000000000E+00 -0.77653681492E+02  0.77653681492E+02  0.00000000000E+00 0. -1.
         21    1    1    2  503  504 -0.35526789777E+02 -0.52682098585E+02  0.27118121350E+03  0.27852613317E+03  0.00000000000E+00 0. -1.
         21    1    1    2  504  502 -0.35696625611E+02  0.22847119010E+02 -0.11569786264E+02  0.43932902036E+02  0.00000000000E+00 0. -1.
         21    1    1    2  505  501  0.18779697604E+03  0.28755528966E+01  0.17549212374E+03  0.25704758024E+03  0.00000000000E+00 0. -1.
          4    1    1    2  501    0 -0.11657356065E+03  0.26959426678E+02  0.65099565946E+03  0.66189995797E+03  0.00000000000E+00 0. -1.
<scales pt_clust_3="63.69290" pt_clust_4="42.38207" pt_clust_5="151.48219" pt_clust_6="14000.00000"></scales>
<clustering>
<clus scale="   42.382">  2  4  1 -1</clus>
<clus scale="   63.693">  1  3  2 -1</clus>
<clus scale="  151.482">  2  5  1 -1</clus>
<clus scale="   42.382">  2  3  1 -1</clus>
</clustering>
</event>
<event>
 6    0  0.1849053E+002  0.9828514E+02  0.7546771E-02  0.1283944E+00
         21   -1    0    0  503  502  0.00000000000E+00  0.00000000000E+00  0.57888208522E+02  0.57888208522E+02  0.00000000000E+00 0.  1.
          2   -1    0    0  505    0 -0.00000000000E+00 -0.00000000000E+00 -0.25180769875E+04  0.25180769875E+04  0.00000000000E+00 0. -1.
         21    1    1    2  503  501 -0.43953045992E+01  0.53415927790E+02  0.80888493520E+01  0.54203408823E+02  0.00000000000E+00 0. -1.
         21    1    1    2  504  502  0.55823807770E+02 -0.52045492146E+01 -0.15263555977E+02  0.58106462528E+02  0.00000000000E+00 0.  1.
         21    1    1    2  505  504  0.60725004624E+02 -0.47090916883E+02 -0.38455520728E+03  0.39215786118E+03  0.00000000000E+00 0.  1.
          2    1    1    2  501    0 -0.11215350780E+03 -0.11204616927E+01 -0.20684588650E+04  0.20714974635E+04  0.00000000000E+00 0. -1.
<scales pt_clust_3="53.59646" pt_clust_4="64.40604" pt_clust_5="14000.00000" pt_clust_6="98.28514"></scales>
<clustering>
<clus scale="   53.596">  1  3  2 -1</clus>
<clus scale="   64.406">  1  4  2 -1</clus>
<clus scale="   98.285">  2  6  1 -1</clus>
<clus scale="   53.596">  1  3  2 -1</clus>
</clustering>
</event>
<event>
 6    0  0.1849053E+002  0.1342638E+03  0.7546771E-02  0.1221263E+00
          2   -1    0    0  504    0 -0.00000000000E+00  0.00000000000E+00  0.26991308019E+04  0.26991308019E+04  0.00000000000E+00 0. -1.
         21   -1    0    0  505  502  0.00000000000E+00 -0.00000000000E+00 -0.92376280862E+03  0.92376280862E+03  0.00000000000E+00 0. -1.
         21    1    1    2  503  502 -0.12810617788E+03 -0.23031406079E+02 -0.17144188406E+03  0.21525324176E+03  0.00000000000E+00 0.  1.
         21    1    1    2  504  503 -0.29929135962E+02  0.98399142606E+01  0.10352842536E+04  0.10357635168E+04  0.00000000000E+00 0. -1.
         21    1    1    2  505  501  0.15084121209E+02 -0.49339508886E+02 -0.72555018605E+03  0.72738228624E+03  0.00000000000E+00 0. -1.
          2    1    1    2  501    0  0.14295119263E+03  0.62531000705E+02  0.16370758098E+04  0.16444945656E+04  0.00000000000E+00 0. -1.
<scales pt_clust_3="134.26375" pt_clust_4="31.50519" pt_clust_5="51.58378" pt_clust_6="14000.00000"></scales>
<clustering>
<clus scale="   31.505">  1  4  2 -1</clus>
<clus scale="   51.584">  2  5  1 -1</clus>
<clus scale="  134.264">  2  3  1 -1</clus>
<clus scale="   51.584">  2  3  1 -1</clus>
</clustering>
</event>
<event>
 6    0  0.1849053E+002  0.1650822E+03  0.7546771E-02  0.1183076E+00
         21   -1    0    0  504  502  0.00000000000E+00  0.00000000000E+00  0.74506276087E+03  0.74506276087E+03  0.00000000000E+00 0.  1.
         -3   -1    0    0    0  501 -0.00000000000E+00 -0.00000000000E+00 -0.15010937628E+03  0.15010937628E+03  0.00000000000E+00 0. -1.
         21    1    1    2  503  505 -0.16139699496E+02 -0.12716137035E+03  0.32070060299E+03  0.34536847101E+03  0.00000000000E+00 0.  1.
         21    1    1    2  504  501  0.12656950119E+02  0.29380565151E+02  0.15526831500E+02  0.35559787561E+02  0.00000000000E+00 0.  1.
         21    1    1    2  505  502  0.35772391678E+02 -0.50971825847E+02  0.33726067947E+03  0.34296145112E+03  0.00000000000E+00 0.  1.
         -3    1    1    2    0  503 -0.32289642301E+02  0.14875263104E+03 -0.78534729364E+02  0.17128242746E+03  0.00000000000E+00 0. -1.
<scales pt_clust_3="165.08220" pt_clust_4="31.99087" pt_clust_5="61.93302" pt_clust_6="14000.00000"></scales>
<clustering>
<clus scale="   31.991">  2  4  1 -1</clus>
<clus scale="   61.933">  1  5  2 -1</clus>
<clus scale="  165.082">  1  3  2 -1</clus>
<clus scale="   61.933">  1  3  2 -1</clus>
</clustering>
</event>
<event>
 6    0  0.1849053E+002  0.1813456E+03  0.7546771E-02  0.1166507E+00
          1   -1    0    0  504    0 -0.00000000000E+00  0.00000000000E+00  0.15329014831E+04  0.15329014831E+04  0.00000000000E+00 0. -1.
         21   -1    0    0  503  502  0.00000000000E+00 -0.00000000000E+00 -0.44441549644E+03  0.44441549644E+03  0.00000000000E+00 0. -1.
         21    1    1    2  503  501  0.20137154692E+03  0.56689411972E+02 -0.21237531484E+03  0.29810646369E+03  0.00000000000E+00 0. -1.
         21    1    1    2  504  505  0.19960713466E+01 -0.43630554964E+02  0.13454112868E+03  0.14145290713E+03  0.00000000000E+00 0.  1.
         21    1    1    2  505  502 -0.15302274903E+03 -0.43628324127E+02 -0.15085642357E+03  0.21926480091E+03  0.00000000000E+00 0.  1.
          1    1    1    2  501    0 -0.50344869243E+02  0.30569467119E+02  0.13171765963E+04  0.13184928078E+04  0.00000000000E+00 0. -1.
<scales pt_clust_3="181.34556" pt_clust_4="43.67619" pt_clust_5="14000.00000" pt_clust_6="49.61567"></scales>
<clustering>
<clus scale="   43.676">  1  4  2 -1</clus>
<clus scale="   49.616">  1  6  2 -1</clus>
<clus scale="  181.346">  1  3  2 -1</clus>
<clus scale="  181.346">  2  3  1 -1</clus>
</clustering>
</event>
<event>
 6    0  0.1849053E+002  0.1180038E+03  0.7546771E-02  0.1246427E+00
         -3   -1    0    0    0  501 -0.00000000000E+00  0.00000000000E+00  0.13490349184E+04  0.13490349184E+04  0.00000000000E+00 0.  1.
         21   -1    0    0  505  502  0.00000000000E+00 -0.00000000000E+00 -0.22218516885E+03  0.22218516885E+03  0.00000000000E+00 0.  1.
         21    1    1    2  503  502 -0.12208269901E+02  0.85301066986E+02 -0.17747018505E+03  0.19728400966E+03  0.00000000000E+00 0.  1.
         21    1    1    2  504  501  0.47081371621E+02 -0.22840155702E+01  0.34362509781E+03  0.34684301942E+03  0.00000000000E+00 0. -1.
         21    1    1    2  505  504 -0.43174020664E+02  0.20927565733E+02 -0.11487225782E+02  0.49334728376E+02  0.00000000000E+00 0.  1.
         -3    1    1    2    0  503  0.83009189431E+01 -0.10394461715E+03  0.97218206262E+03  0.97775832984E+03  0.00000000000E+00 0.  1.
<scales pt_clust_3="118.00377" pt_clust_4="47.13674" pt_clust_5="47.16254" pt_clust_6="14000.00000"></scales>
<clustering>
<clus scale="   47.137">  1  4  2 -1</clus>
<clus scale="   47.163">  2  5  1 -1</clus>
<clus scale="  118.004">  2  3  1 -1</clus>
<clus scale="   47.163">  2  3  1 -1</clus>
</clustering>
</event>
<event>
 6    0  0.1849053E+002  0.1115250E+03  0.7546771E-02  0.1257772E+00
         21   -1    0    0  503  502  0.00000000000E+00  0.00000000000E+00  0.42141456859E+03  0.42141456859E+03  0.00000000000E+00 0. -1.
          3   -1    0    0  504    0 -0.00000000000E+00 -0.00000000000E+00 -0.10232687139E+03  0.10232687139E+03  0.00000000000E+00 0. -1.
         21    1    1    2  503  501  0.89257823751E+01  0.33046574082E+02  0.66931597562E+02  0.75177020437E+02  0.00000000000E+00 0. -1.
         21    1    1    2  504  505 -0.80580474024E+02  0.48860202760E+02  0.60553191662E+01  0.94430922361E+02  0.00000000000E+00 0. -1.
         21    1    1    2  505  502  0.10565500667E+03 -0.61343585113E+02  0.27768649064E+03  0.30337403144E+03  0.00000000000E+00 0. -1.
          3    1    1    2  501    0 -0.34000315020E+02 -0.20563191729E+02 -0.31585710170E+02  0.50759465743E+02  0.00000000000E+00 0. -1.
<scales pt_clust_3="34.23077" pt_clust_4="111.52505" pt_clust_5="14000.00000" pt_clust_6="39.06337"></scales>
<clustering>
<clus scale="   34.231">  1  3  2 -1</clus>
<clus scale="   39.063">  2  6  1 -1</clus>
<clus scale="  111.525">  2  4  1 -1</clus>
<clus scale="   34.231">  1  3  2 -1</clus>
</clustering>
</event>
<event>
 6    0  0.1849053E+002  0.1763471E+03  0.7546771E-02  0.1171386E+00
         21   -1    0    0  501  502  0.00000000000E+00  0.00000000000E+00  0.12612503226E+03  0.12612503226E+03  0.00000000000E+00 0.  1.
          1   -1    0    0  505    0 -0.00000000000E+00 -0.00000000000E+00 -0.37889003495E+03  0.37889003495E+03  0.00000000000E+00 0. -1.
         21    1    1    2  503  504 -0.21106596930E+02  0.25216728879E+02 -0.99922541122E+01  0.34368837507E+02  0.00000000000E+00 0. -1.
         21    1    1    2  504  502  0.58877575017E+02  0.16608544540E+03 -0.69911032937E+02  0.18957451448E+03  0.00000000000E+00 0.  1.
         21    1    1    2  505  503 -0.42102682339E+01 -0.59282880825E+02 -0.12192976416E+03  0.13564311153E+03  0.00000000000E+00 0. -1.
          1    1    1    2  501    0 -0.33560709853E+02 -0.13201929345E+03 -0.50931951474E+02  0.14542860369E+03  0.00000000000E+00 0. -1.
<scales pt_clust_3="32.73720" pt_clust_4="32.73720" pt_clust_5="59.43220" pt_clust_6="159.23371"></scales>
<clustering>
<clus scale="   32.737">  3  4 -1 -1</clus>
<clus scale="   59.432">  2  5  1 -1</clus>
<clus scale="  159.234">  1  6  2 -1</clus>
<clus scale="  159.234">  1  3  2 -1</clus>
</clustering>
</event>
<event>
 6    0  0.1849053E+002  0.1133969E+03  0.7546771E-02  0.1254406E+00
         -1   -1    0    0    0  501 -0.00000000000E+00  0.00000000000E+00  0.86800172386E+03  0.86800172386E+03  0.00000000000E+00 0. -1.
         21   -1    0    0  504  502  0.00000000000E+00 -0.00000000000E+00 -0.20830401697E+03  0.20830401697E+03  0.00000000000E+00 0. -1.
         21    1    1    2  503  501 -0.59995993896E+02  0.13403718001E+02  0.12401233440E+03  0.13841328702E+03  0.00000000000E+00 0. -1.
         21    1    1    2  504  505 -0.70197616143E+01  0.47685391258E+02 -0.12446736670E+03  0.13347396363E+03  0.00000000000E+00 0. -1.
         21    1    1    2  505  503  0.18367672877E+02  0.53249593829E+02 -0.54895726118E+02  0.78653870826E+02  0.00000000000E+00 0. -1.
         -1    1    1    2    0  502  0.48648082633E+02 -0.11433870309E+03  0.71504846530E+03  0.72576461935E+03  0.00000000000E+00 0. -1.
<scales pt_clust_3="61.47503" pt_clust_4="46.34818" pt_clust_5="46.34818" pt_clust_6="101.72709"></scales>
<clustering>
<clus scale="   46.348">  4  5 -1 -1</clus>
<clus scale="   61.475">  1  3  2 -1</clus>
<clus scale="  101.727">  1  6  2 -1</clus>
<clus scale="  113.397">  2  3  1 -1</clus>
</clustering>
</event>
<event>
 6    0  0.1849053E+002  0.7974826E+02  0.7546771E-02  0.1329767E+00
         21   -1    0    0  504  502  0.00000000000E+00  0.00000000000E+00  0.71750694194E+03  0.71750694194E+03  0.00000000000E+00 0. -1.
          2   -1    0    0  505    0 -0.00000000000E+00 -0.00000000000E+00 -0.97622577634E+03  0.97622577634E+03  0.00000000000E+00 0. -1.
         21    1    1    2  503  502  0.70567793605E+02  0.24303131119E+02  0.54652542353E+03  0.55159812748E+03  0.00000000000E+00 0. -1.
         21    1    1    2  504  501 -0.32363536692E+02  0.46338076682E+02  0.15682306971E+03  0.16669760362E+03  0.00000000000E+00 0.  1.
         21    1    1    2  505  503 -0.62237311327E+02  0.98393440929E+01 -0.22687808365E+03  0.23546541243E+03  0.00000000000E+00 0. -1.
          2    1    1    2  501    0  0.24033054415E+02 -0.80480551894E+02 -0.73518924400E+03  0.73997157474E+03  0.00000000000E+00 0. -1.
<scales pt_clust_3="14000.00000" pt_clust_4="56.52093" pt_clust_5="63.31394" pt_clust_6="79.74826"></scales>
<clustering>
<clus scale="   56.521">  1  4  2 -1</clus>
<clus scale="   63.314">  2  5  1 -1</clus>
<clus scale="   79.748">  2  6  1 -1</clus>
<clus scale="   56.521">  1  3  2 -1</clus>
</clustering>
</event>
<event>
 6    0  0.1849053E+002  0.1567465E+03  0.7546771E-02  0.1192420E+00
         21   -1    0    0  503  502  0.00000000000E+00  0.00000000000E+00  0.80287317462E+02  0.80287317462E+02  0.00000000000E+00 0.  1.
          1   -1    0    0  504    0 -0.00000000000E+00 -0.00000000000E+00 -0.32154504527E+04  0.32154504527E+04  0.00000000000E+00 0.  1.
         21    1    1    2  503  501  0.38504426508E+02 -0.12803355033E+02 -0.49271919785E+03  0.49438722141E+03  0.00000000000E+00 0.  1.
         21    1    1    2  504  505 -0.78866010203E+02 -0.32525707006E+01 -0.75960345654E+02  0.10954634131E+03  0.00000000000E+00 0.  1.
         21    1    1    2  505  502 -0.65201082189E+02 -0.37469152371E+02  0.38259405119E+02  0.84373577487E+02  0.00000000000E+00 0.  1.
          1    1    1    2  501    0  0.10556266588E+03  0.53525078104E+02 -0.26047429969E+04  0.26074306300E+04  0.00000000000E+00 0.  1.
<scales pt_clust_3="39.66181" pt_clust_4="141.35454" pt_clust_5="75.20052" pt_clust_6="39.66181"></scales>
<clustering>
<clus scale="   39.662">  3  6 -1 -1</clus>
<clus scale="   75.201">  1  5  2 -1</clus>
<clus scale="  141.355">  1  4  2 -1</clus>
<clus scale="   75.201">  1  3  2 -1</clus>
</clustering>
</event>
<event>
 6    0  0.1849053E+002  0.9732865E+02  0.7546771E-02  0.1286016E+00
         21   -1    0    0  505  502  0.00000000000E+00  0.00000000000E+00  0.55248905467E+03  0.55248905467E+03  0.00000000000E+00 0. -1.
          2   -1    0    0  504    0 -0.00000000000E+00 -0.00000000000E+00 -0.13449921286E+03  0.13449921286E+03  0.00000000000E+00 0. -1.
         21    1    1    2  503  501 -0.18574097922E+02 -0.36673641602E+02  0.25070884485E+03  0.25405684008E+03  0.00000000000E+00 0. -1.
         21    1    1    2  504  502 -0.56534784656E+02  0.21870036965E+02 -0.37237092528E+01  0.60731757784E+02  0.00000000000E+00 0.  1.
         21    1    1    2  505  503 -0.52372360842E+02 -0.95421350563E+01  0.22530828388E+03  0.23151185565E+03  0.00000000000E+00 0. -1.
          2    1    1    2  501    0  0.12748124342E+03  0.24345739693E+02 -0.54303577673E+02  0.14068781402E+03  0.00000000000E+00 0. -1.
<scales pt_clust_3="39.45005" pt_clust_4="60.61749" pt_clust_5="39.45005" pt_clust_6="86.35689"></scales>
<clustering>
<clus scale="   39.450">  3  5 -1 -1</clus>
<clus scale="   60.617">  2  4  1 -1</clus>
<clus scale="   86.357">  2  6  1 -1</clus>
<clus scale="   97.329">  1  3  2 -1</clus>
</clustering>
</event>
<event>
 6    0  0.1849053E+002  0.9930712E+02  0.7546771E-02  0.1281760E+00
         21   -1    0    0  503  502  0.00000000000E+00  0.00000000000E+00  0.66070094084E+02  0.66070094084E+02  0.00000000000E+00 0. -1.
          2   -1    0    0  504    0 -0.00000000000E+00 -0.00000000000E+00 -0.52188258734E+03  0.52188258734E+03  0.00000000000E+00 0. -1.
         21    1    1    2  503  501 -0.37177052389E+02  0.25700231836E+02 -0.45590010916E+02  0.64195671474E+02  0.00000000000E+00 0. -1.
         21    1    1    2  504  505  0.32624826872E+02  0.12937401864E+02 -0.65970927146E+02  0.74725624280E+02  0.00000000000E+00 0.  1.
         21    1    1    2  505  502  0.11151547357E+03  0.17069880435E+02 -0.36626603758E+02  0.11861108619E+03  0.00000000000E+00 0. -1.
          2    1    1    2  501    0 -0.10696324805E+03 -0.55707514135E+02 -0.30762495144E+03  0.33042029948E+03  0.00000000000E+00 0. -1.
<scales pt_clust_3="42.97417" pt_clust_4="35.09638" pt_clust_5="99.30712" pt_clust_6="14000.00000"></scales>
<clustering>
<clus scale="   35.096">  2  4  1 -1</clus>
<clus scale="   42.974">  1  3  2 -1</clus>
<clus scale="   99.307">  1  5  2 -1</clus>
<clus scale="   42.974">  1  3  2 -1</clus>
</clustering>
</event>
<event>
 6    0  0.1849053E+002  0.1101812E+03  0.7546771E-02  0.1260235E+00
         21   -1    0    0  503  502  0.00000000000E+00  0.00000000000E+00  0.26071060944E+03  0.26071060944E+03  0.00000000000E+00 0.  1.
         -4   -1    0    0    0  501 -0.00000000000E+00 -0.00000000000E+00 -0.26697316185E+03  0.26697316185E+03  0.00000000000E+00 0. -1.
         21    1    1    2  503  504  0.29073966418E+02 -0.56814324976E+02  0.16054127066E+03  0.17276186683E+03  0.00000000000E+00 0.  1.
         21    1    1    2  504  505 -0.13203136013E+01 -0.72645985532E+02  0.47538437668E+02  0.86827907368E+02  0.00000000000E+00 0.  1.
         21    1    1    2  505  501  0.21346976702E+02  0.32101889085E+02 -0.15968828222E+02  0.41728026217E+02  0.00000000000E+00 0.  1.
         -4    1    1    2    0  502 -0.49100629519E+02  0.97358421423E+02 -0.19837343252E+03  0.22636597088E+03  0.00000000000E+00 0. -1.
<scales pt_clust_3="63.34345" pt_clust_4="14000.00000" pt_clust_5="38.55158" pt_clust_6="110.18125"></scales>
<clustering>
<clus scale="   38.552">  2  5  1 -1</clus>
<clus scale="   63.343">  1  3  2 -1</clus>
<clus scale="  110.181">  2  6  1 -1</clus>
<clus scale="   63.343">  1  3  2 -1</clus>
</clustering>
</event>
<event>
 6    0  0.1849053E+002  0.1216483E+03  0.7546771E-02  0.1240402E+00
         21   -1    0    0  504  502  0.00000000000E+00  0.00000000000E+00  0.70765848524E+03  0.70765848524E+03  0.00000000000E+00 0. -1.
          1   -1    0    0  505    0 -0.00000000000E+00 -0.00000000000E+00 -0.91872387764E+03  0.91872387764E+03  0.00000000000E+00 0.  1.
         21    1    1    2  503  501  0.27368836008E+02 -0.32080107624E+02 -0.19250087673E+03  0.19706540547E+03  0.00000000000E+00 0. -1.
         21    1    1    2  504  503  0.77088557256E+02 -0.55073145704E+02  0.95020895785E+02  0.13418147291E+03  0.00000000000E+00 0.  1.
         21    1    1    2  505  502 -0.13657793593E+03  0.15133427774E+03  0.57125864176E+03  0.60654103900E+03  0.00000000000E+00 0. -1.
          1    1    1    2  501    0  0.32120542669E+02 -0.64181024414E+02 -0.68484405322E+03  0.68859444551E+03  0.00000000000E+00 0.  1.
<scales pt_clust_3="33.00533" pt_clust_4="94.74016" pt_clust_5="113.77283" pt_clust_6="33.00533"></scales>
<clustering>
<clus scale="   33.005">  3  6 -1 -1</clus>
<clus scale="   94.740">  1  4  2 -1</clus>
<clus scale="  113.773">  1  5  2 -1</clus>
<clus scale="   94.740">  1  3  2 -1</clus>
</clustering>
</event>
<event>
 6    0  0.1849053E+002  0.1892914E+03  0.7546771E-02  0.1159102E+00
          2   -1    0    0  505    0 -0.00000000000E+00  0.00000000000E+00  0.18895503083E+04  0.18895503083E+04  0.00000000000E+00 0.  1.
         21   -1    0    0  504  502  0.00000000000E+00 -0.00000000000E+00 -0.54487724425E+02  0.54487724425E+02  0.00000000000E+00 0.  1.
         21    1    1    2  503  501  0.11966808114E+03  0.24885827170E+02  0.14844978524E+03  0.19229428690E+03  0.00000000000E+00 0.  1.
         21    1    1    2  504  503  0.96663467861E+02  0.12659598957E+02  0.77271502461E+02  0.12439845882E+03  0.00000000000E+00 0.  1.
         21    1    1    2  505  502 -0.38335123097E+02  0.17170280839E+01  0.10123711118E+03  0.10826579575E+03  0.00000000000E+00 0.  1.
          2    1    1    2  501    0 -0.17799642591E+03 -0.39262454211E+02  0.15081041849E+04  0.15190794912E+04  0.00000000000E+00 0.  1.
<scales pt_clust_3="30.09037" pt_clust_4="30.09037" pt_clust_5="38.37356" pt_clust_6="186.26868"></scales>
<clustering>
<clus scale="   30.090">  3  4 -1 -1</clus>
<clus scale="   38.374">  2  5  1 -1</clus>
<clus scale="  186.269">  1  6  2 -1</clus>
<clus scale="   38.374">  2  3  1 -1</clus>
</clustering>
</event>
<event>
 6    0  0.1849053E+002  0.1028950E+03  0.7546771E-02  0.1274323E+00
         21   -1    0    0  504  502  0.00000000000E+00  0.00000000000E+00  0.15669019504E+04  0.15669019504E+04  0.00000000000E+00 0. -1.
          1   -1    0    0  505    0 -0.00000000000E+00 -0.00000000000E+00 -0.29823701773E+03  0.29823701773E+03  0.00000000000E+00 0.  1.
         21    1    1    2  503  502 -0.86103053042E+02 -0.37340275418E+02  0.10641592371E+04  0.10682897144E+04  0.00000000000E+00 0. -1.
         21    1    1    2  504  501  0.51876287334E+02 -0.61127304223E+02  0.47840645224E+03  0.48507775671E+03  0.00000000000E+00 0.  1.
         21    1    1    2  505  503  0.46529255793E+02  0.21599168142E+00 -0.12068422227E+03  0.12934334077E+03  0.00000000000E+00 0. -1.
          1    1    1    2  501    0 -0.12302490085E+02  0.98251587960E+02 -0.15321653439E+03  0.18242815629E+03  0.00000000000E+00 0.  1.
<scales pt_clust_3="14000.00000" pt_clust_4="80.75241" pt_clust_5="46.52976" pt_clust_6="102.89503"></scales>
<clustering>
<clus scale="   46.530">  2  5  1 -1</clus>
<clus scale="   80.752">  1  4  2 -1</clus>
<clus scale="  102.895">  2  6  1 -1</clus>
<clus scale="   80.752">  1  3  2 -1</clus>
</clustering>
</event>
<event>
 6    0  0.1849053E+002  0.7861594E+02  0.7546771E-02  0.1333026E+00
         -1   -1    0    0    0  501 -0.00000000000E+00  0.00000000000E+00  0.41849895685E+03  0.41849895685E+03  0.00000000000E+00 0. -1.
         21   -1    0    0  505  502  0.00000000000E+00 -0.00000000000E+00 -0.18358774990E+03  0.18358774990E+03  0.00000000000E+00 0.  1.
         21    1    1    2  503  502  0.11442546895E+02  0.77458449109E+02 -0.10543210662E+03  0.13132658651E+03  0.00000000000E+00 0.  1.
         21    1    1    2  504  503 -0.16057494723E+02  0.50989134682E+02 -0.40764256127E+00  0.53459341231E+02  0.00000000000E+00 0.  1.
         21    1    1    2  505  501 -0.82989843641E+00 -0.80264044178E+02  0.75864732369E+01  0.80626050972E+02  0.00000000000E+00 0. -1.
         -1    1    1    2    0  504  0.54448462646E+01 -0.48183539613E+02  0.33316448289E+03  0.33667472804E+03  0.00000000000E+00 0. -1.
<scales pt_clust_3="14000.00000" pt_clust_4="38.46565" pt_clust_5="78.61594" pt_clust_6="48.49020"></scales>
<clustering>
<clus scale="   48.490">  1  6  2 -1</clus>
<clus scale="   38.466">  1  4  2 -1</clus>
<clus scale="   78.616">  1  5  2 -1</clus>
<clus scale="   78.616">  2  3  1 -1</clus>
</clustering>
</event>
<event>
 6    0  0.1849053E+002  0.2483016E+03  0.7546771E-02  0.1114383E+00
         21   -1    0    0  504  502  0.00000000000E+00  0.00000000000E+00  0.17575223312E+03  0.17575223312E+03  0.00000000000E+00 0. -1.
          1   -1    0    0  503    0 -0.00000000000E+00 -0.00000000000E+00 -0.86648956100E+03  0.86648956100E+03  0.00000000000E+00 0.  1.
         21    1    1    2  503  505  0.42496335574E+02  0.15078916789E+03 -0.10388936925E+02  0.15700713901E+03  0.00000000000E+00 0. -1.
         21    1    1    2  504  501 -0.58190850174E+02 -0.16904688700E+03 -0.26554504529E+03  0.32012059622E+03  0.00000000000E+00 0.  1.
         21    1    1    2  505  502  0.53665724648E+02  0.10806112746E+03  0.17532289668E+02  0.12192045953E+03  0.00000000000E+00 0. -1.
          1    1    1    2  501    0 -0.37971210048E+02 -0.89803408344E+02 -0.43233563533E+03  0.44319359937E+03  0.00000000000E+00 0.  1.
<scales pt_clust_3="33.97672" pt_clust_4="245.26459" pt_clust_5="33.97672" pt_clust_6="97.50110"></scales>
<clustering>
<clus scale="   33.977">  3  5 -1 -1</clus>
<clus scale="   97.501">  2  6  1 -1</clus>
<clus scale="  245.265">  2  4  1 -1</clus>
<clus scale="  248.302">  1  3  2 -1</clus>
</clustering>
</event>
<event>
 6    0  0.1849053E+002  0.2411898E+03  0.7546771E-02  0.1119003E+00
          2   -1    0    0  505    0 -0.00000000000E+00  0.00000000000E+00  0.45621011421E+03  0.45621011421E+03  0.00000000000E+00 0. -1.
         21   -1    0    0  504  502  0.00000000000E+00 -0.00000000000E+00 -0.48027747442E+03  0.48027747442E+03  0.00000000000E+00 0. -1.
         21    1    1    2  503  501 -0.11939400307E+02 -0.21437633701E+03 -0.22789114368E+03  0.31310403466E+03  0.00000000000E+00 0. -1.
         21    1    1    2  504  503  0.38215665725E+02 -0.37431403464E+02 -0.14285210974E+03  0.15253941238E+03  0.00000000000E+00 0.  1.
         21    1    1    2  505  502 -0.71926880244E+02  0.27494878490E+02  0.36156780588E+02  0.85069132047E+02  0.00000000000E+00 0. -1.
          2    1    1    2  501    0  0.45650614826E+02  0.22431286199E+03  0.31051911263E+03  0.38577500955E+03  0.00000000000E+00 0. -1.
<scales pt_clust_3="14000.00000" pt_clust_4="53.49343" pt_clust_5="73.41189" pt_clust_6="241.18977"></scales>
<clustering>
<clus scale="   53.493">  2  4  1 -1</clus>
<clus scale="   73.412">  1  5  2 -1</clus>
<clus scale="  241.190">  1  6  2 -1</clus>
<clus scale="   53.493">  2  3  1 -1</clus>
</clustering>
</event>
<event>
 6    0  0.1849053E+002  0.1500606E+03  0.7546771E-02  0.1200399E+00
         21   -1    0    0  504  502  0.00000000000E+00  0.00000000000E+00  0.13195307264E+03  0.13195307264E+03  0.00000000000E+00 0.  1.
         -2   -1    0    0    0  501 -0.00000000000E+00 -0.00000000000E+00 -0.50912783100E+03  0.50912783100E+03  0.00000000000E+00 0.  1.
         21    1    1    2  503  502  0.40024969121E+02 -0.14978299345E+03  0.45741080345E+02  0.16164525885E+03  0.00000000000E+00 0.  1.
         21    1    1    2  504  505  0.55390232360E+01  0.47835996497E+02 -0.58543239240E+02  0.75804183261E+02  0.00000000000E+00 0.  1.
         21    1    1    2  505  501  0.31704438511E+02 -0.25137006991E+00 -0.23467047765E+02  0.39445366509E+02  0.00000000000E+00 0. -1.
         -2    1    1    2    0  503 -0.77268430868E+02  0.10219836702E+03 -0.34090555170E+03  0.36418609502E+03  0.00000000000E+00 0.  1.
<scales pt_clust_3="14000.00000" pt_clust_4="48.83495" pt_clust_5="31.70543" pt_clust_6="150.06063"></scales>
<clustering>
<clus scale="   31.705">  2  5  1 -1</clus>
<clus scale="   48.835">  2  4  1 -1</clus>
<clus scale="  150.061">  2  6  1 -1</clus>
<clus scale="  150.061">  1  3  2 -1</clus>
</clustering>
</event>
<event>
 6    0  0.1849053E+002  0.1174231E+03  0.7546771E-02  0.1247410E+00
         21   -1    0    0  503  502  0.00000000000E+00  0.00000000000E+00  0.10436853716E+03  0.10436853716E+03  0.00000000000E+00 0.  1.
          1   -1    0    0  504    0 -0.00000000000E+00 -0.00000000000E+00 -0.41030271068E+04  0.41030271068E+04  0.00000000000E+00 0. -1.
         21    1    1    2  503  501  0.62095635215E+02  0.10050874676E+03  0.61502918786E+02  0.13319341240E+03  0.00000000000E+00 0.  1.
         21    1    1    2  504  505 -0.34011885639E+02  0.18201652643E+02 -0.25160935172E+04  0.25163892179E+04  0.00000000000E+00 0. -1.
         21    1    1    2  505  502  0.13325775568E+02 -0.40935534844E+02 -0.77933656047E+02  0.89033415369E+02  0.00000000000E+00 0. -1.
          1    1    1    2  501    0 -0.41409525144E+02 -0.77774864554E+02 -0.14661343151E+04  0.14687795983E+04  0.00000000000E+00 0. -1.
<scales pt_clust_3="117.42312" pt_clust_4="38.57601" pt_clust_5="41.60915" pt_clust_6="14000.00000"></scales>
<clustering>
<clus scale="   38.576">  2  4  1 -1</clus>
<clus scale="   41.609">  2  5  1 -1</clus>
<clus scale="  117.423">  1  3  2 -1</clus>
<clus scale="  117.423">  1  3  2 -1</clus>
</clustering>
</event>
<event>
 6    0  0.1849053E+002  0.1076639E+03  0.7546771E-02  0.1264958E+00
          1   -1    0    0  503    0 -0.00000000000E+00  0.00000000000E+00  0.83300926818E+03  0.83300926818E+03  0.00000000000E+00 0. -1.
         21   -1    0    0  504  502  0.00000000000E+00 -0.00000000000E+00 -0.25783394521E+03  0.25783394521E+03  0.00000000000E+00 0.  1.
         21    1    1    2  503  502  0.26297929917E+02 -0.24113227425E+02 -0.15170291561E+03  0.15584223901E+03  0.00000000000E+00 0.  1.
         21    1    1    2  504  505 -0.53777193522E+02  0.25689664242E+02 -0.52647103118E+02  0.79521461623E+02  0.00000000000E+00 0.  1.
         21    1    1    2  505  501 -0.82822341304E+02  0.58554873282E+01  0.16708698993E+02  0.84693609989E+02  0.00000000000E+00 0.  1.
          1    1    1    2  501    0  0.11030160491E+03 -0.74319241458E+01  0.76281664270E+03  0.77078590278E+03  0.00000000000E+00 0. -1.
<scales pt_clust_3="35.67953" pt_clust_4="38.50132" pt_clust_5="107.66393" pt_clust_6="14000.00000"></scales>
<clustering>
<clus scale="   35.680">  2  3  1 -1</clus>
<clus scale="   38.501">  2  4  1 -1</clus>
<clus scale="  107.664">  2  5  1 -1</clus>
<clus scale="   35.680">  2  3  1 -1</clus>
</clustering>
</event>
<event>
 6    0  0.1849053E+002  0.9221790E+02  0.7546771E-02  0.1297568E+00
         21   -1    0    0  505  502  0.00000000000E+00  0.00000000000E+00  0.59792195369E+02  0.59792195369E+02  0.00000000000E+00 0. -1.
          1   -1    0    0  503    0 -0.00000000000E+00 -0.00000000000E+00 -0.11911910563E+04  0.11911910563E+04  0.00000000000E+00 0.  1.
         21    1    1    2  503  504 -0.10945939182E-01  0.10299897305E+03 -0.37029403310E+03  0.38435199950E+03  0.00000000000E+00 0.  1.
         21    1    1    2  504  502 -0.60912937426E+01  0.30004551790E+02  0.27756086385E+01  0.30742169586E+02  0.00000000000E+00 0. -1.
         21    1    1    2  505  501 -0.41668746068E+02 -0.54243208305E+02 -0.19682248190E+01  0.68428677870E+02  0.00000000000E+00 0. -1.
          1    1    1    2  501    0  0.47770985750E+02 -0.78760316539E+02 -0.76191221163E+03  0.76746040470E+03  0.00000000000E+00 0.  1.
<scales pt_clust_3="92.21790" pt_clust_4="30.61661" pt_clust_5="55.82097" pt_clust_6="14000.00000"></scales>
<clustering>
<clus scale="   30.617">  1  4  2 -1</clus>
<clus scale="   55.821">  1  5  2 -1</clus>
<clus scale="   92.218">  1  3  2 -1</clus>
<clus scale="   30.617">  1  3  2 -1</clus>
</clustering>
</event>
<event>
 6    0  0.1849053E+002  0.8695958E+02  0.7546771E-02  0.1310386E+00
          2   -1    0    0  503    0 -0.00000000000E+00  0.00000000000E+00  0.46983595065E+04  0.46983595065E+04  0.00000000000E+00 0.  1.
         21   -1    0    0  505  502  0.00000000000E+00 -0.00000000000E+00 -0.76583577267E+02  0.76583577267E+02  0.00000000000E+00 0.  1.
         21    1    1    2  503  504 -0.25597216720E+02  0.94036070859E+02  0.11318724348E+04  0.11360603896E+04  0.00000000000E+00 0. -1.
         21    1    1    2  504  502 -0.30369924544E+02 -0.60545331222E+01 -0.13469654430E+01  0.30996838614E+02  0.00000000000E+00 0.  1.
         21    1    1    2  505  501 -0.15410604851E+02 -0.35496831656E+02 -0.51282661242E+02  0.64245024271E+02  0.00000000000E+00 0.  1.
          2    1    1    2  501    0  0.71377746115E+02 -0.52484706081E+02  0.35425331211E+04  0.35436408313E+04  0.00000000000E+00 0.  1.
<scales pt_clust_3="14000.00000" pt_clust_4="30.96756" pt_clust_5="60.66535" pt_clust_6="86.95958"></scales>
<clustering>
<clus scale="   30.968">  2  4  1 -1</clus>
<clus scale="   60.665">  2  5  1 -1</clus>
<clus scale="   86.960">  1  6  2 -1</clus>
<clus scale="   30.968">  2  3  1 -1</clus>
</clustering>
</event>
<event>
 6    0  0.1849053E+002  0.6842497E+02  0.7546771E-02  0.1365532E+00
          1   -1    0    0  504    0 -0.00000000000E+00  0.00000000000E+00  0.22386914535E+04  0.22386914535E+04  0.00000000000E+00 0.  1.
         21   -1    0    0  503  502  0.00000000000E+00 -0.00000000000E+00 -0.19663383614E+02  0.19663383614E+02  0.00000000000E+00 0.  1.
         21    1    1    2  503  501  0.30645685799E+02 -0.11466959400E+03  0.21584376222E+03  0.24632661962E+03  0.00000000000E+00 0.  1.
         21    1    1    2  504  505  0.13544264281E+02  0.28097941688E+02  0.37470024753E+03  0.37599629908E+03  0.00000000000E+00 0.  1.
         21    1    1    2  505  502 -0.28643837410E+01  0.51816822288E+02  0.20309760173E+03  0.20962305120E+03  0.00000000000E+00 0.  1.
          1    1    1    2  501    0 -0.41325566339E+02  0.34754830027E+02  0.14253864584E+04  0.14264088672E+04  0.00000000000E+00 0.  1.
<scales pt_clust_3="14000.00000" pt_clust_4="31.19201" pt_clust_5="54.94554" pt_clust_6="68.42497"></scales>
<clustering>
<clus scale="   31.192">  1  4  2 -1</clus>
<clus scale="   54.946">  2  5  1 -1</clus>
<clus scale="   68.425">  1  6  2 -1</clus>
<clus scale="   54.946">  2  3  1 -1</clus>
</clustering>
</event>
<event>
 6    0  0.1849053E+002  0.1773199E+03  0.7546771E-02  0.1170422E+00
          2   -1    0    0  502    0 -0.00000000000E+00  0.00000000000E+00  0.19905918626E+04  0.19905918626E+04  0.00000000000E+00 0. -1.
         21   -1    0    0  505  502  0.00000000000E+00 -0.00000000000E+00 -0.24884347223E+02  0.24884347223E+02  0.00000000000E+00 0. -1.
         21    1    1    2  503  504  0.81173662126E+02 -0.32062980496E+02  0.22028918200E+03  0.23694835270E+03  0.00000000000E+00 0. -1.
         21    1    1    2  504  501 -0.42748332626E+02  0.31681542771E+02  0.28051995505E+03  0.28552160212E+03  0.00000000000E+00 0. -1.
         21    1    1    2  505  503  0.61732630238E+02 -0.49486873087E+02  0.12171084956E+03  0.14516679766E+03  0.00000000000E+00 0. -1.
          2    1    1    2  501    0 -0.10015795974E+03  0.49868310811E+02  0.13431875288E+04  0.13478394573E+04  0.00000000000E+00 0. -1.
<scales pt_clust_3="170.43464" pt_clust_4="45.58604" pt_clust_5="42.31728" pt_clust_6="45.58604"></scales>
<clustering>
<clus scale="   42.317">  3  5 -1 -1</clus>
<clus scale="   45.586">  4  6 -1 -1</clus>
<clus scale="  170.435">  2  3  1 -1</clus>
<clus scale="  170.435">  2  3  1 -1</clus>
</clustering>
</event>
<event>
 6    0  0.1849053E+002  0.8802319E+02  0.7546771E-02  0.1307711E+00
         21   -1    0    0  504  502  0.00000000000E+00  0.00000000000E+00  0.70675064076E+03  0.70675064076E+03  0.00000000000E+00 0.  1.
          4   -1    0    0  503    0 -0.00000000000E+00 -0.00000000000E+00 -0.20838414061E+03  0.20838414061E+03  0.00000000000E+00 0.  1.
         21    1    1    2  503  505 -0.14819833024E+02 -0.71124000902E+02 -0.12986443061E+03  0.14880531339E+03  0.00000000000E+00 0.  1.
         21    1    1    2  504  501 -0.40103716425E+02 -0.23013656891E+02  0.53699549567E+02  0.70863094050E+02  0.00000000000E+00 0.  1.
         21    1    1    2  505  502  0.12528682230E+02  0.10846838083E+03  0.62124989285E+03  0.63077237327E+03  0.00000000000E+00 0.  1.
          4    1    1    2  501    0  0.42394867218E+02 -0.14330723039E+02 -0.46718511657E+02  0.64694000655E+02  0.00000000000E+00 0.  1.
<scales pt_clust_3="88.02319" pt_clust_4="44.61176" pt_clust_5="14000.00000" pt_clust_6="44.75147"></scales>
<clustering>
<clus scale="   44.751">  2  6  1 -1</clus>
<clus scale="   44.612">  1  4  2 -1</clus>
<clus scale="   88.023">  2  3  1 -1</clus>
<clus scale="   44.612">  1  3  2 -1</clus>
</clustering>
</event>
<event>
 6    0  0.1849053E+002  0.8394610E+02  0.7546771E-02  0.1318212E+00
         21   -1    0    0  504  502  0.00000000000E+00  0.00000000000E+00  0.23009570540E+02  0.23009570540E+02  0.00000000000E+00 0.  1.
          1   -1    0    0  505    0 -0.00000000000E+00 -0.00000000000E+00 -0.32814320242E+04  0.32814320242E+04  0.00000000000E+00 0.  1.
         21    1    1    2  503  502  0.29246940535E+02  0.17953764234E+02 -0.16574266813E+03  0.16925824417E+03  0.00000000000E+00 0.  1.
         21    1    1    2  504  501  0.70081837330E+01 -0.38732931768E+02 -0.17625877285E+02  0.43128020969E+02  0.00000000000E+00 0.  1.
         21    1    1    2  505  503 -0.11718522222E+03  0.26800066135E+02 -0.45096905272E+03  0.46671587327E+03  0.00000000000E+00 0.  1.
          1    1    1    2  501    0  0.80930097949E+02 -0.60208986013E+01 -0.26240848555E+04  0.26253394563E+04  0.00000000000E+00 0.  1.
<scales pt_clust_3="34.31794" pt_clust_4="37.21308" pt_clust_5="14000.00000" pt_clust_6="83.94610"></scales>
<clustering>
<clus scale="   34.318">  1  3  2 -1</clus>
<clus scale="   37.213">  1  4  2 -1</clus>
<clus scale="   83.946">  2  6  1 -1</clus>
<clus scale="   34.318">  1  3  2 -1</clus>
</clustering>
</event>
<event>
 6    0  0.1849053E+002  0.9555091E+02  0.7546771E-02  0.1289940E+00
          2   -1    0    0  503    0 -0.00000000000E+00  0.00000000000E+00  0.13559703859E+04  0.13559703859E+04  0.00000000000E+00 0. -1.
         21   -1    0    0  504  502  0.00000000000E+00 -0.00000000000E+00 -0.55417488747E+02  0.55417488747E+02  0.00000000000E+00 0.  1.
         21    1    1    2  503  505 -0.10004443118E+02  0.28940284227E+02  0.24112192400E+03  0.24305845216E+03  0.00000000000E+00 0.  1.
         21    1    1    2  504  501  0.35624356411E+02 -0.18004624494E+02 -0.25145340903E+02  0.47175729374E+02  0.00000000000E+00 0.  1.
         21    1    1    2  505  502 -0.72196152027E+02 -0.74207864374E+02  0.14429350554E+03  0.17759422075E+03  0.00000000000E+00 0.  1.
          2    1    1    2  501    0  0.46576238734E+02  0.63272204640E+02  0.94028280854E+03  0.94355947239E+03  0.00000000000E+00 0. -1.
<scales pt_clust_3="30.62073" pt_clust_4="39.69885" pt_clust_5="95.55091" pt_clust_6="14000.00000"></scales>
<clustering>
<clus scale="   30.621">  1  3  2 -1</clus>
<clus scale="   39.699">  2  4  1 -1</clus>
<clus scale="   95.551">  2  5  1 -1</clus>
<clus scale="   39.699">  2  3  1 -1</clus>
</clustering>
</event>
<event>
 6    0  0.1849053E+002  0.1516606E+03  0.7546771E-02  0.1198447E+00
         21   -1    0    0  503  502  0.00000000000E+00  0.00000000000E+00  0.16869588740E+03  0.16869588740E+03  0.00000000000E+00 0. -1.
         -1   -1    0    0    0  501 -0.00000000000E+00 -0.00000000000E+00 -0.61349188059E+03  0.61349188059E+03  0.00000000000E+00 0. -1.
         21    1    1    2  503  501  0.16200111564E+03 -0.36633971488E+02  0.38257092054E+02  0.17044064781E+03  0.00000000000E+00 0. -1.
         21    1    1    2  504  502 -0.31409702796E+02 -0.31555085155E+02  0.44631018781E+02  0.63041420244E+02  0.00000000000E+00 0. -1.
         21    1    1    2  505  504 -0.68490554422E+02  0.28731064792E+02 -0.21449387863E+03  0.22698910568E+03  0.00000000000E+00 0. -1.
         -1    1    1    2    0  505 -0.62100858419E+02  0.39457991852E+02 -0.31319022539E+03  0.32171659426E+03  0.00000000000E+00 0. -1.
<scales pt_clust_3="148.58458" pt_clust_4="44.52295" pt_clust_5="30.24741" pt_clust_6="30.24741"></scales>
<clustering>
<clus scale="   30.247">  5  6 -1 -1</clus>
<clus scale="   44.523">  1  4  2 -1</clus>
<clus scale="  148.585">  1  3  2 -1</clus>
<clus scale="   44.523">  1  3  2 -1</clus>
</clustering>
</event>
<event>
 6    0  0.1849053E+002  0.1465692E+03  0.7546771E-02  0.1204753E+00
         21   -1    0    0  505  502  0.00000000000E+00  0.00000000000E+00  0.96296742006E+02  0.96296742006E+02  0.00000000000E+00 0.  1.
          2   -1    0    0  502    0 -0.00000000000E+00 -0.00000000000E+00 -0.38747547584E+03  0.38747547584E+03  0.00000000000E+00 0. -1.
         21    1    1    2  503  504 -0.75661367846E+02  0.14462941050E+02 -0.17045211713E+02  0.78894603685E+02  0.00000000000E+00 0.  1.
         21    1    1    2  504  501  0.29691700086E+02 -0.81818680593E+01 -0.25704537487E+02  0.40115623719E+02  0.00000000000E+00 0. -1.
         21    1    1    2  505  503 -0.55286121310E+02  0.20345423283E+02  0.30852298825E+02  0.66500795490E+02  0.00000000000E+00 0.  1.
          2    1    1    2  501    0  0.10125578907E+03 -0.26626496274E+02 -0.27928128346E+03  0.29826119495E+03  0.00000000000E+00 0. -1.
<scales pt_clust_3="144.73834" pt_clust_4="30.31278" pt_clust_5="44.50828" pt_clust_6="30.31278"></scales>
<clustering>
<clus scale="   30.313">  4  6 -1 -1</clus>
<clus scale="   44.508">  3  5 -1 -1</clus>
<clus scale="  144.738">  1  3  2 -1</clus>
<clus scale="  144.738">  1  3  2 -1</clus>
</clustering>
</event>
<event>
 6    0  0.1849053E+002  0.1260101E+03  0.7546771E-02  0.1233499E+00
         21   -1    0    0  503  502  0.00000000000E+00  0.00000000000E+00  0.24445341842E+03  0.24445341842E+03  0.00000000000E+00 0. -1.
          1   -1    0    0  505    0 -0.00000000000E+00 -0.00000000000E+00 -0.11256948165E+04  0.11256948165E+04  0.00000000000E+00 0.  1.
         21    1    1    2  503  501 -0.12874130036E+03 -0.10153542619E+03  0.15113982554E+03  0.22299554267E+03  0.00000000000E+00 0. -1.
         21    1    1    2  504  502  0.58523889163E+02  0.66570848497E+02  0.17857151520E+02  0.90419031917E+02  0.00000000000E+00 0.  1.
         21    1    1    2  505  504  0.19992997947E+02 -0.28925858521E+02 -0.36633556716E+03  0.36801925632E+03  0.00000000000E+00 0. -1.
          1    1    1    2  501    0  0.50224413249E+02  0.63890436211E+02 -0.68390280799E+03  0.68871440402E+03  0.00000000000E+00 0.  1.
<scales pt_clust_3="14000.00000" pt_clust_4="126.01011" pt_clust_5="35.16284" pt_clust_6="78.03516"></scales>
<clustering>
<clus scale="   35.163">  2  5  1 -1</clus>
<clus scale="   78.035">  2  6  1 -1</clus>
<clus scale="  126.010">  2  4  1 -1</clus>
<clus scale="  126.010">  1  3  2 -1</clus>
</clustering>
</event>
<event>
 6    0  0.1849053E+002  0.1351651E+03  0.7546771E-02  0.1219987E+00
          3   -1    0    0  503    0 -0.00000000000E+00  0.00000000000E+00  0.68033454074E+03  0.68033454074E+03  0.00000000000E+00 0.  1.
         21   -1    0    0  505  502  0.00000000000E+00 -0.00000000000E+00 -0.39806360135E+03  0.39806360135E+03  0.00000000000E+00 0.  1.
         21    1    1    2  503  502 -0.34014735375E+02 -0.26261748429E+02  0.23620510784E+02  0.49036824763E+02  0.00000000000E+00 0.  1.
         21    1    1    2  504  501 -0.24189565936E+02  0.78421810361E+02  0.81219479744E+02  0.11546306479E+03  0.00000000000E+00 0. -1.
         21    1    1    2  505  504  0.72128140749E+02 -0.12347033117E+03 -0.35177516282E+03  0.37972774002E+03  0.00000000000E+00 0.  1.
          3    1    1    2  501    0 -0.13923839439E+02  0.71310269239E+02  0.52920611168E+03  0.53417051252E+03  0.00000000000E+00 0.  1.
<scales pt_clust_3="42.97303" pt_clust_4="14000.00000" pt_clust_5="135.16514" pt_clust_6="65.01947"></scales>
<clustering>
<clus scale="   42.973">  1  3  2 -1</clus>
<clus scale="   65.019">  1  6  2 -1</clus>
<clus scale="  135.165">  2  5  1 -1</clus>
<clus scale="  135.165">  2  3  1 -1</clus>
</clustering>
</event>
<event>
 6    0  0.1849053E+002  0.1303118E+03  0.7546771E-02  0.1226994E+00
         21   -1    0    0  505  502  0.00000000000E+00  0.00000000000E+00  0.76977093158E+02  0.76977093158E+02  0.00000000000E+00 0.  1.
          2   -1    0    0  504    0 -0.00000000000E+00 -0.00000000000E+00 -0.22133042088E+04  0.22133042088E+04  0.00000000000E+00 0. -1.
         21    1    1    2  503  501 -0.45785998627E+02  0.25104951230E+02 -0.81665916755E+03  0.81832683703E+03  0.00000000000E+00 0. -1.
         21    1    1    2  504  502 -0.61096556597E+02  0.12879043123E+02 -0.53564233463E+02  0.82266555090E+02  0.00000000000E+00 0. -1.
         21    1    1    2  505  503  0.17842389650E+03 -0.11546919564E+02 -0.71358807289E+02  0.19251103233E+03  0.00000000000E+00 0.  1.
          2    1    1    2  501    0 -0.71541341273E+02 -0.26437074789E+02 -0.11947449074E+04  0.11971768775E+04  0.00000000000E+00 0. -1.
<scales pt_clust_3="43.32267" pt_clust_4="62.43924" pt_clust_5="119.33058" pt_clust_6="43.32267"></scales>
<clustering>
<clus scale="   43.323">  3  6 -1 -1</clus>
<clus scale="   62.439">  1  4  2 -1</clus>
<clus scale="  119.331">  1  5  2 -1</clus>
<clus scale="   62.439">  1  3  2 -1</clus>
</clustering>
</event>
<event>
 6    0  0.1849053E+002  0.7857987E+02  0.7546771E-02  0.1333131E+00
         21   -1    0    0  503  502  0.00000000000E+00  0.00000000000E+00  0.67466406194E+02  0.67466406194E+02  0.00000000000E+00 0. -1.
          2   -1    0    0  504    0 -0.00000000000E+00 -0.00000000000E+00 -0.83647510967E+03  0.83647510967E+03  0.00000000000E+00 0. -1.
         21    1    1    2  503  501 -0.46596628235E+02  0.54210523848E+02 -0.17823234173E+03  0.19203331559E+03  0.00000000000E+00 0. -1.
         21    1    1    2  504  505  0.53553544217E+02 -0.99851075165E+01 -0.11049221438E+03  0.12319177695E+03  0.00000000000E+00 0. -1.
         21    1    1    2  505  502  0.69424307112E+02 -0.40486214813E+02  0.19839711477E+02  0.82779720702E+02  0.00000000000E+00 0. -1.
          2    1    1    2  501    0 -0.76381223095E+02 -0.37392015185E+01 -0.50012385885E+03  0.50593670262E+03  0.00000000000E+00 0. -1.
<scales pt_clust_3="78.57987" pt_clust_4="54.47646" pt_clust_5="14000.00000" pt_clust_6="40.39489"></scales>
<clustering>
<clus scale="   54.476">  2  4  1 -1</clus>
<clus scale="   40.395">  2  6  1 -1</clus>
<clus scale="   78.580">  2  3  1 -1</clus>
<clus scale="   78.580">  1  3  2 -1</clus>
</clustering>
</event>
<event>
 6    0  0.1849053E+002  0.1268532E+03  0.7546771E-02  0.1232201E+00
          1   -1    0    0  505    0 -0.00000000000E+00  0.00000000000E+00  0.11865261509E+04  0.11865261509E+04  0.00000000000E+00 0.  1.
         21   -1    0    0  503  502  0.00000000000E+00 -0.00000000000E+00 -0.44573734775E+02  0.44573734775E+02  0.00000000000E+00 0.  1.
         21    1    1    2  503  504  0.65353267905E+02  0.67905094547E+02  0.11435918349E+03  0.14818965666E+03  0.00000000000E+00 0.  1.
         21    1    1    2  504  501  0.50642459619E+02  0.17444323494E+02  0.97062101659E+02  0.11086033879E+03  0.00000000000E+00 0.  1.
         21    1    1    2  505  502 -0.20764218607E+02 -0.11513318664E+03  0.17846183634E+03  0.21339032421E+03  0.00000000000E+00 0.  1.
          1    1    1    2  501    0 -0.95231508916E+02  0.29783768599E+02  0.75206929464E+03  0.75865956602E+03  0.00000000000E+00 0.  1.
<scales pt_clust_3="30.79306" pt_clust_4="30.79306" pt_clust_5="120.09715" pt_clust_6="99.78032"></scales>
<clustering>
<clus scale="   30.793">  3  4 -1 -1</clus>
<clus scale="   99.780">  1  6  2 -1</clus>
<clus scale="  120.097">  2  5  1 -1</clus>
<clus scale="  120.097">  2  3  1 -1</clus>
</clustering>
</event>
<event>
 6    0  0.1849053E+002  0.1120568E+03  0.7546771E-02  0.1256808E+00
         -3   -1    0    0    0  501 -0.00000000000E+00  0.00000000000E+00  0.18236235628E+04  0.18236235628E+04  0.00000000000E+00 0. -1.
         21   -1    0    0  505  502  0.00000000000E+00 -0.00000000000E+00 -0.27759628028E+02  0.27759628028E+02  0.00000000000E+00 0. -1.
         21    1    1    2  503  504  0.52979230687E+02 -0.48476143366E+01  0.60260094326E+02  0.80383936312E+02  0.00000000000E+00 0. -1.
         21    1    1    2  504  502  0.55370619685E+02  0.28935217370E+02  0.62798455769E+02  0.88582156079E+02  0.00000000000E+00 0. -1.
         21    1    1    2  505  501 -0.51398456219E+02  0.48987421635E+02  0.40068893830E+03  0.40693143655E+03  0.00000000000E+00 0.  1.
         -3    1    1    2    0  503 -0.56951394153E+02 -0.73075024668E+02  0.12721164464E+04  0.12754856619E+04  0.00000000000E+00 0. -1.
<scales pt_clust_3="30.41342" pt_clust_4="30.41342" pt_clust_5="71.00401" pt_clust_6="107.10040"></scales>
<clustering>
<clus scale="   30.413">  3  4 -1 -1</clus>
<clus scale="   71.004">  1  5  2 -1</clus>
<clus scale="  107.100">  1  6  2 -1</clus>
<clus scale="  112.057">  2  3  1 -1</clus>
</clustering>
</event>
<event>
 6    0  0.1849053E+002  0.7692348E+02  0.7546771E-02  0.1338016E+00
          1   -1    0    0  503    0 -0.00000000000E+00  0.00000000000E+00  0.69714460165E+03  0.69714460165E+03  0.00000000000E+00 0. -1.
         21   -1    0    0  504  502  0.00000000000E+00 -0.00000000000E+00 -0.99043241238E+03  0.99043241238E+03  0.00000000000E+00 0.  1.
         21    1    1    2  503  505  0.12130205838E+00  0.37622353932E+02  0.21700437893E+03  0.22024158714E+03  0.00000000000E+00 0.  1.
         21    1    1    2  504  501  0.11643209887E+03 -0.89805222774E+01 -0.74503735655E+03  0.75413377201E+03  0.00000000000E+00 0.  1.
         21    1    1    2  505  502 -0.55777299826E+02 -0.38822693430E+02 -0.23233707567E+03  0.24207194268E+03  0.00000000000E+00 0. -1.
          1    1    1    2  501    0 -0.60776101101E+02  0.10180861776E+02  0.46708224256E+03  0.47112971221E+03  0.00000000000E+00 0. -1.
<scales pt_clust_3="37.62255" pt_clust_4="14000.00000" pt_clust_5="67.73923" pt_clust_6="76.92348"></scales>
<clustering>
<clus scale="   37.623">  1  3  2 -1</clus>
<clus scale="   67.739">  2  5  1 -1</clus>
<clus scale="   76.923">  1  6  2 -1</clus>
<clus scale="   67.739">  2  3  1 -1</clus>
</clustering>
</event>
<event>
 6    0  0.1849053E+002  0.8359005E+02  0.7546771E-02  0.1319161E+00
          1   -1    0    0  505    0 -0.00000000000E+00  0.00000000000E+00  0.10615171043E+04  0.10615171043E+04  0.00000000000E+00 0.  1.
         21   -1    0    0  504  502  0.00000000000E+00 -0.00000000000E+00 -0.38586388130E+02  0.38586388130E+02  0.00000000000E+00 0. -1.
         21    1    1    2  503  501 -0.38947789885E+02 -0.49115170824E+02  0.36097642514E+03  0.36637850626E+03  0.00000000000E+00 0.  1.
         21    1    1    2  504  503  0.97944957162E+02 -0.48306225829E+02  0.11525994019E+03  0.15878148476E+03  0.00000000000E+00 0. -1.
         21    1    1    2  505  502 -0.11377756058E+02  0.79602639260E+02  0.11534313590E+03  0.14060608987E+03  0.00000000000E+00 0. -1.
          1    1    1    2  501    0 -0.47619411219E+02  0.17818757393E+02  0.43135121494E+03  0.43433741155E+03  0.00000000000E+00 0.  1.
<scales pt_clust_3="76.99075" pt_clust_4="83.59005" pt_clust_5="14000.00000" pt_clust_6="50.84404"></scales>
<clustering>
<clus scale="   50.844">  1  6  2 -1</clus>
<clus scale="   76.991">  1  3  2 -1</clus>
<clus scale="   83.590">  1  4  2 -1</clus>
<clus scale="   83.590">  2  3  1 -1</clus>
</clustering>
</event>
<event>
 6    0  0.1849053E+002  0.2112971E+03  0.7546771E-02  0.1140543E+00
         21   -1    0    0  503  502  0.00000000000E+00  0.00000000000E+00  0.36718485274E+03  0.36718485274E+03  0.00000000000E+00 0. -1.
          2   -1    0    0  505    0 -0.00000000000E+00 -0.00000000000E+00 -0.45298359910E+03  0.45298359910E+03  0.00000000000E+00 0.  1.
         21    1    1    2  503  504 -0.12985870256E+03  0.27383410777E+02  0.14907201339E+03  0.19958857430E+03  0.00000000000E+00 0. -1.
         21    1    1    2  504  501 -0.23688919893E+02 -0.10733869124E+03 -0.21083145279E+03  0.23776597959E+03  0.00000000000E+00 0.  1.
         21    1    1    2  505  502  0.22180059891E+03  0.13265497714E+03  0.56805445377E+02  0.26461237171E+03  0.00000000000E+00 0. -1.
          2    1    1    2  501    0 -0.68252976458E+02 -0.52699696676E+02 -0.80844752344E+02  0.11820152624E+03  0.00000000000E+00 0.  1.
<scales pt_clust_3="132.71448" pt_clust_4="77.07296" pt_clust_5="192.54667" pt_clust_6="77.07296"></scales>
<clustering>
<clus scale="   77.073">  4  6 -1 -1</clus>
<clus scale="  132.714">  1  3  2 -1</clus>
<clus scale="  192.547">  1  5  2 -1</clus>
<clus scale="  132.714">  1  3  2 -1</clus>
</clustering>
</event>
<event>
 6    0  0.1849053E+002  0.1468647E+03  0.7546771E-02  0.1204379E+00
         21   -1    0    0  503  502  0.00000000000E+00  0.00000000000E+00  0.12353729527E+03  0.12353729527E+03  0.00000000000E+00 0.  1.
          1   -1    0    0  504    0 -0.00000000000E+00 -0.00000000000E+00 -0.20309157607E+04  0.20309157607E+04  0.00000000000E+00 0.  1.
         21    1    1    2  503  501 -0.11236724736E+03 -0.14896612715E+02  0.72943323109E+02  0.13479256558E+03  0.00000000000E+00 0.  1.
         21    1    1    2  504  505  0.10893202565E+03  0.44538523822E+02 -0.67783368032E+03  0.68797410162E+03  0.00000000000E+00 0.  1.
         21    1    1    2  505  502 -0.40904248307E+02  0.39275553887E+01 -0.16158596546E+02  0.44155220113E+02  0.00000000000E+00 0.  1.
          1    1    1    2  501    0  0.44339470020E+02 -0.33569466496E+02 -0.12863295117E+04  0.12875311687E+04  0.00000000000E+00 0.  1.
<scales pt_clust_3="14000.00000" pt_clust_4="146.86466" pt_clust_5="41.09237" pt_clust_6="55.42207"></scales>
<clustering>
<clus scale="   41.092">  1  5  2 -1</clus>
<clus scale="   55.422">  2  6  1 -1</clus>
<clus scale="  146.865">  2  4  1 -1</clus>
<clus scale="   41.092">  1  3  2 -1</clus>
</clustering>
</event>
<event>
 6    0  0.1849053E+002  0.1467170E+03  0.7546771E-02  0.1204566E+00
         21   -1    0    0  503  502  0.00000000000E+00  0.00000000000E+00  0.20549851911E+02  0.20549851911E+02  0.00000000000E+00 0. -1.
          2   -1    0    0  505    0 -0.00000000000E+00 -0.00000000000E+00 -0.20241053272E+04  0.20241053272E+04  0.00000000000E+00 0. -1.
         21    1    1    2  503  501 -0.36508318418E+02 -0.34662497505E+02 -0.12717508182E+03  0.13677663354E+03  0.00000000000E+00 0. -1.
         21    1    1    2  504  502  0.85737512383E+02  0.25646839246E+02 -0.22345572091E+03  0.24070966038E+03  0.00000000000E+00 0. -1.
         21    1    1    2  505  504  0.73175135266E+02 -0.19507221856E+02 -0.34471274929E+03  0.35293343799E+03  0.00000000000E+00 0. -1.
          2    1    1    2  501    0 -0.12240432923E+03  0.28522880115E+02 -0.13082119232E+04  0.13142354472E+04  0.00000000000E+00 0. -1.
<scales pt_clust_3="50.34229" pt_clust_4="63.86291" pt_clust_5="63.86291" pt_clust_6="131.22532"></scales>
<clustering>
<clus scale="   50.342">  1  3  2 -1</clus>
<clus scale="   63.863">  4  5 -1 -1</clus>
<clus scale="  131.225">  2  6  1 -1</clus>
<clus scale="   50.342">  1  3  2 -1</clus>
</clustering>
</event>
<event>
 6    0  0.1849053E+002  0.1393009E+03  0.7546771E-02  0.1214273E+00
         -1   -1    0    0    0  501 -0.00000000000E+00  0.00000000000E+00  0.88834849809E+03  0.88834849809E+03  0.00000000000E+00 0.  1.
         21   -1    0    0  503  502  0.00000000000E+00 -0.00000000000E+00 -0.80868722929E+03  0.80868722929E+03  0.00000000000E+00 0.  1.
         21    1    1    2  503  505 -0.44780217534E+02 -0.78511021550E+02 -0.38947585360E+03  0.39982582323E+03  0.00000000000E+00 0.  1.
         21    1    1    2  504  501  0.68115412510E+02 -0.36270424041E+02  0.12589975578E+03  0.14766855314E+03  0.00000000000E+00 0.  1.
         21    1    1    2  505  504 -0.58544804987E+01 -0.38572431670E+02 -0.39419931057E+03  0.39612523762E+03  0.00000000000E+00 0.  1.
         -1    1    1    2    0  502 -0.17480714477E+02  0.15335387726E+03  0.73743667719E+03  0.75341611339E+03  0.00000000000E+00 0.  1.
<scales pt_clust_3="36.69171" pt_clust_4="77.17029" pt_clust_5="36.69171" pt_clust_6="127.61596"></scales>
<clustering>
<clus scale="   36.692">  3  5 -1 -1</clus>
<clus scale="   77.170">  1  4  2 -1</clus>
<clus scale="  127.616">  1  6  2 -1</clus>
<clus scale="  139.301">  2  3  1 -1</clus>
</clustering>
</event>
<event>
 6    0  0.1849053E+002  0.2509071E+03  0.7546771E-02  0.1112733E+00
          1   -1    0    0  504    0 -0.00000000000E+00  0.00000000000E+00  0.50515174172E+03  0.50515174172E+03  0.00000000000E+00 0. -1.
         21   -1    0    0  505  502  0.00000000000E+00 -0.00000000000E+00 -0.65489915853E+03  0.65489915853E+03  0.00000000000E+00 0. -1.
         21    1    1    2  503  502  0.43092431374E+02  0.35573045032E+02 -0.10568758734E+03  0.11955026262E+03  0.00000000000E+00 0. -1.
         21    1    1    2  504  503  0.42783166621E+01 -0.36392105904E+02  0.20522995407E+02  0.41998603620E+02  0.00000000000E+00 0. -1.
         21    1    1    2  505  501  0.93433315848E+02 -0.24200667776E+03 -0.45136313214E+03  0.52060128088E+03  0.00000000000E+00 0. -1.
          1    1    1    2  501    0 -0.14080406388E+03  0.24282573864E+03  0.38678030727E+03  0.47790075313E+03  0.00000000000E+00 0. -1.
<scales pt_clust_3="55.58965" pt_clust_4="36.64273" pt_clust_5="14000.00000" pt_clust_6="250.90715"></scales>
<clustering>
<clus scale="   36.643">  1  4  2 -1</clus>
<clus scale="   55.590">  2  3  1 -1</clus>
<clus scale="  250.907">  1  6  2 -1</clus>
<clus scale="   55.590">  2  3  1 -1</clus>
</clustering>
</event>
<event>
 6    0  0.1849053E+002  0.1552147E+03  0.7546771E-02  0.1194208E+00
          2   -1    0    0  503    0 -0.00000000000E+00  0.00000000000E+00  0.14753569040E+04  0.14753569040E+04  0.00000000000E+00 0. -1.
         21   -1    0    0  504  502  0.00000000000E+00 -0.00000000000E+00 -0.17749492572E+02  0.17749492572E+02  0.00000000000E+00 0. -1.
         21    1    1    2  503  505 -0.73524761946E+02 -0.26816915167E+02  0.20347645964E+03  0.21800850256E+03  0.00000000000E+00 0. -1.
         21    1    1    2  504  501  0.87051339768E+02 -0.18652045939E-01  0.41518146932E+03  0.42420936879E+03  0.00000000000E+00 0. -1.
         21    1    1    2  505  502 -0.64473906511E+02  0.35062592760E+01  0.21654170773E+03  0.22596346975E+03  0.00000000000E+00 0. -1.
          2    1    1    2  501    0  0.50947328690E+02  0.23329307937E+02  0.62240777476E+03  0.62492505550E+03  0.00000000000E+00 0. -1.
<scales pt_clust_3="143.86053" pt_clust_4="53.84780" pt_clust_5="30.24603" pt_clust_6="53.84780"></scales>
<clustering>
<clus scale="   30.246">  3  5 -1 -1</clus>
<clus scale="   53.848">  4  6 -1 -1</clus>
<clus scale="  143.861">  2  3  1 -1</clus>
<clus scale="  143.861">  2  3  1 -1</clus>
</clustering>
</event>
<event>
 6    0  0.1849053E+002  0.1930853E+03  0.7546771E-02  0.1155708E+00
         -2   -1    0    0    0  501 -0.00000000000E+00  0.00000000000E+00  0.14041770562E+04  0.14041770562E+04  0.00000000000E+00 0.  1.
         21   -1    0    0  503  502  0.00000000000E+00 -0.00000000000E+00 -0.76025581569E+02  0.76025581569E+02  0.00000000000E+00 0.  1.
         21    1    1    2  503  501 -0.42751510745E+02 -0.33824321073E+02  0.13663118043E+03  0.14710491437E+03  0.00000000000E+00 0. -1.
         21    1    1    2  504  505  0.13987738477E+03 -0.68811992425E+02  0.52271563078E+03  0.54546530938E+03  0.00000000000E+00 0.  1.
         21    1    1    2  505  502 -0.20361502361E+03  0.46417348594E+02  0.15544782879E+03  0.26034145956E+03  0.00000000000E+00 0.  1.
         -2    1    1    2    0  504  0.10648914958E+03  0.56218964904E+02  0.51335683466E+03  0.52729095449E+03  0.00000000000E+00 0.  1.
<scales pt_clust_3="54.51400" pt_clust_4="14000.00000" pt_clust_5="193.08535" pt_clust_6="98.41061"></scales>
<clustering>
<clus scale="   54.514">  1  3  2 -1</clus>
<clus scale="   98.411">  1  6  2 -1</clus>
<clus scale="  193.085">  2  5  1 -1</clus>
<clus scale="  193.085">  2  3  1 -1</clus>
</clustering>
</event>
<event>
 6    0  0.1849053E+002  0.2561424E+03  0.7546771E-02  0.1109483E+00
         -3   -1    0    0    0  501 -0.00000000000E+00  0.00000000000E+00  0.48935362709E+03  0.48935362709E+03  0.00000000000E+00 0.  1.
         21   -1    0    0  504  502  0.00000000000E+00 -0.00000000000E+00 -0.38846897599E+03  0.38846897599E+03  0.00000000000E+00 0.  1.
         21    1    1    2  503  501  0.32420466166E+02  0.50089946752E+01  0.19785474934E+02  0.38309811699E+02  0.00000000000E+00 0. -1.
         21    1    1    2  504  505 -0.22022805621E+02 -0.75288469358E+02 -0.13600350714E+03  0.15700417683E+03  0.00000000000E+00 0.  1.
         21    1    1    2  505  503 -0.26835271449E+02 -0.17023850817E+03 -0.15984827596E+03  0.23505904106E+03  0.00000000000E+00 0.  1.
         -3    1    1    2    0  502  0.16437610904E+02  0.24051798286E+03  0.37695095926E+03  0.44744957349E+03  0.00000000000E+00 0.  1.
<scales pt_clust_3="32.80513" pt_clust_4="40.00945" pt_clust_5="40.00945" pt_clust_6="249.18712"></scales>
<clustering>
<clus scale="   32.805">  1  3  2 -1</clus>
<clus scale="   40.009">  4  5 -1 -1</clus>
<clus scale="  249.187">  1  6  2 -1</clus>
<clus scale="  256.142">  2  3  1 -1</clus>
</clustering>
</event>
<event>
 6    0  0.1849053E+002  0.8981757E+02  0.7546771E-02  0.1303294E+00
          1   -1    0    0  504    0 -0.00000000000E+00  0.00000000000E+00  0.24800425643E+03  0.24800425643E+03  0.00000000000E+00 0.  1.
         21   -1    0    0  503  502  0.00000000000E+00 -0.00000000000E+00 -0.37634268556E+03  0.37634268556E+03  0.00000000000E+00 0. -1.
         21    1    1    2  503  501  0.10906229800E+01 -0.35353532497E+02 -0.89461992484E+02  0.96200362877E+02  0.00000000000E+00 0. -1.
         21    1    1    2  504  505 -0.34109947989E+02  0.25101633905E+02  0.45709333275E+02  0.62313110378E+02  0.00000000000E+00 0. -1.
         21    1    1    2  505  502 -0.88356580769E+02  0.21890265793E+02 -0.24671394826E+03  0.26297117972E+03  0.00000000000E+00 0. -1.
          1    1    1    2  501    0  0.12137590578E+03 -0.11638367201E+02  0.16212817833E+03  0.20286228901E+03  0.00000000000E+00 0.  1.
<scales pt_clust_3="35.37035" pt_clust_4="41.71933" pt_clust_5="89.81757" pt_clust_6="14000.00000"></scales>
<clustering>
<clus scale="   35.370">  2  3  1 -1</clus>
<clus scale="   41.719">  1  4  2 -1</clus>
<clus scale="   89.818">  2  5  1 -1</clus>
<clus scale="   35.370">  2  3  1 -1</clus>
</clustering>
</event>
<event>
 6    0  0.1849053E+002  0.9070761E+02  0.7546771E-02  0.1301147E+00
          2   -1    0    0  504    0 -0.00000000000E+00  0.00000000000E+00  0.18310405330E+04  0.18310405330E+04  0.00000000000E+00 0. -1.
         21   -1    0    0  505  502  0.00000000000E+00 -0.00000000000E+00 -0.62420987201E+02  0.62420987201E+02  0.00000000000E+00 0. -1.
         21    1    1    2  503  502 -0.47812794854E+02  0.50154590528E+02  0.22942092158E+01  0.69331159652E+02  0.00000000000E+00 0. -1.
         21    1    1    2  504  503 -0.73737743161E+02 -0.13618733074E+03  0.28811735167E+03  0.32710220445E+03  0.00000000000E+00 0. -1.
         21    1    1    2  505  501  0.36711922541E+02  0.59688449588E+02  0.14688054106E+03  0.16274019053E+03  0.00000000000E+00 0. -1.
          2    1    1    2  501    0  0.84838615474E+02  0.26344290623E+02  0.13313274439E+04  0.13342879656E+04  0.00000000000E+00 0. -1.
<scales pt_clust_3="69.29319" pt_clust_4="90.70761" pt_clust_5="77.14555" pt_clust_6="14000.00000"></scales>
<clustering>
<clus scale="   69.293">  2  3  1 -1</clus>
<clus scale="   77.146">  2  5  1 -1</clus>
<clus scale="   90.708">  2  4  1 -1</clus>
<clus scale="   69.293">  2  3  1 -1</clus>
</clustering>
</event>
<event>
 6    0  0.1849053E+002  0.1678957E+03  0.7546771E-02  0.1180060E+00
         21   -1    0    0  501  502  0.00000000000E+00  0.00000000000E+00  0.11713096507E+04  0.11713096507E+04  0.00000000000E+00 0. -1.
          2   -1    0    0  505    0 -0.00000000000E+00 -0.00000000000E+00 -0.55333594212E+03  0.55333594212E+03  0.00000000000E+00 0. -1.
         21    1    1    2  503  504 -0.62336458882E+01 -0.50677049973E+02  0.26116796347E+03  0.26611224488E+03  0.00000000000E+00 0. -1.
         21    1    1    2  504  502 -0.94979932062E+02 -0.63923331264E+02  0.89001190372E+03  0.89734528947E+03  0.00000000000E+00 0. -1.
         21    1    1    2  505  503  0.41490452377E+02  0.38926234154E+02 -0.82031761301E+02  0.99829450595E+02  0.00000000000E+00 0. -1.
          2    1    1    2  501    0  0.59723125574E+02  0.75674147083E+02 -0.45117439730E+03  0.46135860786E+03  0.00000000000E+00 0. -1.
<scales pt_clust_3="47.41456" pt_clust_4="47.41456" pt_clust_5="56.89209" pt_clust_6="152.14486"></scales>
<clustering>
<clus scale="   47.415">  3  4 -1 -1</clus>
<clus scale="   56.892">  2  5  1 -1</clus>
<clus scale="  152.145">  2  6  1 -1</clus>
<clus scale="  167.896">  1  3  2 -1</clus>
</clustering>
</event>
<event>
 6    0  0.1849053E+002  0.8650734E+02  0.7546771E-02  0.1311537E+00
          1   -1    0    0  503    0 -0.00000000000E+00  0.00000000000E+00  0.51119580781E+03  0.51119580781E+03  0.00000000000E+00 0.  1.
         21   -1    0    0  505  502  0.00000000000E+00 -0.00000000000E+00 -0.45969328181E+02  0.45969328181E+02  0.00000000000E+00 0. -1.
         21    1    1    2  503  502 -0.38282584070E+02 -0.94617543999E+01  0.11186829327E+03  0.11861532818E+03  0.00000000000E+00 0. -1.
         21    1    1    2  504  501  0.39990679766E+02  0.64975366786E+02  0.96048826919E+02  0.12266389000E+03  0.00000000000E+00 0.  1.
         21    1    1    2  505  504 -0.40270522463E+02 -0.85704678726E+02  0.58891724337E+02  0.11151341682E+03  0.00000000000E+00 0. -1.
          1    1    1    2  501    0  0.38562426766E+02  0.30191066340E+02  0.19841763509E+03  0.20437250099E+03  0.00000000000E+00 0.  1.
<scales pt_clust_3="39.43452" pt_clust_4="14000.00000" pt_clust_5="86.50734" pt_clust_6="31.75724"></scales>
<clustering>
<clus scale="   39.435">  1  3  2 -1</clus>
<clus scale="   31.757">  1  6  2 -1</clus>
<clus scale="   86.507">  2  5  1 -1</clus>
<clus scale="   86.507">  2  3  1 -1</clus>
</clustering>
</event>
<event>
 6    0  0.1849053E+002  0.1475176E+03  0.7546771E-02  0.1203557E+00
         21   -1    0    0  505  502  0.00000000000E+00  0.00000000000E+00  0.85816866255E+02  0.85816866255E+02  0.00000000000E+00 0. -1.
         -1   -1    0    0    0  501 -0.00000000000E+00 -0.00000000000E+00 -0.43454840105E+03  0.43454840105E+03  0.00000000000E+00 0. -1.
         21    1    1    2  503  504 -0.53312991604E+02  0.16478550406E+02 -0.31513585766E+02  0.64085285246E+02  0.00000000000E+00 0.  1.
         21    1    1    2  504  502  0.89191185111E+02 -0.29387341588E+02 -0.60390360848E+02  0.11164980533E+03  0.00000000000E+00 0. -1.
         21    1    1    2  505  501  0.74509511528E+02  0.70001998862E+02 -0.87351557206E+02  0.13447022607E+03  0.00000000000E+00 0. -1.
         -1    1    1    2    0  503 -0.11038770504E+03 -0.57093207680E+02 -0.16947603098E+03  0.21015995066E+03  0.00000000000E+00 0. -1.
<scales pt_clust_3="53.46436" pt_clust_4="93.90784" pt_clust_5="124.07775" pt_clust_6="53.46436"></scales>
<clustering>
<clus scale="   53.464">  3  6 -1 -1</clus>
<clus scale="   93.908">  1  4  2 -1</clus>
<clus scale="  124.078">  2  5  1 -1</clus>
<clus scale="   93.908">  1  3  2 -1</clus>
</clustering>
</event>
<event>
 6    0  0.1849053E+002  0.7762739E+02  0.7546771E-02  0.1335923E+00
          1   -1    0    0  505    0 -0.00000000000E+00  0.00000000000E+00  0.73967512643E+03  0.73967512643E+03  0.00000000000E+00 0.  1.
         21   -1    0    0  504  502  0.00000000000E+00 -0.00000000000E+00 -0.65838836801E+02  0.65838836801E+02  0.00000000000E+00 0. -1.
         21    1    1    2  503  502  0.30157181138E+02  0.76773193752E+02 -0.15728011781E+02  0.83969930378E+02  0.00000000000E+00 0. -1.
         21    1    1    2  504  501 -0.47000581343E+02 -0.47024462679E+02  0.99478263971E+02  0.11965065708E+03  0.00000000000E+00 0. -1.
         21    1    1    2  505  503  0.43648902795E+02  0.29429930940E+02  0.30390699134E+03  0.30843282402E+03  0.00000000000E+00 0.  1.
          1    1    1    2  501    0 -0.26805502590E+02 -0.59178662013E+02  0.28617904611E+03  0.29346055176E+03  0.00000000000E+00 0.  1.
<scales pt_clust_3="14000.00000" pt_clust_4="77.62739" pt_clust_5="52.64359" pt_clust_6="39.57468"></scales>
<clustering>
<clus scale="   52.644">  1  5  2 -1</clus>
<clus scale="   39.575">  1  6  2 -1</clus>
<clus scale="   77.627">  1  4  2 -1</clus>
<clus scale="   77.627">  2  3  1 -1</clus>
</clustering>
</event>
<event>
 6    0  0.1849053E+002  0.1530757E+03  0.7546771E-02  0.1196744E+00
         21   -1    0    0  501  502  0.00000000000E+00  0.00000000000E+00  0.25994153395E+03  0.25994153395E+03  0.00000000000E+00 0.  1.
         -2   -1    0    0    0  501 -0.00000000000E+00 -0.00000000000E+00 -0.21266165489E+03  0.21266165489E+03  0.00000000000E+00 0.  1.
         21    1    1    2  503  502  0.92368913476E+02 -0.14369399854E+02  0.16316040527E+03  0.18804205295E+03  0.00000000000E+00 0.  1.
         21    1    1    2  504  505 -0.78633319948E+02  0.17613772982E+02 -0.72607734949E+02  0.10846809291E+03  0.00000000000E+00 0. -1.
         21    1    1    2  505  503  0.52416658241E+02  0.97357260355E+01  0.41658647938E+02  0.67658948932E+02  0.00000000000E+00 0. -1.
         -2    1    1    2    0  504 -0.66152251769E+02 -0.12980099163E+02 -0.84931439196E+02  0.10843409405E+03  0.00000000000E+00 0.  1.
<scales pt_clust_3="37.36355" pt_clust_4="32.25534" pt_clust_5="37.36355" pt_clust_6="149.09047"></scales>
<clustering>
<clus scale="   32.255">  4  6 -1 -1</clus>
<clus scale="   37.364">  3  5 -1 -1</clus>
<clus scale="  149.090">  2  4  1 -1</clus>
<clus scale="  153.076">  1  3  2 -1</clus>
</clustering>
</event>
<event>
 6    0  0.1849053E+002  0.1252270E+03  0.7546771E-02  0.1234715E+00
         21   -1    0    0  504  502  0.00000000000E+00  0.00000000000E+00  0.76308004835E+03  0.76308004835E+03  0.00000000000E+00 0.  1.
          2   -1    0    0  505    0 -0.00000000000E+00 -0.00000000000E+00 -0.32399141614E+04  0.32399141614E+04  0.00000000000E+00 0. -1.
         21    1    1    2  503  501  0.69917719205E+02 -0.47379735550E+02 -0.93081283885E+03  0.93463675713E+03  0.00000000000E+00 0.  1.
         21    1    1    2  504  503  0.19554050510E+02  0.14301023423E+03  0.69934028939E+03  0.71408061754E+03  0.00000000000E+00 0.  1.
         21    1    1    2  505  502 -0.71314187651E+02 -0.26799453620E+02  0.26980523597E+02  0.80820002030E+02  0.00000000000E+00 0. -1.
          2    1    1    2  501    0 -0.18157582063E+02 -0.68831045064E+02 -0.22723420872E+04  0.22734568330E+04  0.00000000000E+00 0. -1.
<scales pt_clust_3="125.22701" pt_clust_4="14000.00000" pt_clust_5="77.34757" pt_clust_6="71.18575"></scales>
<clustering>
<clus scale="   71.186">  2  6  1 -1</clus>
<clus scale="   77.348">  1  5  2 -1</clus>
<clus scale="  125.227">  2  3  1 -1</clus>
<clus scale="   77.348">  1  3  2 -1</clus>
</clustering>
</event>
<event>
 6    0  0.1849053E+002  0.1130145E+03  0.7546771E-02  0.1255087E+00
         21   -1    0    0  504  502  0.00000000000E+00  0.00000000000E+00  0.28462903503E+02  0.28462903503E+02  0.00000000000E+00 0. -1.
          2   -1    0    0  505    0 -0.00000000000E+00 -0.00000000000E+00 -0.71396891940E+03  0.71396891940E+03  0.00000000000E+00 0. -1.
         21    1    1    2  503  502  0.30164875523E+02  0.94593893981E+02 -0.13256638952E+03  0.16562539698E+03  0.00000000000E+00 0. -1.
         21    1    1    2  504  501 -0.38136281789E+02 -0.43281151907E+02 -0.12444834881E+03  0.13716787387E+03  0.00000000000E+00 0. -1.
         21    1    1    2  505  503  0.37277812332E+02  0.18280528840E+01 -0.14518862443E+03  0.14990901818E+03  0.00000000000E+00 0.  1.
          2    1    1    2  501    0 -0.29306406066E+02 -0.53140794957E+02 -0.28330265313E+03  0.28972953387E+03  0.00000000000E+00 0. -1.
<scales pt_clust_3="103.13805" pt_clust_4="45.67791" pt_clust_5="37.32261" pt_clust_6="45.67791"></scales>
<clustering>
<clus scale="   37.323">  2  5  1 -1</clus>
<clus scale="   45.678">  4  6 -1 -1</clus>
<clus scale="  103.138">  1  3  2 -1</clus>
<clus scale="  103.138">  1  3  2 -1</clus>
</clustering>
</event>
<event>
 6    0  0.1849053E+002  0.9117107E+02  0.7546771E-02  0.1300040E+00
         21   -1    0    0  503  502  0.00000000000E+00  0.00000000000E+00  0.19154931295E+03  0.19154931295E+03  0.00000000000E+00 0.  1.
          2   -1    0    0  504    0 -0.00000000000E+00 -0.00000000000E+00 -0.33979364042E+04  0.33979364042E+04  0.00000000000E+00 0.  1.
         21    1    1    2  503  501  0.68638914514E+02 -0.80717144727E+02  0.14108047568E+03  0.17643769058E+03  0.00000000000E+00 0.  1.
         21    1    1    2  504  505  0.33198377646E+02  0.67207934602E+01 -0.36219135810E+03  0.36377174330E+03  0.00000000000E+00 0. -1.
         21    1    1    2  505  502 -0.24131392740E+02  0.60783077589E+02 -0.24865000273E+01  0.65445315487E+02  0.00000000000E+00 0.  1.
          2    1    1    2  501    0 -0.77705899420E+02  0.13213273677E+02 -0.29827897088E+04  0.29838309678E+04  0.00000000000E+00 0.  1.
<scales pt_clust_3="14000.00000" pt_clust_4="33.87184" pt_clust_5="91.17107" pt_clust_6="49.23765"></scales>
<clustering>
<clus scale="   33.872">  2  4  1 -1</clus>
<clus scale="   49.238">  2  6  1 -1</clus>
<clus scale="   91.171">  2  5  1 -1</clus>
<clus scale="   91.171">  1  3  2 -1</clus>
</clustering>
</event>
<event>
 6    0  0.1849053E+002  0.1964866E+03  0.7546771E-02  0.1152738E+00
          3   -1    0    0  504    0 -0.00000000000E+00  0.00000000000E+00  0.14997351549E+03  0.14997351549E+03  0.00000000000E+00 0.  1.
         21   -1    0    0  503  502  0.00000000000E+00 -0.00000000000E+00 -0.71284539749E+03  0.71284539749E+03  0.00000000000E+00 0. -1.
         21    1    1    2  503  501 -0.60988797201E+01  0.14414127831E+03  0.20933512032E+02  0.14578105629E+03  0.00000000000E+00 0.  1.
         21    1    1    2  504  505  0.18644769849E+02 -0.63993902535E+02 -0.17482366431E+03  0.18709933353E+03  0.00000000000E+00 0. -1.
         21    1    1    2  505  502 -0.10390692181E+02 -0.12287899062E+03 -0.45244481352E+03  0.46894938117E+03  0.00000000000E+00 0. -1.
          3    1    1    2  501    0 -0.21551979480E+01  0.42731614844E+02  0.43463083805E+02  0.60989141978E+02  0.00000000000E+00 0.  1.
<scales pt_clust_3="32.75363" pt_clust_4="32.42008" pt_clust_5="192.18265" pt_clust_6="32.75363"></scales>
<clustering>
<clus scale="   32.420">  4  5 -1 -1</clus>
<clus scale="   32.754">  3  6 -1 -1</clus>
<clus scale="  192.183">  2  4  1 -1</clus>
<clus scale="  192.183">  2  3  1 -1</clus>
</clustering>
</event>
<event>
 6    0  0.1849053E+002  0.6542509E+02  0.7546771E-02  0.1376380E+00
          1   -1    0    0  503    0 -0.00000000000E+00  0.00000000000E+00  0.46076026394E+03  0.46076026394E+03  0.00000000000E+00 0. -1.
         21   -1    0    0  504  502  0.00000000000E+00 -0.00000000000E+00 -0.33140721644E+03  0.33140721644E+03  0.00000000000E+00 0.  1.
         21    1    1    2  503  505  0.33015422185E+02 -0.18108981422E+01  0.22820371240E+02  0.40175450186E+02  0.00000000000E+00 0.  1.
         21    1    1    2  504  501  0.29548391746E+01  0.50973619444E+02 -0.11846601668E+03  0.12900092272E+03  0.00000000000E+00 0.  1.
         21    1    1    2  505  502  0.60040743265E+02 -0.33053389536E+02 -0.18725223778E+03  0.19940114836E+03  0.00000000000E+00 0.  1.
          1    1    1    2  501    0 -0.96011004625E+02 -0.16109331766E+02  0.41225093073E+03  0.42358995912E+03  0.00000000000E+00 0. -1.
<scales pt_clust_3="33.06505" pt_clust_4="51.06206" pt_clust_5="65.42509" pt_clust_6="14000.00000"></scales>
<clustering>
<clus scale="   33.065">  1  3  2 -1</clus>
<clus scale="   51.062">  2  4  1 -1</clus>
<clus scale="   65.425">  2  5  1 -1</clus>
<clus scale="   51.062">  2  3  1 -1</clus>
</clustering>
</event>
<event>
 6    0  0.1849053E+002  0.1221934E+03  0.7546771E-02  0.1239522E+00
          3   -1    0    0  503    0 -0.00000000000E+00  0.00000000000E+00  0.35140285220E+03  0.35140285220E+03  0.00000000000E+00 0. -1.
         21   -1    0    0  505  502  0.00000000000E+00 -0.00000000000E+00 -0.44263083458E+03  0.44263083458E+03  0.00000000000E+00 0.  1.
         21    1    1    2  503  504 -0.16010408027E+02 -0.39913290831E+02  0.14012571760E+02  0.45230035568E+02  0.00000000000E+00 0. -1.
         21    1    1    2  504  502  0.10102276031E+03 -0.25599119254E+02 -0.36283254319E+03  0.37750280450E+03  0.00000000000E+00 0.  1.
         21    1    1    2  505  501  0.97563334615E+01 -0.29265685727E+02 -0.36689259259E+02  0.47935040927E+02  0.00000000000E+00 0.  1.
          3    1    1    2  501    0 -0.94768685740E+02  0.94778095812E+02  0.29428124831E+03  0.32336580578E+03  0.00000000000E+00 0. -1.
<scales pt_clust_3="43.92903" pt_clust_4="122.19341" pt_clust_5="30.84909" pt_clust_6="14000.00000"></scales>
<clustering>
<clus scale="   30.849">  2  5  1 -1</clus>
<clus scale="   43.929">  1  3  2 -1</clus>
<clus scale="  122.193">  2  4  1 -1</clus>
<clus scale="   30.849">  2  3  1 -1</clus>
</clustering>
</event>
<event>
 6    0  0.1849053E+002  0.3545115E+03  0.7546771E-02  0.1060778E+00
          1   -1    0    0  503    0 -0.00000000000E+00  0.00000000000E+00  0.17566415492E+04  0.17566415492E+04  0.00000000000E+00 0. -1.
         21   -1    0    0  501  502  0.00000000000E+00 -0.00000000000E+00 -0.21187681099E+03  0.21187681099E+03  0.00000000000E+00 0. -1.
         21    1    1    2  503  505 -0.30094128634E+03  0.27683970459E+01  0.97877592210E+03  0.10239998181E+04  0.00000000000E+00 0. -1.
         21    1    1    2  504  502  0.10997895073E+02  0.42701055634E+02  0.13668378806E+02  0.46164471485E+02  0.00000000000E+00 0. -1.
         21    1    1    2  505  504  0.35208313978E+03  0.33761216311E+02  0.17492867091E+02  0.35413042434E+03  0.00000000000E+00 0. -1.
          1    1    1    2  501    0 -0.62139748507E+02 -0.79230668990E+02  0.53482757018E+03  0.54422364620E+03  0.00000000000E+00 0. -1.
<scales pt_clust_3="354.51154" pt_clust_4="44.09460" pt_clust_5="14000.00000" pt_clust_6="99.72285"></scales>
<clustering>
<clus scale="   44.095">  2  4  1 -1</clus>
<clus scale="   99.723">  1  6  2 -1</clus>
<clus scale="  354.512">  1  3  2 -1</clus>
<clus scale="   44.095">  2  3  1 -1</clus>
</clustering>
</event>
<event>
 6    0  0.1849053E+002  0.1269174E+03  0.7546771E-02  0.1232103E+00
          2   -1    0    0  505    0 -0.00000000000E+00  0.00000000000E+00  0.18078424856E+04  0.18078424856E+04  0.00000000000E+00 0.  1.
         21   -1    0    0  504  502  0.00000000000E+00 -0.00000000000E+00 -0.75736869262E+03  0.75736869262E+03  0.00000000000E+00 0.  1.
         21    1    1    2  503  501 -0.75909534044E+02  0.29457890694E+02 -0.36876122787E+03  0.37764383732E+03  0.00000000000E+00 0.  1.
         21    1    1    2  504  503 -0.30069264604E+02  0.22792436943E+02 -0.37118778866E+03  0.37310056326E+03  0.00000000000E+00 0.  1.
         21    1    1    2  505  502  0.79433680104E+02 -0.11816852724E+03  0.44620869610E+03  0.46837560872E+03  0.00000000000E+00 0.  1.
          2    1    1    2  501    0  0.26545118544E+02  0.65918199603E+02  0.13442141135E+04  0.13460911690E+04  0.00000000000E+00 0.  1.
<scales pt_clust_3="31.42424" pt_clust_4="31.42424" pt_clust_5="118.22442" pt_clust_6="71.06231"></scales>
<clustering>
<clus scale="   31.424">  3  4 -1 -1</clus>
<clus scale="   71.062">  1  6  2 -1</clus>
<clus scale="  118.224">  1  5  2 -1</clus>
<clus scale="  126.917">  2  3  1 -1</clus>
</clustering>
</event>
<event>
 6    0  0.1849053E+002  0.2183890E+03  0.7546771E-02  0.1135090E+00
         21   -1    0    0  503  502  0.00000000000E+00  0.00000000000E+00  0.99964437995E+02  0.99964437995E+02  0.00000000000E+00 0.  1.
         -3   -1    0    0    0  501 -0.00000000000E+00 -0.00000000000E+00 -0.96913654499E+03  0.96913654499E+03  0.00000000000E+00 0.  1.
         21    1    1    2  503  504 -0.14373763476E+03 -0.28932087662E+02 -0.67053303510E+02  0.16122567679E+03  0.00000000000E+00 0.  1.
         21    1    1    2  504  501 -0.45064798800E+02 -0.41519585299E+02  0.15415662063E+02  0.63185082821E+02  0.00000000000E+00 0.  1.
         21    1    1    2  505  502  0.96403652426E+02  0.46044517009E+00 -0.35601644223E+03  0.36883815333E+03  0.00000000000E+00 0.  1.
         -3    1    1    2    0  505  0.92398781138E+02  0.69991227790E+02 -0.46151802332E+03  0.47585207005E+03  0.00000000000E+00 0.  1.
<scales pt_clust_3="54.41071" pt_clust_4="54.41071" pt_clust_5="61.37461" pt_clust_6="212.45934"></scales>
<clustering>
<clus scale="   54.411">  3  4 -1 -1</clus>
<clus scale="   61.375">  5  6 -1 -1</clus>
<clus scale="  212.459">  2  5  1 -1</clus>
<clus scale="  218.389">  1  3  2 -1</clus>
</clustering>
</event>
<event>
 6    0  0.1849053E+002  0.1320240E+03  0.7546771E-02  0.1224483E+00
         21   -1    0    0  505  502  0.00000000000E+00  0.00000000000E+00  0.60794054861E+02  0.60794054861E+02  0.00000000000E+00 0.  1.
          2   -1    0    0  504    0 -0.00000000000E+00 -0.00000000000E+00 -0.94377732400E+03  0.94377732400E+03  0.00000000000E+00 0.  1.
         21    1    1    2  503  502 -0.62172490581E+01  0.66959856115E+02  0.11809975636E+02  0.68277024257E+02  0.00000000000E+00 0.  1.
         21    1    1    2  504  503 -0.31999816823E+02  0.46455600054E+02 -0.33239107136E+02  0.65474798941E+02  0.00000000000E+00 0. -1.
         21    1    1    2  505  501 -0.25941587153E+01 -0.57023886836E+02 -0.38902712218E+03  0.39319277094E+03  0.00000000000E+00 0.  1.
          2    1    1    2  501    0  0.40811224597E+02 -0.56391569333E+02 -0.47252701547E+03  0.47762678473E+03  0.00000000000E+00 0.  1.
<scales pt_clust_3="51.04950" pt_clust_4="51.04950" pt_clust_5="37.63855" pt_clust_6="126.69320"></scales>
<clustering>
<clus scale="   37.639">  5  6 -1 -1</clus>
<clus scale="   51.050">  3  4 -1 -1</clus>
<clus scale="  126.693">  2  5  1 -1</clus>
<clus scale="  132.024">  1  3  2 -1</clus>
</clustering>
</event>
<event>
 6    0  0.1849053E+002  0.1605713E+03  0.7546771E-02  0.1188053E+00
         21   -1    0    0  503  502  0.00000000000E+00  0.00000000000E+00  0.11252298848E+04  0.11252298848E+04  0.00000000000E+00 0.  1.
         -2   -1    0    0    0  501 -0.00000000000E+00 -0.00000000000E+00 -0.65664789201E+03  0.65664789201E+03  0.00000000000E+00 0.  1.
         21    1    1    2  503  505 -0.27786425184E+02 -0.46574548085E+02  0.77559322653E+02  0.94639962407E+02  0.00000000000E+00 0.  1.
         21    1    1    2  504  502 -0.47425896074E+02 -0.11315458519E+03  0.33983368947E+01  0.12273843921E+03  0.00000000000E+00 0.  1.
         21    1    1    2  505  501  0.14123194371E+03 -0.24198668468E+01  0.95774391049E+03  0.96810418641E+03  0.00000000000E+00 0.  1.
         -2    1    1    2    0  504 -0.66019622448E+02  0.16214900012E+03 -0.57011957726E+03  0.59639518875E+03  0.00000000000E+00 0.  1.
<scales pt_clust_3="54.23351" pt_clust_4="160.57131" pt_clust_5="124.15238" pt_clust_6="14000.00000"></scales>
<clustering>
<clus scale="   54.234">  1  3  2 -1</clus>
<clus scale="  124.152">  1  5  2 -1</clus>
<clus scale="  160.571">  1  4  2 -1</clus>
<clus scale="   54.234">  1  3  2 -1</clus>
</clustering>
</event>
<event>
 6    0  0.1849053E+002  0.1289098E+03  0.7546771E-02  0.1229082E+00
         21   -1    0    0  503  502  0.00000000000E+00  0.00000000000E+00  0.12081263460E+03  0.12081263460E+03  0.00000000000E+00 0.  1.
          4   -1    0    0  504    0 -0.00000000000E+00 -0.00000000000E+00 -0.45239813963E+03  0.45239813963E+03  0.00000000000E+00 0. -1.
         21    1    1    2  503  505  0.25490416101E+02  0.32877750914E+02 -0.20696463648E+02  0.46465593999E+02  0.00000000000E+00 0.  1.
         21    1    1    2  504  502  0.36605849366E+01  0.87681931618E+02  0.77059835999E+02  0.11678929462E+03  0.00000000000E+00 0.  1.
         21    1    1    2  505  501 -0.28243856980E+02 -0.52172494545E+02 -0.12668546167E+03  0.13988885174E+03  0.00000000000E+00 0. -1.
          4    1    1    2  501    0 -0.90714405761E+00 -0.68387187987E+02 -0.26126341572E+03  0.27006703387E+03  0.00000000000E+00 0. -1.
<scales pt_clust_3="41.60178" pt_clust_4="120.17766" pt_clust_5="42.93300" pt_clust_6="42.93300"></scales>
<clustering>
<clus scale="   41.602">  1  3  2 -1</clus>
<clus scale="   42.933">  5  6 -1 -1</clus>
<clus scale="  120.178">  1  4  2 -1</clus>
<clus scale="   41.602">  1  3  2 -1</clus>
</clustering>
</event>
<event>
 6    0  0.1849053E+002  0.1014215E+03  0.7546771E-02  0.1277335E+00
         21   -1    0    0  503  502  0.00000000000E+00  0.00000000000E+00  0.13458194280E+03  0.13458194280E+03  0.00000000000E+00 0. -1.
          2   -1    0    0  504    0 -0.00000000000E+00 -0.00000000000E+00 -0.21254486407E+04  0.21254486407E+04  0.00000000000E+00 0.  1.
         21    1    1    2  503  505  0.59152300992E+02  0.21307574944E+02  0.95204545245E+02  0.11409168637E+03  0.00000000000E+00 0. -1.
         21    1    1    2  504  502 -0.43570189048E+02 -0.43542481149E+00 -0.24126244451E+03  0.24516549125E+03  0.00000000000E+00 0.  1.
         21    1    1    2  505  501 -0.36211826504E+01 -0.10924524925E+03 -0.84375595835E+02  0.13808286867E+03  0.00000000000E+00 0. -1.
          2    1    1    2  501    0 -0.11960929293E+02  0.88373099118E+02 -0.17604332028E+04  0.17626905372E+04  0.00000000000E+00 0.  1.
<scales pt_clust_3="62.66658" pt_clust_4="43.57236" pt_clust_5="101.42149" pt_clust_6="14000.00000"></scales>
<clustering>
<clus scale="   43.572">  2  4  1 -1</clus>
<clus scale="   62.667">  1  3  2 -1</clus>
<clus scale="  101.421">  1  5  2 -1</clus>
<clus scale="   62.667">  1  3  2 -1</clus>
</clustering>
</event>
<event>
 6    0  0.1849053E+002  0.1169054E+03  0.7546771E-02  0.1248291E+00
         21   -1    0    0  504  502  0.00000000000E+00  0.00000000000E+00  0.13248219527E+03  0.13248219527E+03  0.00000000000E+00 0. -1.
          2   -1    0    0  505    0 -0.00000000000E+00 -0.00000000000E+00 -0.91589452006E+03  0.91589452006E+03  0.00000000000E+00 0. -1.
         21    1    1    2  503  502 -0.13321912257E+02 -0.41646810108E+02  0.46954328710E+02  0.64161040538E+02  0.00000000000E+00 0. -1.
         21    1    1    2  504  501  0.47135640116E+02 -0.75223696453E+02  0.32793910473E+02  0.94635160704E+02  0.00000000000E+00 0. -1.
         21    1    1    2  505  503 -0.59155373427E+02 -0.29863877486E+02 -0.26045820082E+03  0.26875580693E+03  0.00000000000E+00 0. -1.
          2    1    1    2  501    0  0.25341645568E+02  0.14673438405E+03 -0.60270236316E+03  0.62082470716E+03  0.00000000000E+00 0. -1.
<scales pt_clust_3="43.72562" pt_clust_4="14000.00000" pt_clust_5="67.94067" pt_clust_6="116.90539"></scales>
<clustering>
<clus scale="   43.726">  1  3  2 -1</clus>
<clus scale="   67.941">  2  5  1 -1</clus>
<clus scale="  116.905">  2  6  1 -1</clus>
<clus scale="   43.726">  1  3  2 -1</clus>
</clustering>
</event>
<event>
 6    0  0.1849053E+002  0.1776631E+03  0.7546771E-02  0.1170084E+00
         21   -1    0    0  504  502  0.00000000000E+00  0.00000000000E+00  0.38467886984E+03  0.38467886984E+03  0.00000000000E+00 0. -1.
         -1   -1    0    0    0  501 -0.00000000000E+00 -0.00000000000E+00 -0.64554575714E+03  0.64554575714E+03  0.00000000000E+00 0. -1.
         21    1    1    2  503  501  0.52256590147E+02  0.74326774985E+02 -0.94583995619E+02  0.13115392835E+03  0.00000000000E+00 0. -1.
         21    1    1    2  504  503 -0.15931773612E+03  0.12938690920E+03  0.21926890054E+03  0.30033641813E+03  0.00000000000E+00 0. -1.
         21    1    1    2  505  502 -0.20119742079E+02 -0.10101986966E+03  0.63398020025E+02  0.12095092819E+03  0.00000000000E+00 0. -1.
         -1    1    1    2    0  505  0.12718088805E+03 -0.10269381452E+03 -0.44894981225E+03  0.47778335231E+03  0.00000000000E+00 0. -1.
<scales pt_clust_3="90.85825" pt_clust_4="177.66309" pt_clust_5="98.53457" pt_clust_6="14000.00000"></scales>
<clustering>
<clus scale="   90.858">  2  3  1 -1</clus>
<clus scale="   98.535">  1  5  2 -1</clus>
<clus scale="  177.663">  1  4  2 -1</clus>
<clus scale="   98.535">  1  3  2 -1</clus>
</clustering>
</event>
<event>
 6    0  0.1849053E+002  0.1668770E+03  0.7546771E-02  0.1181144E+00
         21   -1    0    0  503  502  0.00000000000E+00  0.00000000000E+00  0.20153891219E+03  0.20153891219E+03  0.00000000000E+00 0.  1.
          2   -1    0    0  505    0 -0.00000000000E+00 -0.00000000000E+00 -0.27566730140E+04  0.27566730140E+04  0.00000000000E+00 0.  1.
         21    1    1    2  503  504  0.22658461382E+02 -0.21097031398E+02 -0.31961413002E+02  0.44497444052E+02  0.00000000000E+00 0.  1.
         21    1    1    2  504  501  0.10443892941E+03  0.43289623456E+02 -0.13064986846E+03  0.17277404205E+03  0.00000000000E+00 0.  1.
         21    1    1    2  505  502  0.72581551350E+01 -0.12351332573E+03  0.14910174023E+03  0.19375126165E+03  0.00000000000E+00 0.  1.
          2    1    1    2  501    0 -0.13435554593E+03  0.10132073368E+03 -0.25416245606E+04  0.25471891785E+04  0.00000000000E+00 0.  1.
<scales pt_clust_3="30.95950" pt_clust_4="114.48191" pt_clust_5="166.87696" pt_clust_6="14000.00000"></scales>
<clustering>
<clus scale="   30.959">  1  3  2 -1</clus>
<clus scale="  114.482">  1  4  2 -1</clus>
<clus scale="  166.877">  1  5  2 -1</clus>
<clus scale="   30.959">  1  3  2 -1</clus>
</clustering>
</event>
<event>
 6    0  0.1849053E+002  0.1703983E+03  0.7546771E-02  0.1177433E+00
          2   -1    0    0  502    0 -0.00000000000E+00  0.00000000000E+00  0.63253264261E+03  0.63253264261E+03  0.00000000000E+00 0.  1.
         21   -1    0    0  504  502  0.00000000000E+00 -0.00000000000E+00 -0.12061311048E+03  0.12061311048E+03  0.00000000000E+00 0.  1.
         21    1    1    2  503  501  0.15199946212E+03 -0.10948180811E+02  0.65043626998E+01  0.15253198314E+03  0.00000000000E+00 0.  1.
         21    1    1    2  504  505 -0.36886831376E+02 -0.69110347176E+01  0.21715946821E+02  0.43358771618E+02  0.00000000000E+00 0.  1.
         21    1    1    2  505  503  0.32025751267E+02 -0.33052231088E+02 -0.31350749907E+01  0.46129463678E+02  0.00000000000E+00 0. -1.
          2    1    1    2  501    0 -0.14713838201E+03  0.50911446616E+02  0.48683429760E+03  0.51112553465E+03  0.00000000000E+00 0.  1.
<scales pt_clust_3="33.21776" pt_clust_4="37.52867" pt_clust_5="33.21776" pt_clust_6="159.31694"></scales>
<clustering>
<clus scale="   33.218">  3  5 -1 -1</clus>
<clus scale="   37.529">  2  4  1 -1</clus>
<clus scale="  159.317">  1  6  2 -1</clus>
<clus scale="   37.529">  2  3  1 -1</clus>
</clustering>
</event>
<event>
 6    0  0.1849053E+002  0.9045168E+02  0.7546771E-02  0.1301762E+00
         21   -1    0    0  501  502  0.00000000000E+00  0.00000000000E+00  0.28656041764E+03  0.28656041764E+03  0.00000000000E+00 0.  1.
          2   -1    0    0  503    0 -0.00000000000E+00 -0.00000000000E+00 -0.19791318805E+04  0.19791318805E+04  0.00000000000E+00 0.  1.
         21    1    1    2  503  504  0.30255635026E+02 -0.12883136986E+02 -0.41317981885E+03  0.41448635849E+03  0.00000000000E+00 0. -1.
         21    1    1    2  504  505  0.26806841242E+01 -0.10656213215E+03 -0.21882870750E+01  0.10661830366E+03  0.00000000000E+00 0.  1.
         21    1    1    2  505  502 -0.60563879478E+02  0.68336463544E+02  0.22418910942E+03  0.24207150292E+03  0.00000000000E+00 0.  1.
          2    1    1    2  501    0  0.27627560329E+02  0.51108805590E+02 -0.15013924664E+04  0.15025161331E+04  0.00000000000E+00 0.  1.
<scales pt_clust_3="32.88432" pt_clust_4="14000.00000" pt_clust_5="90.45168" pt_clust_6="68.64075"></scales>
<clustering>
<clus scale="   32.884">  2  3  1 -1</clus>
<clus scale="   68.641">  2  6  1 -1</clus>
<clus scale="   90.452">  1  5  2 -1</clus>
<clus scale="   90.452">  1  3  2 -1</clus>
</clustering>
</event>
<event>
 6    0  0.1849053E+002  0.1260163E+03  0.7546771E-02  0.1233489E+00
         21   -1    0    0  501  502  0.00000000000E+00  0.00000000000E+00  0.12102117908E+04  0.12102117908E+04  0.00000000000E+00 0.  1.
          4   -1    0    0  503    0 -0.00000000000E+00 -0.00000000000E+00 -0.40316938054E+03  0.40316938054E+03  0.00000000000E+00 0. -1.
         21    1    1    2  503  505 -0.11031518962E+03  0.26166335425E+02 -0.14044429583E+01  0.11338470193E+03  0.00000000000E+00 0. -1.
         21    1    1    2  504  502  0.29504438861E+02 -0.25129014411E+02  0.39190458296E+03  0.39381617720E+03  0.00000000000E+00 0.  1.
         21    1    1    2  505  504 -0.14004125213E+03 -0.27564641446E+02  0.71771450348E+03  0.73176872731E+03  0.00000000000E+00 0.  1.
          4    1    1    2  501    0  0.22085200289E+03  0.26527320432E+02 -0.30117223320E+03  0.37441156494E+03  0.00000000000E+00 0. -1.
<scales pt_clust_3="111.01875" pt_clust_4="38.75538" pt_clust_5="126.01635" pt_clust_6="14000.00000"></scales>
<clustering>
<clus scale="   38.755">  1  4  2 -1</clus>
<clus scale="  111.019">  2  3  1 -1</clus>
<clus scale="  126.016">  1  5  2 -1</clus>
<clus scale="   38.755">  1  3  2 -1</clus>
</clustering>
</event>
<event>
 6    0  0.1849053E+002  0.6652450E+02  0.7546771E-02  0.1372327E+00
         21   -1    0    0  504  502  0.00000000000E+00  0.00000000000E+00  0.21213091735E+03  0.21213091735E+03  0.00000000000E+00 0.  1.
          2   -1    0    0  505    0 -0.00000000000E+00 -0.00000000000E+00 -0.14167850618E+04  0.14167850618E+04  0.00000000000E+00 0.  1.
         21    1    1    2  503  502  0.76339880006E+02  0.39799746904E+02  0.18713050911E+03  0.20598452508E+03  0.00000000000E+00 0.  1.
         21    1    1    2  504  501 -0.44937543172E+02 -0.75485503675E+01 -0.32873152829E+02  0.56187254569E+02  0.00000000000E+00 0. -1.
         21    1    1    2  505  503  0.31817609163E+02 -0.62203869674E+02 -0.48074674533E+03  0.48579740099E+03  0.00000000000E+00 0.  1.
          2    1    1    2  501    0 -0.63219945996E+02  0.29952673138E+02 -0.87816475544E+03  0.88094679857E+03  0.00000000000E+00 0.  1.
<scales pt_clust_3="45.73495" pt_clust_4="45.56713" pt_clust_5="14000.00000" pt_clust_6="66.52450"></scales>
<clustering>
<clus scale="   45.567">  1  4  2 -1</clus>
<clus scale="   45.735">  1  3  2 -1</clus>
<clus scale="   66.524">  2  6  1 -1</clus>
<clus scale="   45.567">  1  3  2 -1</clus>
</clustering>
</event>
<event>
 6    0  0.1849053E+002  0.8358029E+02  0.7546771E-02  0.1319188E+00
          2   -1    0    0  504    0 -0.00000000000E+00  0.00000000000E+00  0.13799425898E+04  0.13799425898E+04  0.00000000000E+00 0.  1.
         21   -1    0    0  503  502  0.00000000000E+00 -0.00000000000E+00 -0.53122872356E+02  0.53122872356E+02  0.00000000000E+00 0. -1.
         21    1    1    2  503  505 -0.20259675648E+01  0.39324145134E+02  0.40498875663E+02  0.56485855442E+02  0.00000000000E+00 0.  1.
         21    1    1    2  504  502 -0.43639292489E+02 -0.70294226204E+02  0.96805936668E+03  0.97158870079E+03  0.00000000000E+00 0. -1.
         21    1    1    2  505  501  0.93930950561E+02 -0.32493977709E+02  0.26973426737E+02  0.10298760999E+03  0.00000000000E+00 0. -1.
          2    1    1    2  501    0 -0.48265690508E+02  0.63464058779E+02  0.29128804835E+03  0.30200329593E+03  0.00000000000E+00 0.  1.
<scales pt_clust_3="39.37630" pt_clust_4="81.47866" pt_clust_5="83.58029" pt_clust_6="14000.00000"></scales>
<clustering>
<clus scale="   39.376">  2  3  1 -1</clus>
<clus scale="   81.479">  1  4  2 -1</clus>
<clus scale="   83.580">  2  5  1 -1</clus>
<clus scale="   39.376">  2  3  1 -1</clus>
</clustering>
</event>
<event>
 6    0  0.1849053E+002  0.1196482E+03  0.7546771E-02  0.1243679E+00
         21   -1    0    0  503  502  0.00000000000E+00  0.00000000000E+00  0.60916384705E+02  0.60916384705E+02  0.00000000000E+00 0. -1.
          2   -1    0    0  505    0 -0.00000000000E+00 -0.00000000000E+00 -0.97265401107E+03  0.97265401107E+03  0.00000000000E+00 0. -1.
         21    1    1    2  503  501  0.12335528633E+03 -0.12190111895E+02 -0.30880708603E+02  0.12774483808E+03  0.00000000000E+00 0. -1.
         21    1    1    2  504  502  0.92320450321E-01  0.55043775706E+02 -0.25129741493E+03  0.25725515839E+03  0.00000000000E+00 0. -1.
         21    1    1    2  505  504 -0.29724632649E+02  0.20712171675E+02 -0.85658158971E+02  0.93004666764E+02  0.00000000000E+00 0. -1.
          2    1    1    2  501    0 -0.93722974128E+02 -0.63565835487E+02 -0.54390134386E+03  0.55556573254E+03  0.00000000000E+00 0. -1.
<scales pt_clust_3="119.64822" pt_clust_4="61.59045" pt_clust_5="36.22910" pt_clust_6="14000.00000"></scales>
<clustering>
<clus scale="   36.229">  2  5  1 -1</clus>
<clus scale="   61.590">  2  4  1 -1</clus>
<clus scale="  119.648">  1  3  2 -1</clus>
<clus scale="  119.648">  1  3  2 -1</clus>
</clustering>
</event>
<event>
 6    0  0.1849053E+002  0.9247157E+02  0.7546771E-02  0.1296974E+00
          2   -1    0    0  505    0 -0.00000000000E+00  0.00000000000E+00  0.28268417835E+04  0.28268417835E+04  0.00000000000E+00 0.  1.
         21   -1    0    0  503  502  0.00000000000E+00 -0.00000000000E+00 -0.21366283054E+02  0.21366283054E+02  0.00000000000E+00 0.  1.
         21    1    1    2  503  501  0.11501709354E+03  0.59383037214E+02  0.98493349524E+03  0.99340287244E+03  0.00000000000E+00 0.  1.
         21    1    1    2  504  502 -0.16951273317E+02 -0.91782495660E+02  0.13567970822E+03  0.16468258985E+03  0.00000000000E+00 0.  1.
         21    1    1    2  505  504 -0.65947356381E+02  0.55146704538E+02  0.85076239578E+03  0.85509465377E+03  0.00000000000E+00 0.  1.
          2    1    1    2  501    0 -0.32118463843E+02 -0.22747246092E+02  0.83409990123E+03  0.83502795052E+03  0.00000000000E+00 0.  1.
<scales pt_clust_3="92.47157" pt_clust_4="14000.00000" pt_clust_5="91.72595" pt_clust_6="39.35776"></scales>
<clustering>
<clus scale="   39.358">  1  6  2 -1</clus>
<clus scale="   91.726">  1  5  2 -1</clus>
<clus scale="   92.472">  1  3  2 -1</clus>
<clus scale="   92.472">  2  3  1 -1</clus>
</clustering>
</event>
<event>
 6    0  0.1849053E+002  0.3014823E+03  0.7546771E-02  0.1084502E+00
         21   -1    0    0  505  502  0.00000000000E+00  0.00000000000E+00  0.40419787241E+03  0.40419787241E+03  0.00000000000E+00 0.  1.
         -2   -1    0    0    0  501 -0.00000000000E+00 -0.00000000000E+00 -0.30923375152E+03  0.30923375152E+03  0.00000000000E+00 0.  1.
         21    1    1    2  503  501 -0.10290863073E+03  0.18653764774E+03  0.14159721078E+03  0.25580510238E+03  0.00000000000E+00 0.  1.
         21    1    1    2  504  502  0.12537974798E+03 -0.16699642488E+03 -0.95638476601E+02  0.22968370716E+03  0.00000000000E+00 0.  1.
         21    1    1    2  505  503 -0.35588981320E+02  0.72142547787E+02  0.95041406903E+02  0.12451502648E+03  0.00000000000E+00 0. -1.
         -2    1    1    2    0  504  0.13117864071E+02 -0.91683770647E+02 -0.46036020189E+02  0.10342778791E+03  0.00000000000E+00 0.  1.
<scales pt_clust_3="297.73405" pt_clust_4="46.11372" pt_clust_5="31.02119" pt_clust_6="46.11372"></scales>
<clustering>
<clus scale="   31.021">  3  5 -1 -1</clus>
<clus scale="   46.114">  4  6 -1 -1</clus>
<clus scale="  297.734">  1  3  2 -1</clus>
<clus scale="  297.734">  1  3  2 -1</clus>
</clustering>
</event>
<event>
 6    0  0.1849053E+002  0.1434526E+03  0.7546771E-02  0.1208757E+00
         21   -1    0    0  504  502  0.00000000000E+00  0.00000000000E+00  0.33550723480E+02  0.33550723480E+02  0.00000000000E+00 0.  1.
         -3   -1    0    0    0  501 -0.00000000000E+00 -0.00000000000E+00 -0.14708197047E+04  0.14708197047E+04  0.00000000000E+00 0.  1.
         21    1    1    2  503  502 -0.98182433014E+02 -0.14563587695E+01 -0.16862957560E+03  0.19513545270E+03  0.00000000000E+00 0.  1.
         21    1    1    2  504  505  0.83152980857E+02 -0.54480228297E+02 -0.23598394602E+03  0.25606822583E+03  0.00000000000E+00 0.  1.
         21    1    1    2  505  501  0.10400107798E+03  0.33931629974E+02 -0.68266096126E+03  0.69137078891E+03  0.00000000000E+00 0.  1.
         -3    1    1    2    0  503 -0.88971625820E+02  0.22004957092E+02 -0.34999449837E+03  0.36179596077E+03  0.00000000000E+00 0.  1.
<scales pt_clust_3="73.27742" pt_clust_4="99.41083" pt_clust_5="121.76150" pt_clust_6="73.27742"></scales>
<clustering>
<clus scale="   73.277">  3  6 -1 -1</clus>
<clus scale="   99.411">  1  4  2 -1</clus>
<clus scale="  121.761">  2  5  1 -1</clus>
<clus scale="   99.411">  1  3  2 -1</clus>
</clustering>
</event>
<event>
 6    0  0.1849053E+002  0.1387205E+03  0.7546771E-02  0.1215061E+00
          2   -1    0    0  504    0 -0.00000000000E+00  0.00000000000E+00  0.87081703878E+03  0.87081703878E+03  0.00000000000E+00 0.  1.
         21   -1    0    0  505  502  0.00000000000E+00 -0.00000000000E+00 -0.43170528476E+03  0.43170528476E+03  0.00000000000E+00 0.  1.
         21    1    1    2  503  501 -0.18129144552E+02  0.95865326135E+02 -0.12890428540E+03  0.16166366763E+03  0.00000000000E+00 0. -1.
         21    1    1    2  504  502  0.39396266764E+02 -0.17890026820E+02  0.25186965685E+03  0.25555907915E+03  0.00000000000E+00 0.  1.
         21    1    1    2  505  503  0.24617471540E+02  0.46547242420E+02 -0.27471632015E+03  0.27971721835E+03  0.00000000000E+00 0.  1.
          2    1    1    2  501    0 -0.45884593753E+02 -0.12452254173E+03  0.59086270273E+03  0.60558235841E+03  0.00000000000E+00 0.  1.
<scales pt_clust_3="14000.00000" pt_clust_4="43.26799" pt_clust_5="52.66695" pt_clust_6="138.72054"></scales>
<clustering>
<clus scale="   43.268">  1  4  2 -1</clus>
<clus scale="   52.667">  2  5  1 -1</clus>
<clus scale="  138.721">  1  6  2 -1</clus>
<clus scale="   52.667">  2  3  1 -1</clus>
</clustering>
</event>
<event>
 6    0  0.1849053E+002  0.1723176E+03  0.7546771E-02  0.1175452E+00
         21   -1    0    0  504  502  0.00000000000E+00  0.00000000000E+00  0.10520494714E+04  0.10520494714E+04  0.00000000000E+00 0.  1.
         -4   -1    0    0    0  501 -0.00000000000E+00 -0.00000000000E+00 -0.80427375658E+02  0.80427375658E+02  0.00000000000E+00 0.  1.
         21    1    1    2  503  502  0.12079269349E+03 -0.61257248778E+02  0.82946787243E+03  0.84045242383E+03  0.00000000000E+00 0.  1.
         21    1    1    2  504  501  0.37687424272E+02  0.28716687304E+02  0.10112728964E+03  0.11167684983E+03  0.00000000000E+00 0.  1.
         21    1    1    2  505  503 -0.54147873983E+02  0.37757878435E+02 -0.49852724945E+01  0.66200472676E+02  0.00000000000E+00 0. -1.
         -4    1    1    2    0  505 -0.10433224378E+03 -0.52173169613E+01  0.46012206186E+02  0.11414710074E+03  0.00000000000E+00 0.  1.
<scales pt_clust_3="158.19655" pt_clust_4="47.38133" pt_clust_5="54.99227" pt_clust_6="54.99227"></scales>
<clustering>
<clus scale="   47.381">  1  4  2 -1</clus>
<clus scale="   54.992">  5  6 -1 -1</clus>
<clus scale="  158.197">  1  3  2 -1</clus>
<clus scale="   47.381">  1  3  2 -1</clus>
</clustering>
</event>
<event>
 6    0  0.1849053E+002  0.1062913E+03  0.7546771E-02  0.1267596E+00
         21   -1    0    0  505  502  0.00000000000E+00  0.00000000000E+00  0.25620711552E+03  0.25620711552E+03  0.00000000000E+00 0.  1.
         -4   -1    0    0    0  501 -0.00000000000E+00 -0.00000000000E+00 -0.43982058270E+03  0.43982058270E+03  0.00000000000E+00 0. -1.
         21    1    1    2  503  501 -0.10858392430E+02 -0.34848388413E+02 -0.15339956572E+02  0.39593296513E+02  0.00000000000E+00 0. -1.
         21    1    1    2  504  502  0.99890825958E+02  0.36021990496E+02  0.20994237933E+03  0.23526913004E+03  0.00000000000E+00 0.  1.
         21    1    1    2  505  503  0.10821062545E+02  0.43946440810E+02 -0.25775242875E+02  0.52084049379E+02  0.00000000000E+00 0.  1.
         -4    1    1    2    0  504 -0.99853496073E+02 -0.45120042893E+02 -0.35244064706E+03  0.36908122229E+03  0.00000000000E+00 0. -1.
<scales pt_clust_3="36.50089" pt_clust_4="14000.00000" pt_clust_5="41.81995" pt_clust_6="106.29125"></scales>
<clustering>
<clus scale="   36.501">  2  3  1 -1</clus>
<clus scale="   41.820">  2  5  1 -1</clus>
<clus scale="  106.291">  2  6  1 -1</clus>
<clus scale="  106.291">  1  3  2 -1</clus>
</clustering>
</event>
<event>
 6    0  0.1849053E+002  0.1105603E+03  0.7546771E-02  0.1259536E+00
          3   -1    0    0  504    0 -0.00000000000E+00  0.00000000000E+00  0.97541981543E+03  0.97541981543E+03  0.00000000000E+00 0.  1.
         21   -1    0    0  503  502  0.00000000000E+00 -0.00000000000E+00 -0.26911056694E+04  0.26911056694E+04  0.00000000000E+00 0. -1.
         21    1    1    2  503  505  0.51285215098E+01 -0.11852396407E+03 -0.22908094797E+04  0.22938793133E+04  0.00000000000E+00 0. -1.
         21    1    1    2  504  502 -0.61609448013E+02  0.23648655992E+02 -0.38649915806E+03  0.39209256840E+03  0.00000000000E+00 0. -1.
         21    1    1    2  505  501  0.99570725838E+02  0.98336545039E+02  0.58730515258E+03  0.60374808304E+03  0.00000000000E+00 0. -1.
          3    1    1    2  501    0 -0.43089799334E+02 -0.34612369572E+01  0.37431763118E+03  0.37680552010E+03  0.00000000000E+00 0.  1.
<scales pt_clust_3="110.56028" pt_clust_4="66.17412" pt_clust_5="14000.00000" pt_clust_6="43.22859"></scales>
<clustering>
<clus scale="   43.229">  1  6  2 -1</clus>
<clus scale="   66.174">  2  4  1 -1</clus>
<clus scale="  110.560">  2  3  1 -1</clus>
<clus scale="   66.174">  2  3  1 -1</clus>
</clustering>
</event>
<event>
 6    0  0.1849053E+002  0.1285152E+03  0.7546771E-02  0.1229676E+00
         -1   -1    0    0    0  501 -0.00000000000E+00  0.00000000000E+00  0.22386709526E+04  0.22386709526E+04  0.00000000000E+00 0. -1.
         21   -1    0    0  504  502  0.00000000000E+00 -0.00000000000E+00 -0.17037485978E+04  0.17037485978E+04  0.00000000000E+00 0. -1.
         21    1    1    2  503  502 -0.11038851447E+03  0.74469915581E+02 -0.14603305640E+04  0.14663890168E+04  0.00000000000E+00 0. -1.
         21    1    1    2  504  505  0.31787219415E+02  0.27151918003E+02 -0.23361285959E+03  0.23732387603E+03  0.00000000000E+00 0. -1.
         21    1    1    2  505  501  0.12878687830E+03 -0.81104172705E+02  0.14531739870E+04  0.14611223711E+04  0.00000000000E+00 0. -1.
         -1    1    1    2    0  503 -0.50185583249E+02 -0.20517660879E+02  0.77569179144E+03  0.77758428642E+03  0.00000000000E+00 0. -1.
<scales pt_clust_3="128.51515" pt_clust_4="41.80495" pt_clust_5="14000.00000" pt_clust_6="54.19219"></scales>
<clustering>
<clus scale="   41.805">  2  4  1 -1</clus>
<clus scale="   54.192">  1  6  2 -1</clus>
<clus scale="  128.515">  2  3  1 -1</clus>
<clus scale="   41.805">  2  3  1 -1</clus>
</clustering>
</event>
<event>
 6    0  0.1849053E+002  0.1156513E+03  0.7546771E-02  0.1250448E+00
          2   -1    0    0  504    0 -0.00000000000E+00  0.00000000000E+00  0.13520623487E+04  0.13520623487E+04  0.00000000000E+00 0.  1.
         21   -1    0    0  505  502  0.00000000000E+00 -0.00000000000E+00 -0.52265231515E+03  0.52265231515E+03  0.00000000000E+00 0.  1.
         21    1    1    2  503  502 -0.72102216772E+02  0.12018795861E+02 -0.36625920188E+03  0.37348224064E+03  0.00000000000E+00 0.  1.
         21    1    1    2  504  503  0.30551009292E+02 -0.37922948351E+02  0.20051514745E+03  0.20634398110E+03  0.00000000000E+00 0.  1.
         21    1    1    2  505  501 -0.64514929729E+01  0.76787441365E+02 -0.13881230704E+03  0.15876646214E+03  0.00000000000E+00 0.  1.
          2    1    1    2  501    0  0.48002700453E+02 -0.50883288875E+02  0.11339663950E+04  0.11361219800E+04  0.00000000000E+00 0.  1.
<scales pt_clust_3="72.98278" pt_clust_4="48.69819" pt_clust_5="115.65129" pt_clust_6="14000.00000"></scales>
<clustering>
<clus scale="   48.698">  1  4  2 -1</clus>
<clus scale="   72.983">  2  3  1 -1</clus>
<clus scale="  115.651">  2  5  1 -1</clus>
<clus scale="   72.983">  2  3  1 -1</clus>
</clustering>
</event>
<event>
 6    0  0.1849053E+002  0.1275223E+03  0.7546771E-02  0.1231179E+00
         21   -1    0    0  504  502  0.00000000000E+00  0.00000000000E+00  0.18423442153E+02  0.18423442153E+02  0.00000000000E+00 0. -1.
          2   -1    0    0  505    0 -0.00000000000E+00 -0.00000000000E+00 -0.11526216541E+04  0.11526216541E+04  0.00000000000E+00 0. -1.
         21    1    1    2  503  501  0.23233294454E+00  0.39777871913E+02 -0.15507513730E+03  0.16009569413E+03  0.00000000000E+00 0. -1.
         21    1    1    2  504  503  0.33301979877E+02  0.21189983704E+01 -0.73558413497E+02  0.80773462313E+02  0.00000000000E+00 0.  1.
         21    1    1    2  505  502 -0.97768901872E+02 -0.85715478921E+02 -0.46658870425E+03  0.48436651457E+03  0.00000000000E+00 0. -1.
          2    1    1    2  501    0  0.64234589051E+02  0.43818608638E+02 -0.43897595693E+03  0.44580942527E+03  0.00000000000E+00 0. -1.
<scales pt_clust_3="38.45916" pt_clust_4="33.36933" pt_clust_5="114.81277" pt_clust_6="38.45916"></scales>
<clustering>
<clus scale="   33.369">  1  4  2 -1</clus>
<clus scale="   38.459">  3  6 -1 -1</clus>
<clus scale="  114.813">  1  5  2 -1</clus>
<clus scale="   33.369">  1  3  2 -1</clus>
</clustering>
</event>
<event>
 6    0  0.1849053E+002  0.1670073E+03  0.7546771E-02  0.1181005E+00
         21   -1    0    0  505  502  0.00000000000E+00  0.00000000000E+00  0.43073087673E+03  0.43073087673E+03  0.00000000000E+00 0. -1.
          2   -1    0    0  503    0 -0.00000000000E+00 -0.00000000000E+00 -0.13457104317E+04  0.13457104317E+04  0.00000000000E+00 0.  1.
         21    1    1    2  503  502  0.94724224102E+02 -0.65587155362E+01 -0.11154302451E+03  0.14648392983E+03  0.00000000000E+00 0.  1.
         21    1    1    2  504  501 -0.72955223658E+02 -0.12638469159E+03  0.25705515556E+03  0.29558908628E+03  0.00000000000E+00 0. -1.
         21    1    1    2  505  504 -0.48330023539E+02  0.63677425564E+01  0.12898071503E+03  0.13788532979E+03  0.00000000000E+00 0.  1.
          2    1    1    2  501    0  0.26561023095E+02  0.12657566457E+03 -0.11894724010E+04  0.11964829625E+04  0.00000000000E+00 0.  1.
<scales pt_clust_3="92.09205" pt_clust_4="167.00729" pt_clust_5="48.74771" pt_clust_6="14000.00000"></scales>
<clustering>
<clus scale="   48.748">  1  5  2 -1</clus>
<clus scale="   92.092">  2  3  1 -1</clus>
<clus scale="  167.007">  1  4  2 -1</clus>
<clus scale="   48.748">  1  3  2 -1</clus>
</clustering>
</event>
<event>
 6    0  0.1849053E+002  0.1157591E+03  0.7546771E-02  0.1250262E+00
         -2   -1    0    0    0  501 -0.00000000000E+00  0.00000000000E+00  0.96221044976E+03  0.96221044976E+03  0.00000000000E+00 0.  1.
         21   -1    0    0  503  502  0.00000000000E+00 -0.00000000000E+00 -0.10994653417E+03  0.10994653417E+03  0.00000000000E+00 0.  1.
         21    1    1    2  503  501 -0.12888753343E+03 -0.17522656789E+02  0.67673265763E+03  0.68911982244E+03  0.00000000000E+00 0.  1.
         21    1    1    2  504  505  0.26884435456E+02  0.74145237285E+02 -0.35498913476E+02  0.86489663775E+02  0.00000000000E+00 0.  1.
         21    1    1    2  505  502  0.36359648387E+02  0.58484532131E+02  0.38152571779E+02  0.78727906506E+02  0.00000000000E+00 0.  1.
         -2    1    1    2    0  504  0.65643449587E+02 -0.11510711263E+03  0.17287759966E+03  0.21781959121E+03  0.00000000000E+00 0.  1.
<scales pt_clust_3="115.75909" pt_clust_4="125.08019" pt_clust_5="68.86555" pt_clust_6="14000.00000"></scales>
<clustering>
<clus scale="   68.866">  2  5  1 -1</clus>
<clus scale="  125.080">  2  4  1 -1</clus>
<clus scale="  115.759">  1  3  2 -1</clus>
<clus scale="   68.866">  2  3  1 -1</clus>
</clustering>
</event>
<event>
 6    0  0.1849053E+002  0.7120091E+02  0.7546771E-02  0.1356056E+00
         -1   -1    0    0    0  501 -0.00000000000E+00  0.00000000000E+00  0.75447678043E+03  0.75447678043E+03  0.00000000000E+00 0. -1.
         21   -1    0    0  503  502  0.00000000000E+00 -0.00000000000E+00 -0.37298888887E+03  0.37298888887E+03  0.00000000000E+00 0.  1.
         21    1    1    2  503  504 -0.30476405804E+02  0.60218231680E+02 -0.33776063119E+03  0.34443764417E+03  0.00000000000E+00 0.  1.
         21    1    1    2  504  501  0.27653417293E+02 -0.25354303145E+02  0.26660162120E+03  0.26922848401E+03  0.00000000000E+00 0. -1.
         21    1    1    2  505  502 -0.44701306987E+02 -0.72082700717E+02  0.34906166016E+02  0.91720025158E+02  0.00000000000E+00 0.  1.
         -1    1    1    2    0  505  0.47524295498E+02  0.37218772182E+02  0.41774073555E+03  0.42207951597E+03  0.00000000000E+00 0. -1.
<scales pt_clust_3="67.25025" pt_clust_4="37.51736" pt_clust_5="71.20091" pt_clust_6="14000.00000"></scales>
<clustering>
<clus scale="   37.517">  1  4  2 -1</clus>
<clus scale="   67.250">  2  3  1 -1</clus>
<clus scale="   71.201">  2  5  1 -1</clus>
<clus scale="   67.250">  2  3  1 -1</clus>
</clustering>
</event>
<event>
 6    0  0.1849053E+002  0.1320037E+03  0.7546771E-02  0.1224513E+00
          2   -1    0    0  503    0 -0.00000000000E+00  0.00000000000E+00  0.13406581260E+04  0.13406581260E+04  0.00000000000E+00 0. -1.
         21   -1    0    0  505  502  0.00000000000E+00 -0.00000000000E+00 -0.22856813181E+03  0.22856813181E+03  0.00000000000E+00 0.  1.
         21    1    1    2  503  502 -0.43541532338E+02  0.10161725831E+02 -0.19679328823E+03  0.20180863213E+03  0.00000000000E+00 0.  1.
         21    1    1    2  504  501 -0.79560231842E+02  0.54559178149E+01  0.11608508868E+03  0.14083801100E+03  0.00000000000E+00 0. -1.
         21    1    1    2  505  504 -0.29806531285E+02 -0.31024937354E+02  0.27214020411E+02  0.50907552995E+02  0.00000000000E+00 0.  1.
          2    1    1    2  501    0  0.15290829546E+03  0.15407293708E+02  0.11655841733E+04  0.11756720617E+04  0.00000000000E+00 0. -1.
<scales pt_clust_3="73.29150" pt_clust_4="14000.00000" pt_clust_5="43.02297" pt_clust_6="132.00366"></scales>
<clustering>
<clus scale="   43.023">  2  5  1 -1</clus>
<clus scale="   73.292">  2  3  1 -1</clus>
<clus scale="  132.004">  1  6  2 -1</clus>
<clus scale="   43.023">  2  3  1 -1</clus>
</clustering>
</event>
<event>
 6    0  0.1849053E+002  0.1214514E+03  0.7546771E-02  0.1240722E+00
         21   -1    0    0  503  502  0.00000000000E+00  0.00000000000E+00  0.26822418674E+03  0.26822418674E+03  0.00000000000E+00 0. -1.
          1   -1    0    0  504    0 -0.00000000000E+00 -0.00000000000E+00 -0.54794590758E+03  0.54794590758E+03  0.00000000000E+00 0. -1.
         21    1    1    2  503  501  0.12570893160E+03  0.69986395856E+01  0.22884211109E+03  0.26119040612E+03  0.00000000000E+00 0. -1.
         21    1    1    2  504  505 -0.40523075019E+02  0.34261917183E+02 -0.32283787267E+02  0.62114744613E+02  0.00000000000E+00 0.  1.
         21    1    1    2  505  502 -0.31007180083E+02 -0.60946491007E+02 -0.23142877016E+03  0.24131969592E+03  0.00000000000E+00 0. -1.
          1    1    1    2  501    0 -0.54178676499E+02  0.19685934238E+02 -0.24485127451E+03  0.25154524766E+03  0.00000000000E+00 0. -1.
<scales pt_clust_3="121.45136" pt_clust_4="53.06598" pt_clust_5="67.21798" pt_clust_6="14000.00000"></scales>
<clustering>
<clus scale="   53.066">  2  4  1 -1</clus>
<clus scale="   67.218">  2  5  1 -1</clus>
<clus scale="  121.451">  1  3  2 -1</clus>
<clus scale="  121.451">  1  3  2 -1</clus>
</clustering>
</event>
<event>
 6    0  0.1849053E+002  0.3392688E+03  0.7546771E-02  0.1067108E+00
          2   -1    0    0  505    0 -0.00000000000E+00  0.00000000000E+00  0.66169236573E+03  0.66169236573E+03  0.00000000000E+00 0. -1.
         21   -1    0    0  503  502  0.00000000000E+00 -0.00000000000E+00 -0.12463601601E+04  0.12463601601E+04  0.00000000000E+00 0. -1.
         21    1    1    2  503  504 -0.31331867421E+03 -0.98321018085E+02 -0.10913425037E+04  0.11396771800E+04  0.00000000000E+00 0. -1.
         21    1    1    2  504  501  0.19557524976E+03  0.53580355544E+02  0.41524423891E+03  0.46211287665E+03  0.00000000000E+00 0. -1.
         21    1    1    2  505  502 -0.42681081230E+01  0.85062403830E+02 -0.62576305725E+02  0.10568643873E+03  0.00000000000E+00 0.  1.
          2    1    1    2  501    0  0.12201153257E+03 -0.40321741289E+02  0.15400677614E+03  0.20057603047E+03  0.00000000000E+00 0. -1.
<scales pt_clust_3="317.85307" pt_clust_4="94.12360" pt_clust_5="85.16942" pt_clust_6="94.12360"></scales>
<clustering>
<clus scale="   85.169">  2  5  1 -1</clus>
<clus scale="   94.124">  4  6 -1 -1</clus>
<clus scale="  317.853">  2  3  1 -1</clus>
<clus scale="   85.169">  2  3  1 -1</clus>
</clustering>
</event>
<event>
 6    0  0.1849053E+002  0.2315941E+03  0.7546771E-02  0.1125523E+00
          1   -1    0    0  503    0 -0.00000000000E+00  0.00000000000E+00  0.87362948618E+03  0.87362948618E+03  0.00000000000E+00 0. -1.
         21   -1    0    0  505  502  0.00000000000E+00 -0.00000000000E+00 -0.27745689547E+03  0.27745689547E+03  0.00000000000E+00 0. -1.
         21    1    1    2  503  502  0.44707068549E+02 -0.42006072147E+02 -0.15455731413E+03  0.16628648600E+03  0.00000000000E+00 0. -1.
         21    1    1    2  504  501 -0.88035666701E+01  0.68164662734E+02  0.25857777059E+03  0.26755632580E+03  0.00000000000E+00 0.  1.
         21    1    1    2  505  504  0.10220757184E+03 -0.12639943053E+03 -0.32295315405E+02  0.16572927073E+03  0.00000000000E+00 0. -1.
          1    1    1    2  501    0 -0.13811107372E+03  0.10024083994E+03  0.52444744966E+03  0.55151429912E+03  0.00000000000E+00 0. -1.
<scales pt_clust_3="61.34519" pt_clust_4="56.06245" pt_clust_5="214.08395" pt_clust_6="56.06245"></scales>
<clustering>
<clus scale="   56.062">  4  6 -1 -1</clus>
<clus scale="   61.345">  2  3  1 -1</clus>
<clus scale="  214.084">  2  5  1 -1</clus>
<clus scale="   61.345">  2  3  1 -1</clus>
</clustering>
</event>
<event>
 6    0  0.1849053E+002  0.8530843E+02  0.7546771E-02  0.1314628E+00
          1   -1    0    0  505    0 -0.00000000000E+00  0.00000000000E+00  0.12797674552E+03  0.12797674552E+03  0.00000000000E+00 0. -1.
         21   -1    0    0  503  502  0.00000000000E+00 -0.00000000000E+00 -0.99291757878E+03  0.99291757878E+03  0.00000000000E+00 0.  1.
         21    1    1    2  503  501  0.15367764834E+02  0.10506755571E+03 -0.62552869621E+03  0.63447735124E+03  0.00000000000E+00 0.  1.
         21    1    1    2  504  502  0.37761321912E+02 -0.36967901355E+02 -0.33702106457E+03  0.34113888832E+03  0.00000000000E+00 0. -1.
         21    1    1    2  505  504 -0.35633547490E+02  0.16320739207E+01  0.30558819252E+02  0.46970786731E+02  0.00000000000E+00 0. -1.
          1    1    1    2  501    0 -0.17495539256E+02 -0.69731728277E+02  0.67050108267E+02  0.98307298005E+02  0.00000000000E+00 0. -1.
<scales pt_clust_3="14000.00000" pt_clust_4="52.23339" pt_clust_5="35.67090" pt_clust_6="85.30843"></scales>
<clustering>
<clus scale="   35.671">  1  5  2 -1</clus>
<clus scale="   52.233">  2  4  1 -1</clus>
<clus scale="   85.308">  1  6  2 -1</clus>
<clus scale="   52.233">  2  3  1 -1</clus>
</clustering>
</event>
<event>
 6    0  0.1849053E+002  0.1278872E+03  0.7546771E-02  0.1230625E+00
         21   -1    0    0  504  502  0.00000000000E+00  0.00000000000E+00  0.78801503246E+03  0.78801503246E+03  0.00000000000E+00 0.  1.
         -3   -1    0    0    0  501 -0.00000000000E+00 -0.00000000000E+00 -0.30054734742E+03  0.30054734742E+03  0.00000000000E+00 0. -1.
         21    1    1    2  503  505 -0.79640881195E+02  0.14294956928E+03  0.63344903730E+03  0.65424378649E+03  0.00000000000E+00 0.  1.
         21    1    1    2  504  501  0.61504372899E+02 -0.51606686662E+02 -0.16247759217E+02  0.81914758582E+02  0.00000000000E+00 0.  1.
         21    1    1    2  505  502  0.67196644935E+02 -0.12374400857E+02  0.90474152756E+02  0.11337586694E+03  0.00000000000E+00 0. -1.
         -3    1    1    2    0  503 -0.49060136640E+02 -0.78968481757E+02 -0.22020774579E+03  0.23902796787E+03  0.00000000000E+00 0. -1.
<scales pt_clust_3="14000.00000" pt_clust_4="83.14697" pt_clust_5="68.32653" pt_clust_6="127.88723"></scales>
<clustering>
<clus scale="   68.327">  1  5  2 -1</clus>
<clus scale="   83.147">  2  4  1 -1</clus>
<clus scale="  127.887">  2  6  1 -1</clus>
<clus scale="   68.327">  1  3  2 -1</clus>
</clustering>
</event>
<event>
 6    0  0.4876199E+002  0.1636390E+03  0.7546771E-02  0.1184649E+00
          2   -1    0    0  504    0 -0.00000000000E+00  0.00000000000E+00  0.11826023238E+04  0.11826023238E+04  0.00000000000E+00 0. -1.
         21   -1    0    0  503  502  0.00000000000E+00 -0.00000000000E+00 -0.16418322504E+04  0.16418322504E+04  0.00000000000E+00 0. -1.
         21    1    1    2  503  505 -0.12305987974E+03 -0.95111505250E+02 -0.15764948669E+04  0.15841483509E+04  0.00000000000E+00 0. -1.
         21    1    1    2  504  502  0.93586909374E+01 -0.33594605079E+02 -0.35895690854E+02  0.50046810172E+02  0.00000000000E+00 0.  1.
         21    1    1    2  505  501  0.58603819704E+02  0.64593262728E+02  0.95992462229E+02  0.12969676202E+03  0.00000000000E+00 0. -1.
          2    1    1    2  501    0  0.55097369095E+02  0.64112847602E+02  0.10571681689E+04  0.10605426511E+04  0.00000000000E+00 0. -1.
<scales pt_clust_3="163.63899" pt_clust_4="34.87381" pt_clust_5="14000.00000" pt_clust_6="84.51462"></scales>
<clustering>
<clus scale="   34.874">  2  4  1 -1</clus>
<clus scale="   84.515">  1  6  2 -1</clus>
<clus scale="  163.639">  2  3  1 -1</clus>
<clus scale="   34.874">  2  3  1 -1</clus>
</clustering>
</event>
<event>
 6    0  0.1849053E+002  0.1882433E+03  0.7546771E-02  0.1160055E+00
          2   -1    0    0  505    0 -0.00000000000E+00  0.00000000000E+00  0.35729354499E+04  0.35729354499E+04  0.00000000000E+00 0. -1.
         21   -1    0    0  503  502  0.00000000000E+00 -0.00000000000E+00 -0.52408417402E+02  0.52408417402E+02  0.00000000000E+00 0. -1.
         21    1    1    2  503  501 -0.37843834514E+02 -0.16445166467E+02  0.80844693348E+03  0.80949925482E+03  0.00000000000E+00 0. -1.
         21    1    1    2  504  502  0.57484943913E+02 -0.22143752111E+01  0.61683758357E+02  0.84346359016E+02  0.00000000000E+00 0. -1.
         21    1    1    2  505  504  0.10808494613E+03 -0.53721894705E+02  0.56184420319E+02  0.13313559493E+03  0.00000000000E+00 0. -1.
          2    1    1    2  501    0 -0.12772605553E+03  0.72381436383E+02  0.25942119203E+04  0.25983626585E+04  0.00000000000E+00 0. -1.
<scales pt_clust_3="37.08528" pt_clust_4="36.94144" pt_clust_5="182.77170" pt_clust_6="37.08528"></scales>
<clustering>
<clus scale="   36.941">  4  5 -1 -1</clus>
<clus scale="   37.085">  3  6 -1 -1</clus>
<clus scale="  182.772">  2  4  1 -1</clus>
<clus scale="  182.772">  2  3  1 -1</clus>
</clustering>
</event>
<event>
 6    0  0.1849053E+002  0.9156554E+02  0.7546771E-02  0.1299104E+00
          2   -1    0    0  503    0 -0.00000000000E+00  0.00000000000E+00  0.45326740855E+03  0.45326740855E+03  0.00000000000E+00 0. -1.
         21   -1    0    0  504  502  0.00000000000E+00 -0.00000000000E+00 -0.90740002942E+02  0.90740002942E+02  0.00000000000E+00 0. -1.
         21    1    1    2  503  505 -0.57426535478E+02 -0.12704890695E+02  0.78679453143E+02  0.98232772391E+02  0.00000000000E+00 0.  1.
         21    1    1    2  504  501  0.35777054092E+02 -0.61097779379E+01  0.37334070489E+01  0.36486508659E+02  0.00000000000E+00 0.  1.
         21    1    1    2  505  502  0.25579073261E+02  0.85799723231E+02 -0.28112918061E+02  0.93841449570E+02  0.00000000000E+00 0. -1.
          2    1    1    2  501    0 -0.39295918749E+01 -0.66985054598E+02  0.30822746348E+03  0.31544668087E+03  0.00000000000E+00 0. -1.
<scales pt_clust_3="54.42584" pt_clust_4="36.29500" pt_clust_5="14000.00000" pt_clust_6="91.56554"></scales>
<clustering>
<clus scale="   36.295">  2  4  1 -1</clus>
<clus scale="   54.426">  1  3  2 -1</clus>
<clus scale="   91.566">  1  6  2 -1</clus>
<clus scale="   36.295">  2  3  1 -1</clus>
</clustering>
</event>
<event>
 6    0  0.1849053E+002  0.1595784E+03  0.7546771E-02  0.1189174E+00
          2   -1    0    0  502    0 -0.00000000000E+00  0.00000000000E+00  0.41393323377E+04  0.41393323377E+04  0.00000000000E+00 0.  1.
         21   -1    0    0  504  502  0.00000000000E+00 -0.00000000000E+00 -0.14573368792E+02  0.14573368792E+02  0.00000000000E+00 0. -1.
         21    1    1    2  503  505 -0.35225617165E+02  0.40796248093E+02  0.26053587453E+03  0.26605285167E+03  0.00000000000E+00 0. -1.
         21    1    1    2  504  503 -0.93130741277E+02  0.26008969539E+02  0.22074741270E+03  0.24099631051E+03  0.00000000000E+00 0. -1.
         21    1    1    2  505  501  0.21753661332E+02 -0.25972407865E+02  0.14652467330E+04  0.14656383511E+04  0.00000000000E+00 0.  1.
          2    1    1    2  501    0  0.10660269711E+03 -0.40832809768E+02  0.21782289487E+04  0.21812181932E+04  0.00000000000E+00 0.  1.
<scales pt_clust_3="50.23378" pt_clust_4="50.23378" pt_clust_5="33.17908" pt_clust_6="156.99558"></scales>
<clustering>
<clus scale="   33.179">  5  6 -1 -1</clus>
<clus scale="   50.234">  3  4 -1 -1</clus>
<clus scale="  156.996">  1  5  2 -1</clus>
<clus scale="  159.578">  2  3  1 -1</clus>
</clustering>
</event>
<event>
 6    0  0.1849053E+002  0.1281499E+03  0.7546771E-02  0.1230227E+00
          1   -1    0    0  504    0 -0.00000000000E+00  0.00000000000E+00  0.96905666158E+03  0.96905666158E+03  0.00000000000E+00 0.  1.
         21   -1    0    0  501  502  0.00000000000E+00 -0.00000000000E+00 -0.86163789595E+03  0.86163789595E+03  0.00000000000E+00 0. -1.
         21    1    1    2  503  502  0.10951523033E+03  0.66797446089E+02 -0.83346298908E+03  0.84327696438E+03  0.00000000000E+00 0. -1.
         21    1    1    2  504  505  0.42515908552E+02  0.99909852501E+01  0.10566652481E+03  0.11433650656E+03  0.00000000000E+00 0. -1.
         21    1    1    2  505  503 -0.67518234953E+02 -0.85255804959E+01  0.61343425103E+02  0.91621031305E+02  0.00000000000E+00 0. -1.
          1    1    1    2  501    0 -0.84512903928E+02 -0.68262850843E+02  0.77387180480E+03  0.78146005529E+03  0.00000000000E+00 0.  1.
<scales pt_clust_3="128.14991" pt_clust_4="43.67405" pt_clust_5="64.18884" pt_clust_6="14000.00000"></scales>
<clustering>
<clus scale="   43.674">  1  4  2 -1</clus>
<clus scale="   64.189">  1  5  2 -1</clus>
<clus scale="  128.150">  2  3  1 -1</clus>
<clus scale="  128.150">  2  3  1 -1</clus>
</clustering>
</event>
<event>
 6    0  0.1849053E+002  0.1345647E+03  0.7546771E-02  0.1220835E+00
          2   -1    0    0  505    0 -0.00000000000E+00  0.00000000000E+00  0.43848478951E+03  0.43848478951E+03  0.00000000000E+00 0.  1.
         21   -1    0    0  504  502  0.00000000000E+00 -0.00000000000E+00 -0.26082681086E+03  0.26082681086E+03  0.00000000000E+00 0. -1.
         21    1    1    2  503  501 -0.10965194497E+02  0.15711798269E+03  0.58248545129E+02  0.16792614145E+03  0.00000000000E+00 0.  1.
         21    1    1    2  504  503  0.23118814352E+02 -0.33572048878E+02 -0.12600630046E+03  0.13243545521E+03  0.00000000000E+00 0. -1.
         21    1    1    2  505  502  0.31133378697E+02  0.46677891422E+00 -0.59384434280E+02  0.67052339157E+02  0.00000000000E+00 0.  1.
          2    1    1    2  501    0 -0.43286998553E+02 -0.12401271272E+03  0.30480016826E+03  0.33189766455E+03  0.00000000000E+00 0.  1.
<scales pt_clust_3="134.56473" pt_clust_4="54.74476" pt_clust_5="31.13688" pt_clust_6="14000.00000"></scales>
<clustering>
<clus scale="   31.137">  2  5  1 -1</clus>
<clus scale="   54.745">  2  4  1 -1</clus>
<clus scale="  134.565">  2  3  1 -1</clus>
<clus scale="   31.137">  2  3  1 -1</clus>
</clustering>
</event>
<event>
 6    0  0.1849053E+002  0.7485532E+02  0.7546771E-02  0.1344320E+00
          2   -1    0    0  503    0 -0.00000000000E+00  0.00000000000E+00  0.37544338283E+03  0.37544338283E+03  0.00000000000E+00 0.  1.
         21   -1    0    0  501  502  0.00000000000E+00 -0.00000000000E+00 -0.70788851605E+02  0.70788851605E+02  0.00000000000E+00 0.  1.
         21    1    1    2  503  505 -0.25803797375E+02 -0.36091651515E+02  0.16252070778E+03  0.16846787149E+03  0.00000000000E+00 0.  1.
         21    1    1    2  504  502 -0.60764501400E+02  0.18319400199E+02  0.99985107222E+01  0.64248698592E+02  0.00000000000E+00 0.  1.
         21    1    1    2  505  504 -0.17462208073E+02  0.54599369311E+02  0.43049007964E+02  0.71688471365E+02  0.00000000000E+00 0.  1.
          2    1    1    2  501    0  0.10403050685E+03 -0.36827117995E+02  0.89086304760E+02  0.14182719299E+03  0.00000000000E+00 0.  1.
<scales pt_clust_3="44.36714" pt_clust_4="74.85532" pt_clust_5="51.01293" pt_clust_6="14000.00000"></scales>
<clustering>
<clus scale="   44.367">  1  3  2 -1</clus>
<clus scale="   51.013">  1  5  2 -1</clus>
<clus scale="   74.855">  2  4  1 -1</clus>
<clus scale="   74.855">  2  3  1 -1</clus>
</clustering>
</event>
<event>
 6    0  0.1849053E+002  0.1904577E+03  0.7546771E-02  0.1158049E+00
         21   -1    0    0  504  502  0.00000000000E+00  0.00000000000E+00  0.37032802122E+03  0.37032802122E+03  0.00000000000E+00 0. -1.
          2   -1    0    0  505    0 -0.00000000000E+00 -0.00000000000E+00 -0.10506466088E+04  0.10506466088E+04  0.00000000000E+00 0.  1.
         21    1    1    2  503  502 -0.97215269420E+02  0.61494050262E+02  0.25557996795E+03  0.28027387828E+03  0.00000000000E+00 0. -1.
         21    1    1    2  504  501 -0.97925983566E+02 -0.31066294168E+02  0.61688123489E+02  0.11983337378E+03  0.00000000000E+00 0. -1.
         21    1    1    2  505  503  0.28291021486E+02 -0.27353948481E+02 -0.34678933891E+03  0.34901499392E+03  0.00000000000E+00 0. -1.
          2    1    1    2  501    0  0.16685023150E+03 -0.30738076121E+01 -0.65079734007E+03  0.67185238400E+03  0.00000000000E+00 0.  1.
<scales pt_clust_3="190.45771" pt_clust_4="101.97230" pt_clust_5="39.35251" pt_clust_6="14000.00000"></scales>
<clustering>
<clus scale="   39.353">  2  5  1 -1</clus>
<clus scale="  101.972">  1  4  2 -1</clus>
<clus scale="  190.458">  1  3  2 -1</clus>
<clus scale="  101.972">  1  3  2 -1</clus>
</clustering>
</event>
<event>
 6    0  0.1849053E+002  0.1670937E+03  0.7546771E-02  0.1180913E+00
         21   -1    0    0  505  502  0.00000000000E+00  0.00000000000E+00  0.44264836142E+02  0.44264836142E+02  0.00000000000E+00 0. -1.
          2   -1    0    0  504    0 -0.00000000000E+00 -0.00000000000E+00 -0.32943759301E+04  0.32943759301E+04  0.00000000000E+00 0.  1.
         21    1    1    2  503  502 -0.99523899094E+02 -0.10691687966E+03 -0.11685439512E+03  0.18705928287E+03  0.00000000000E+00 0. -1.
         21    1    1    2  504  503  0.18130824780E+02  0.11085059711E+03 -0.11318469640E+04  0.11374067573E+04  0.00000000000E+00 0. -1.
         21    1    1    2  505  501 -0.43559072020E+02 -0.86847315701E+01 -0.10989706043E+03  0.11853346029E+03  0.00000000000E+00 0. -1.
          2    1    1    2  501    0  0.12495214633E+03  0.47510141190E+01 -0.18915126744E+04  0.18956412658E+04  0.00000000000E+00 0.  1.
<scales pt_clust_3="167.09369" pt_clust_4="111.27545" pt_clust_5="44.41641" pt_clust_6="14000.00000"></scales>
<clustering>
<clus scale="   44.416">  1  5  2 -1</clus>
<clus scale="  111.275">  2  4  1 -1</clus>
<clus scale="  167.094">  1  3  2 -1</clus>
<clus scale="   44.416">  1  3  2 -1</clus>
</clustering>
</event>
<event>
 6    0  0.1849053E+002  0.2505555E+03  0.7546771E-02  0.1112954E+00
          2   -1    0    0  505    0 -0.00000000000E+00  0.00000000000E+00  0.50149002195E+03  0.50149002195E+03  0.00000000000E+00 0. -1.
         21   -1    0    0  503  502  0.00000000000E+00 -0.00000000000E+00 -0.34839970015E+03  0.34839970015E+03  0.00000000000E+00 0. -1.
         21    1    1    2  503  504  0.12527503677E+03  0.15259364300E+03 -0.26220045896E+03  0.32821903571E+03  0.00000000000E+00 0. -1.
         21    1    1    2  504  501 -0.96923910495E+02 -0.15661280257E+03  0.24979670477E+03  0.31035497107E+03  0.00000000000E+00 0. -1.
         21    1    1    2  505  502  0.32005801212E+02  0.21660833208E+02  0.50327464932E+01  0.38972959135E+02  0.00000000000E+00 0. -1.
          2    1    1    2  501    0 -0.60356927491E+02 -0.17641673639E+02  0.16046132950E+03  0.17234275618E+03  0.00000000000E+00 0. -1.
<scales pt_clust_3="230.63932" pt_clust_4="57.40428" pt_clust_5="38.64664" pt_clust_6="57.40428"></scales>
<clustering>
<clus scale="   38.647">  2  5  1 -1</clus>
<clus scale="   57.404">  4  6 -1 -1</clus>
<clus scale="  230.639">  2  3  1 -1</clus>
<clus scale="   38.647">  2  3  1 -1</clus>
</clustering>
</event>
<event>
 6    0  0.1849053E+002  0.2264466E+03  0.7546771E-02  0.1129166E+00
          1   -1    0    0  505    0 -0.00000000000E+00  0.00000000000E+00  0.18058450463E+04  0.18058450463E+04  0.00000000000E+00 0.  1.
         21   -1    0    0  504  502  0.00000000000E+00 -0.00000000000E+00 -0.15144692456E+03  0.15144692456E+03  0.00000000000E+00 0.  1.
         21    1    1    2  503  502 -0.46452307527E+02 -0.15572865558E+03 -0.79133494125E+02  0.18075215334E+03  0.00000000000E+00 0.  1.
         21    1    1    2  504  501  0.63637652938E+02  0.45365763151E+02  0.47177274759E+03  0.47820218392E+03  0.00000000000E+00 0.  1.
         21    1    1    2  505  503 -0.22489958768E+02 -0.34752243546E+02  0.16373950850E+02  0.44515423656E+02  0.00000000000E+00 0.  1.
          1    1    1    2  501    0  0.53046133574E+01  0.14511513597E+03  0.12453849174E+04  0.12538222099E+04  0.00000000000E+00 0.  1.
<scales pt_clust_3="216.34861" pt_clust_4="74.24433" pt_clust_5="38.33962" pt_clust_6="74.24433"></scales>
<clustering>
<clus scale="   38.340">  3  5 -1 -1</clus>
<clus scale="   74.244">  4  6 -1 -1</clus>
<clus scale="  216.349">  2  3  1 -1</clus>
<clus scale="  216.349">  2  3  1 -1</clus>
</clustering>
</event>
<event>
 6    0  0.1849053E+002  0.2510958E+03  0.7546771E-02  0.1112614E+00
         21   -1    0    0  503  502  0.00000000000E+00  0.00000000000E+00  0.69476855715E+02  0.69476855715E+02  0.00000000000E+00 0.  1.
          2   -1    0    0  505    0 -0.00000000000E+00 -0.00000000000E+00 -0.30562557656E+04  0.30562557656E+04  0.00000000000E+00 0.  1.
         21    1    1    2  503  501  0.43920437303E+02 -0.55419150834E+01 -0.25360839098E+03  0.25744306868E+03  0.00000000000E+00 0. -1.
         21    1    1    2  504  502 -0.12848839536E+03 -0.13228866936E+02 -0.93397755457E+02  0.15939702440E+03  0.00000000000E+00 0.  1.
         21    1    1    2  505  504 -0.10936772141E+03  0.19811594529E+02 -0.69018584467E+02  0.13083333966E+03  0.00000000000E+00 0.  1.
          2    1    1    2  501    0  0.19393567947E+03 -0.10408125097E+01 -0.25707541790E+04  0.25780591886E+04  0.00000000000E+00 0.  1.
<scales pt_clust_3="38.31163" pt_clust_4="240.52983" pt_clust_5="32.60885" pt_clust_6="38.31163"></scales>
<clustering>
<clus scale="   32.609">  4  5 -1 -1</clus>
<clus scale="   38.312">  3  6 -1 -1</clus>
<clus scale="  240.530">  1  4  2 -1</clus>
<clus scale="  240.530">  1  3  2 -1</clus>
</clustering>
</event>
<event>
 6    0  0.1849053E+002  0.1260590E+03  0.7546771E-02  0.1233424E+00
          1   -1    0    0  502    0 -0.00000000000E+00  0.00000000000E+00  0.31043299613E+03  0.31043299613E+03  0.00000000000E+00 0.  1.
         21   -1    0    0  505  502  0.00000000000E+00 -0.00000000000E+00 -0.11325038543E+03  0.11325038543E+03  0.00000000000E+00 0.  1.
         21    1    1    2  503  504  0.59742974905E+02  0.52340813776E+02  0.10781327948E+02  0.80156227890E+02  0.00000000000E+00 0.  1.
         21    1    1    2  504  501  0.51886202244E+02  0.19616218735E+02 -0.17806746024E+02  0.58258512036E+02  0.00000000000E+00 0.  1.
         21    1    1    2  505  503 -0.11461845842E+01 -0.30512006060E+02 -0.16713116121E+02  0.34808397024E+02  0.00000000000E+00 0. -1.
          1    1    1    2  501    0 -0.11048299256E+03 -0.41445026452E+02  0.22092114490E+03  0.25046024460E+03  0.00000000000E+00 0.  1.
<scales pt_clust_3="32.59613" pt_clust_4="32.59613" pt_clust_5="30.53353" pt_clust_6="120.08523"></scales>
<clustering>
<clus scale="   30.534">  2  5  1 -1</clus>
<clus scale="   32.596">  3  4 -1 -1</clus>
<clus scale="  120.085">  1  6  2 -1</clus>
<clus scale="   30.534">  2  3  1 -1</clus>
</clustering>
</event>
<event>
 6    0  0.1849053E+002  0.1197047E+03  0.7546771E-02  0.1243585E+00
         21   -1    0    0  504  502  0.00000000000E+00  0.00000000000E+00  0.91565035968E+03  0.91565035968E+03  0.00000000000E+00 0. -1.
         -2   -1    0    0    0  501 -0.00000000000E+00 -0.00000000000E+00 -0.11736551234E+03  0.11736551234E+03  0.00000000000E+00 0. -1.
         21    1    1    2  503  501  0.41295344345E+01  0.45061645177E+02  0.29449561013E+02  0.53989643123E+02  0.00000000000E+00 0. -1.
         21    1    1    2  504  505 -0.14425192886E+01  0.56852176785E+02  0.32293513460E+03  0.32790448613E+03  0.00000000000E+00 0. -1.
         21    1    1    2  505  503 -0.28343025830E+02  0.52028327520E+02  0.48631301586E+03  0.48990879087E+03  0.00000000000E+00 0. -1.
         -2    1    1    2    0  502  0.25656010684E+02 -0.15394214948E+03 -0.40412864122E+02  0.16121295189E+03  0.00000000000E+00 0. -1.
<scales pt_clust_3="45.25047" pt_clust_4="33.85182" pt_clust_5="33.85182" pt_clust_6="114.60968"></scales>
<clustering>
<clus scale="   33.852">  4  5 -1 -1</clus>
<clus scale="   45.250">  2  3  1 -1</clus>
<clus scale="  114.610">  2  6  1 -1</clus>
<clus scale="  119.705">  1  3  2 -1</clus>
</clustering>
</event>
<event>
 6    0  0.1849053E+002  0.2026685E+03  0.7546771E-02  0.1147507E+00
          2   -1    0    0  502    0 -0.00000000000E+00  0.00000000000E+00  0.53208975924E+03  0.53208975924E+03  0.00000000000E+00 0. -1.
         21   -1    0    0  504  502  0.00000000000E+00 -0.00000000000E+00 -0.35627391391E+03  0.35627391391E+03  0.00000000000E+00 0. -1.
         21    1    1    2  503  501 -0.79481261457E-01  0.41428440457E+02  0.80094090016E+02  0.90174193933E+02  0.00000000000E+00 0. -1.
         21    1    1    2  504  505  0.79598681412E+02 -0.12089228962E+03 -0.23724997020E+03  0.27791805291E+03  0.00000000000E+00 0. -1.
         21    1    1    2  505  503  0.52792602404E+02 -0.11064020441E+02 -0.68958153614E+02  0.87548263071E+02  0.00000000000E+00 0. -1.
          2    1    1    2  501    0 -0.13231180255E+03  0.90527869604E+02  0.40192987912E+03  0.43272316324E+03  0.00000000000E+00 0. -1.
<scales pt_clust_3="39.81558" pt_clust_4="199.50492" pt_clust_5="42.56704" pt_clust_6="39.81558"></scales>
<clustering>
<clus scale="   39.816">  3  6 -1 -1</clus>
<clus scale="   42.567">  4  5 -1 -1</clus>
<clus scale="  199.505">  2  4  1 -1</clus>
<clus scale="  199.505">  2  3  1 -1</clus>
</clustering>
</event>
<event>
 6    0  0.1849053E+002  0.1610958E+03  0.7546771E-02  0.1187465E+00
         21   -1    0    0  503  502  0.00000000000E+00  0.00000000000E+00  0.53612058300E+02  0.53612058300E+02  0.00000000000E+00 0.  1.
         -2   -1    0    0    0  501 -0.00000000000E+00 -0.00000000000E+00 -0.17395583090E+04  0.17395583090E+04  0.00000000000E+00 0. -1.
         21    1    1    2  503  501  0.77366125360E+02  0.77723352705E+02 -0.13770168460E+03  0.17603462969E+03  0.00000000000E+00 0.  1.
         21    1    1    2  504  502 -0.85250357148E+02  0.74402619820E+02 -0.78791524795E+02  0.13788211490E+03  0.00000000000E+00 0.  1.
         21    1    1    2  505  504  0.13246358910E+02 -0.82141576704E+02 -0.46758718972E+03  0.47493208423E+03  0.00000000000E+00 0. -1.
         -2    1    1    2    0  505 -0.53621271214E+01 -0.69984395821E+02 -0.10018658516E+04  0.10043215384E+04  0.00000000000E+00 0. -1.
<scales pt_clust_3="109.66511" pt_clust_4="142.32810" pt_clust_5="69.31026" pt_clust_6="69.31026"></scales>
<clustering>
<clus scale="   69.310">  5  6 -1 -1</clus>
<clus scale="  109.665">  1  3  2 -1</clus>
<clus scale="  142.328">  1  4  2 -1</clus>
<clus scale="  109.665">  1  3  2 -1</clus>
</clustering>
</event>
<event>
 6    0  0.1849053E+002  0.1423744E+03  0.7546771E-02  0.1210169E+00
         -2   -1    0    0    0  501 -0.00000000000E+00  0.00000000000E+00  0.15365788926E+04  0.15365788926E+04  0.00000000000E+00 0. -1.
         21   -1    0    0  501  502  0.00000000000E+00 -0.00000000000E+00 -0.13876139811E+04  0.13876139811E+04  0.00000000000E+00 0. -1.
         21    1    1    2  503  504  0.79041312427E+02 -0.74626612503E+02  0.18050438115E+03  0.21070949665E+03  0.00000000000E+00 0.  1.
         21    1    1    2  504  505 -0.14041508847E+03  0.72759343737E+02 -0.11926066385E+04  0.12030465133E+04  0.00000000000E+00 0. -1.
         21    1    1    2  505  502  0.43041342726E+00 -0.39448643107E+02 -0.17142808015E+03  0.17590897465E+03  0.00000000000E+00 0. -1.
         -2    1    1    2    0  503  0.60943362618E+02  0.41315911874E+02  0.13324952490E+04  0.13345278890E+04  0.00000000000E+00 0. -1.
<scales pt_clust_3="142.37436" pt_clust_4="14000.00000" pt_clust_5="39.45099" pt_clust_6="73.60988"></scales>
<clustering>
<clus scale="   39.451">  2  5  1 -1</clus>
<clus scale="   73.610">  1  6  2 -1</clus>
<clus scale="  142.374">  1  3  2 -1</clus>
<clus scale="   39.451">  2  3  1 -1</clus>
</clustering>
</event>
<event>
 6    0  0.1849053E+002  0.1046171E+03  0.7546771E-02  0.1270876E+00
         -4   -1    0    0    0  501 -0.00000000000E+00  0.00000000000E+00  0.26121856434E+03  0.26121856434E+03  0.00000000000E+00 0.  1.
         21   -1    0    0  504  502  0.00000000000E+00 -0.00000000000E+00 -0.61215524801E+03  0.61215524801E+03  0.00000000000E+00 0.  1.
         21    1    1    2  503  501  0.13813552791E+02  0.36437536096E+02  0.39990313772E+02  0.55836667818E+02  0.00000000000E+00 0.  1.
         21    1    1    2  504  503 -0.80305221514E+02 -0.13103919725E+01 -0.53745853272E+03  0.54342646248E+03  0.00000000000E+00 0.  1.
         21    1    1    2  505  502 -0.24337794475E+02  0.18096537132E+02 -0.45753884754E+02  0.54892903605E+02  0.00000000000E+00 0.  1.
         -4    1    1    2    0  505  0.90829463199E+02 -0.53223681256E+02  0.19228542004E+03  0.21921777845E+03  0.00000000000E+00 0.  1.
<scales pt_clust_3="39.08717" pt_clust_4="104.61715" pt_clust_5="30.32842" pt_clust_6="14000.00000"></scales>
<clustering>
<clus scale="   30.328">  2  5  1 -1</clus>
<clus scale="   39.087">  1  3  2 -1</clus>
<clus scale="  104.617">  2  4  1 -1</clus>
<clus scale="   30.328">  2  3  1 -1</clus>
</clustering>
</event>
<event>
 6    0  0.1849053E+002  0.1251261E+03  0.7546771E-02  0.1234872E+00
         21   -1    0    0  503  502  0.00000000000E+00  0.00000000000E+00  0.11086133414E+04  0.11086133414E+04  0.00000000000E+00 0.  1.
          1   -1    0    0  504    0 -0.00000000000E+00 -0.00000000000E+00 -0.40924879376E+03  0.40924879376E+03  0.00000000000E+00 0.  1.
         21    1    1    2  503  501 -0.53100397710E+02 -0.44828964768E+02  0.79762642013E+03  0.80064798407E+03  0.00000000000E+00 0.  1.
         21    1    1    2  504  505  0.28944530561E+02  0.10670520753E+02 -0.50210032198E+01  0.31254701021E+02  0.00000000000E+00 0.  1.
         21    1    1    2  505  502 -0.68716894009E+02  0.75283506569E+01  0.28619032186E+03  0.29442076678E+03  0.00000000000E+00 0.  1.
          1    1    1    2  501    0  0.92872761158E+02  0.26630093358E+02 -0.37943119117E+03  0.39153868324E+03  0.00000000000E+00 0.  1.
<scales pt_clust_3="125.12612" pt_clust_4="30.84876" pt_clust_5="68.83769" pt_clust_6="14000.00000"></scales>
<clustering>
<clus scale="   30.849">  2  4  1 -1</clus>
<clus scale="   68.838">  1  5  2 -1</clus>
<clus scale="  125.126">  1  3  2 -1</clus>
<clus scale="   68.838">  1  3  2 -1</clus>
</clustering>
</event>
<event>
 6    0  0.1849053E+002  0.1728156E+03  0.7546771E-02  0.1174943E+00
          2   -1    0    0  505    0 -0.00000000000E+00  0.00000000000E+00  0.11442913796E+04  0.11442913796E+04  0.00000000000E+00 0.  1.
         21   -1    0    0  503  502  0.00000000000E+00 -0.00000000000E+00 -0.65613380341E+02  0.65613380341E+02  0.00000000000E+00 0. -1.
         21    1    1    2  503  501  0.16772943769E+03 -0.21717640380E+02  0.11180028735E+03  0.20274152121E+03  0.00000000000E+00 0. -1.
         21    1    1    2  504  502  0.27972513245E+01 -0.31242763562E+02  0.19445726671E+02  0.36906248465E+02  0.00000000000E+00 0.  1.
         21    1    1    2  505  504 -0.80708094495E+01  0.42922917048E+02  0.14289335342E+03  0.14941895872E+03  0.00000000000E+00 0. -1.
          2    1    1    2  501    0 -0.16245587957E+03  0.10037486893E+02  0.80453863178E+03  0.82083803151E+03  0.00000000000E+00 0.  1.
<scales pt_clust_3="172.81562" pt_clust_4="31.36774" pt_clust_5="41.88460" pt_clust_6="14000.00000"></scales>
<clustering>
<clus scale="   31.368">  2  4  1 -1</clus>
<clus scale="   41.885">  1  5  2 -1</clus>
<clus scale="  172.816">  2  3  1 -1</clus>
<clus scale="   31.368">  2  3  1 -1</clus>
</clustering>
</event>
<event>
 6    0  0.1849053E+002  0.1322862E+03  0.7546771E-02  0.1224102E+00
          2   -1    0    0  503    0 -0.00000000000E+00  0.00000000000E+00  0.54736562940E+03  0.54736562940E+03  0.00000000000E+00 0.  1.
         21   -1    0    0  501  502  0.00000000000E+00 -0.00000000000E+00 -0.13468231854E+03  0.13468231854E+03  0.00000000000E+00 0.  1.
         21    1    1    2  503  505  0.37122981648E+02 -0.12085025407E+02  0.19731450642E+03  0.20113969785E+03  0.00000000000E+00 0. -1.
         21    1    1    2  504  502 -0.14148323954E+03 -0.23778837267E+02 -0.34364063899E+02  0.14752568949E+03  0.00000000000E+00 0.  1.
         21    1    1    2  505  504  0.85827063385E+01  0.90241238463E+02  0.45689253186E+02  0.10151183096E+03  0.00000000000E+00 0.  1.
          2    1    1    2  501    0  0.95777551554E+02 -0.54377375788E+02  0.20404361515E+03  0.23187072964E+03  0.00000000000E+00 0.  1.
<scales pt_clust_3="39.04054" pt_clust_4="132.28616" pt_clust_5="89.21248" pt_clust_6="14000.00000"></scales>
<clustering>
<clus scale="   39.041">  1  3  2 -1</clus>
<clus scale="   89.212">  1  5  2 -1</clus>
<clus scale="  132.286">  2  4  1 -1</clus>
<clus scale="  132.286">  2  3  1 -1</clus>
</clustering>
</event>
<event>
 6    0  0.1849053E+002  0.8225540E+02  0.7546771E-02  0.1322770E+00
          2   -1    0    0  504    0 -0.00000000000E+00  0.00000000000E+00  0.16724359610E+04  0.16724359610E+04  0.00000000000E+00 0.  1.
         21   -1    0    0  505  502  0.00000000000E+00 -0.00000000000E+00 -0.26706523746E+02  0.26706523746E+02  0.00000000000E+00 0. -1.
         21    1    1    2  503  502 -0.13139579036E+02  0.28098256149E+02  0.19073411367E+02  0.36413672666E+02  0.00000000000E+00 0. -1.
         21    1    1    2  504  503 -0.92556254430E+01  0.49052306124E+02  0.23273787110E+03  0.23803090552E+03  0.00000000000E+00 0.  1.
         21    1    1    2  505  501 -0.70779160971E+02 -0.15048855584E+02  0.87743486364E+02  0.11373248033E+03  0.00000000000E+00 0. -1.
          2    1    1    2  501    0  0.93174365450E+02 -0.62101706689E+02  0.13061746684E+04  0.13109654262E+04  0.00000000000E+00 0.  1.
<scales pt_clust_3="31.01871" pt_clust_4="54.33855" pt_clust_5="82.25540" pt_clust_6="14000.00000"></scales>
<clustering>
<clus scale="   31.019">  2  3  1 -1</clus>
<clus scale="   54.339">  1  4  2 -1</clus>
<clus scale="   82.255">  2  5  1 -1</clus>
<clus scale="   31.019">  2  3  1 -1</clus>
</clustering>
</event>
<event>
 6    0  0.1849053E+002  0.7831891E+02  0.7546771E-02  0.1333891E+00
          2   -1    0    0  504    0 -0.00000000000E+00  0.00000000000E+00  0.16435063737E+04  0.16435063737E+04  0.00000000000E+00 0.  1.
         21   -1    0    0  505  502  0.00000000000E+00 -0.00000000000E+00 -0.34953168285E+03  0.34953168285E+03  0.00000000000E+00 0.  1.
         21    1    1    2  503  502  0.11418017848E+02 -0.34700920891E+02 -0.77497432873E+02  0.85676000981E+02  0.00000000000E+00 0.  1.
         21    1    1    2  504  503  0.32440309989E+02  0.29089160825E+02  0.77736353309E+03  0.77858372419E+03  0.00000000000E+00 0.  1.
         21    1    1    2  505  501 -0.74576048734E+02  0.80728380697E+02 -0.25402006067E+03  0.27677581129E+03  0.00000000000E+00 0.  1.
          2    1    1    2  501    0  0.30717720898E+02 -0.75116620631E+02  0.84812865133E+03  0.85200252011E+03  0.00000000000E+00 0.  1.
<scales pt_clust_3="36.53115" pt_clust_4="43.53906" pt_clust_5="14000.00000" pt_clust_6="78.31891"></scales>
<clustering>
<clus scale="   36.531">  2  3  1 -1</clus>
<clus scale="   43.539">  1  4  2 -1</clus>
<clus scale="   78.319">  1  6  2 -1</clus>
<clus scale="   36.531">  2  3  1 -1</clus>
</clustering>
</event>
<event>
 6    0  0.1849053E+002  0.1135737E+03  0.7546771E-02  0.1254091E+00
         21   -1    0    0  501  502  0.00000000000E+00  0.00000000000E+00  0.53263298742E+02  0.53263298742E+02  0.00000000000E+00 0.  1.
          2   -1    0    0  505    0 -0.00000000000E+00 -0.00000000000E+00 -0.13044994235E+04  0.13044994235E+04  0.00000000000E+00 0. -1.
         21    1    1    2  503  502 -0.15795522985E+02 -0.45641533794E+02 -0.16071383015E+02  0.50901252494E+02  0.00000000000E+00 0.  1.
         21    1    1    2  504  503 -0.59567671735E+02 -0.29235912030E+02 -0.33989751799E+01  0.66442449537E+02  0.00000000000E+00 0.  1.
         21    1    1    2  505  504  0.54440083310E+02 -0.12960312127E+02 -0.46648646074E+03  0.46983115097E+03  0.00000000000E+00 0. -1.
          2    1    1    2  501    0  0.20923111410E+02  0.87837757952E+02 -0.76527930581E+03  0.77058786924E+03  0.00000000000E+00 0. -1.
<scales pt_clust_3="39.13526" pt_clust_4="39.13526" pt_clust_5="55.96153" pt_clust_6="103.89796"></scales>
<clustering>
<clus scale="   39.135">  3  4 -1 -1</clus>
<clus scale="   55.962">  2  5  1 -1</clus>
<clus scale="  103.898">  2  6  1 -1</clus>
<clus scale="  113.574">  1  3  2 -1</clus>
</clustering>
</event>
<event>
 6    0  0.1849053E+002  0.1210154E+03  0.7546771E-02  0.1241431E+00
         21   -1    0    0  504  502  0.00000000000E+00  0.00000000000E+00  0.77906186073E+03  0.77906186073E+03  0.00000000000E+00 0. -1.
          2   -1    0    0  503    0 -0.00000000000E+00 -0.00000000000E+00 -0.13599861801E+04  0.13599861801E+04  0.00000000000E+00 0. -1.
         21    1    1    2  503  505 -0.27500026048E+02 -0.32229036825E+02 -0.20484556774E+03  0.20918094767E+03  0.00000000000E+00 0. -1.
         21    1    1    2  504  501 -0.46272131528E+02 -0.88540630117E+02  0.41811087232E+02  0.10829921677E+03  0.00000000000E+00 0. -1.
         21    1    1    2  505  502  0.44466098123E+02 -0.33754524891E+02  0.69519163133E+03  0.69742957072E+03  0.00000000000E+00 0. -1.
          2    1    1    2  501    0  0.29306059452E+02  0.15452419183E+03 -0.11130814701E+04  0.11241383056E+04  0.00000000000E+00 0. -1.
<scales pt_clust_3="42.36699" pt_clust_4="14000.00000" pt_clust_5="55.82420" pt_clust_6="121.01536"></scales>
<clustering>
<clus scale="   42.367">  2  3  1 -1</clus>
<clus scale="   55.824">  1  5  2 -1</clus>
<clus scale="  121.015">  2  6  1 -1</clus>
<clus scale="   55.824">  1  3  2 -1</clus>
</clustering>
</event>
<event>
 6    0  0.1849053E+002  0.2763199E+03  0.7546771E-02  0.1097716E+00
         21   -1    0    0  503  502  0.00000000000E+00  0.00000000000E+00  0.36105263046E+02  0.36105263046E+02  0.00000000000E+00 0.  1.
          4   -1    0    0  502    0 -0.00000000000E+00 -0.00000000000E+00 -0.31716780411E+04  0.31716780411E+04  0.00000000000E+00 0. -1.
         21    1    1    2  503  504 -0.39510394361E+01 -0.30098377440E+02 -0.87376429693E+02  0.92499532448E+02  0.00000000000E+00 0.  1.
         21    1    1    2  504  505 -0.78968928905E+02  0.56473750041E+02 -0.26835955810E+03  0.28538084834E+03  0.00000000000E+00 0. -1.
         21    1    1    2  505  501 -0.10260901639E+03  0.16501892233E+03 -0.53314199748E+03  0.56745065376E+03  0.00000000000E+00 0.  1.
          4    1    1    2  501    0  0.18552898473E+03 -0.19139429494E+03 -0.22466947928E+04  0.22624522696E+04  0.00000000000E+00 0. -1.
<scales pt_clust_3="30.35660" pt_clust_4="38.49436" pt_clust_5="38.49436" pt_clust_6="271.04500"></scales>
<clustering>
<clus scale="   30.357">  1  3  2 -1</clus>
<clus scale="   38.494">  4  5 -1 -1</clus>
<clus scale="  271.045">  2  6  1 -1</clus>
<clus scale="   30.357">  1  3  2 -1</clus>
</clustering>
</event>
<event>
 6    0  0.1849053E+002  0.8021123E+02  0.7546771E-02  0.1328453E+00
         -1   -1    0    0    0  501 -0.00000000000E+00  0.00000000000E+00  0.69787986140E+03  0.69787986140E+03  0.00000000000E+00 0. -1.
         21   -1    0    0  505  502  0.00000000000E+00 -0.00000000000E+00 -0.15023785126E+04  0.15023785126E+04  0.00000000000E+00 0.  1.
         21    1    1    2  503  502  0.44873797048E+02 -0.43365513484E+02  0.10193468583E+03  0.11951947790E+03  0.00000000000E+00 0.  1.
         21    1    1    2  504  501 -0.36383421199E+02 -0.26439171684E+02 -0.29230452666E+01  0.45070248847E+02  0.00000000000E+00 0. -1.
         21    1    1    2  505  504  0.43043340612E+02 -0.28473020872E+02 -0.14636919324E+04  0.14646014867E+04  0.00000000000E+00 0.  1.
         -1    1    1    2    0  503 -0.51533716461E+02  0.98277706040E+02  0.56018164056E+03  0.57106716055E+03  0.00000000000E+00 0. -1.
<scales pt_clust_3="14000.00000" pt_clust_4="44.97536" pt_clust_5="51.59797" pt_clust_6="80.21123"></scales>
<clustering>
<clus scale="   44.975">  1  4  2 -1</clus>
<clus scale="   51.598">  2  5  1 -1</clus>
<clus scale="   80.211">  1  6  2 -1</clus>
<clus scale="   51.598">  2  3  1 -1</clus>
</clustering>
</event>
<event>
 6    0  0.1849053E+002  0.2079540E+03  0.7546771E-02  0.1143197E+00
         21   -1    0    0  505  502  0.00000000000E+00  0.00000000000E+00  0.16481608752E+03  0.16481608752E+03  0.00000000000E+00 0.  1.
          2   -1    0    0  504    0 -0.00000000000E+00 -0.00000000000E+00 -0.96133094357E+03  0.96133094357E+03  0.00000000000E+00 0.  1.
         21    1    1    2  503  501  0.62273371911E+02 -0.73298898859E+02  0.62282671828E+01  0.96382014583E+02  0.00000000000E+00 0.  1.
         21    1    1    2  504  502 -0.16984754336E+02  0.26107543767E+02 -0.50371923272E+02  0.59223444475E+02  0.00000000000E+00 0. -1.
         21    1    1    2  505  503  0.60539918732E+02 -0.86712172755E+02  0.72485987028E+02  0.12821193774E+03  0.00000000000E+00 0.  1.
          2    1    1    2  501    0 -0.10582853631E+03  0.13390352785E+03 -0.82485718699E+03  0.84232963429E+03  0.00000000000E+00 0.  1.
<scales pt_clust_3="56.70064" pt_clust_4="31.14620" pt_clust_5="56.70064" pt_clust_6="199.21097"></scales>
<clustering>
<clus scale="   31.146">  2  4  1 -1</clus>
<clus scale="   56.701">  3  5 -1 -1</clus>
<clus scale="  199.211">  2  6  1 -1</clus>
<clus scale="  207.954">  1  3  2 -1</clus>
</clustering>
</event>
<event>
 6    0  0.1849053E+002  0.1681820E+03  0.7546771E-02  0.1179757E+00
          2   -1    0    0  503    0 -0.00000000000E+00  0.00000000000E+00  0.73893584138E+03  0.73893584138E+03  0.00000000000E+00 0.  1.
         21   -1    0    0  505  502  0.00000000000E+00 -0.00000000000E+00 -0.52935055375E+03  0.52935055375E+03  0.00000000000E+00 0. -1.
         21    1    1    2  503  502 -0.31336766971E+02  0.14855800112E+03  0.12893809145E+03  0.19918961842E+03  0.00000000000E+00 0.  1.
         21    1    1    2  504  501  0.36740261184E+02  0.10817784662E+01 -0.28690611723E+03  0.28925099332E+03  0.00000000000E+00 0. -1.
         21    1    1    2  505  504  0.51160142421E+02  0.22534298564E+02 -0.18765685619E+03  0.19580666603E+03  0.00000000000E+00 0. -1.
          2    1    1    2  501    0 -0.56563636634E+02 -0.17217407815E+03  0.55521016960E+03  0.58403911736E+03  0.00000000000E+00 0.  1.
<scales pt_clust_3="14000.00000" pt_clust_4="34.27482" pt_clust_5="100.35396" pt_clust_6="168.18203"></scales>
<clustering>
<clus scale="   34.275">  4  5 -1 -1</clus>
<clus scale="  100.354">  2  4  1 -1</clus>
<clus scale="  168.182">  1  6  2 -1</clus>
<clus scale="  100.354">  2  3  1 -1</clus>
</clustering>
</event>
<event>
 6    0  0.1849053E+002  0.7665959E+02  0.7546771E-02  0.1338807E+00
         -3   -1    0    0    0  501 -0.00000000000E+00  0.00000000000E+00  0.36567073235E+04  0.36567073235E+04  0.00000000000E+00 0. -1.
         21   -1    0    0  505  502  0.00000000000E+00 -0.00000000000E+00 -0.51009691026E+02  0.51009691026E+02  0.00000000000E+00 0. -1.
         21    1    1    2  503  504 -0.75866870435E+02 -0.30258474032E+02  0.10719390675E+04  0.10750463812E+04  0.00000000000E+00 0. -1.
         21    1    1    2  504  502 -0.24035030782E+02 -0.20704996585E+02  0.32956277127E+02  0.45743806033E+02  0.00000000000E+00 0.  1.
         21    1    1    2  505  501  0.74415790819E+02 -0.29296285823E+02 -0.46025502346E+01  0.80107214125E+02  0.00000000000E+00 0. -1.
         -3    1    1    2    0  503  0.25486110398E+02  0.80259756440E+02  0.25054048381E+04  0.25068196132E+04  0.00000000000E+00 0. -1.
<scales pt_clust_3="76.65959" pt_clust_4="31.72349" pt_clust_5="71.12478" pt_clust_6="14000.00000"></scales>
<clustering>
<clus scale="   31.723">  2  4  1 -1</clus>
<clus scale="   71.125">  2  5  1 -1</clus>
<clus scale="   76.660">  2  3  1 -1</clus>
<clus scale="   31.723">  2  3  1 -1</clus>
</clustering>
</event>
<event>
 6    0  0.1849053E+002  0.2661184E+03  0.7546771E-02  0.1103522E+00
         21   -1    0    0  503  502  0.00000000000E+00  0.00000000000E+00  0.93419236313E+03  0.93419236313E+03  0.00000000000E+00 0.  1.
          1   -1    0    0  505    0 -0.00000000000E+00 -0.00000000000E+00 -0.14809083124E+04  0.14809083124E+04  0.00000000000E+00 0. -1.
         21    1    1    2  503  501 -0.50175232407E+02  0.21925193521E+02  0.20885964581E+02  0.58604535443E+02  0.00000000000E+00 0. -1.
         21    1    1    2  504  502  0.24172250943E+02  0.18371892600E+03  0.53989225807E+03  0.57080696545E+03  0.00000000000E+00 0.  1.
         21    1    1    2  505  504  0.43115317223E+02  0.43456256971E+02  0.32544833837E+03  0.33115554925E+03  0.00000000000E+00 0.  1.
          1    1    1    2  501    0 -0.17112335759E+02 -0.24910037650E+03 -0.14329425103E+04  0.14545336254E+04  0.00000000000E+00 0. -1.
<scales pt_clust_3="54.75644" pt_clust_4="53.25778" pt_clust_5="53.25778" pt_clust_6="249.46574"></scales>
<clustering>
<clus scale="   53.258">  4  5 -1 -1</clus>
<clus scale="   54.756">  1  3  2 -1</clus>
<clus scale="  249.466">  2  6  1 -1</clus>
<clus scale="   54.756">  1  3  2 -1</clus>
</clustering>
</event>
<event>
 6    0  0.1849053E+002  0.1315659E+03  0.7546771E-02  0.1225151E+00
         -3   -1    0    0    0  501 -0.00000000000E+00  0.00000000000E+00  0.73455919226E+03  0.73455919226E+03  0.00000000000E+00 0.  1.
         21   -1    0    0  504  502  0.00000000000E+00 -0.00000000000E+00 -0.26883895816E+03  0.26883895816E+03  0.00000000000E+00 0. -1.
         21    1    1    2  503  505  0.12185600429E+03 -0.92408066821E+02  0.87537063159E+02  0.17621258190E+03  0.00000000000E+00 0.  1.
         21    1    1    2  504  501  0.52437805649E+02  0.57416662860E+02 -0.17906127945E+03  0.19521613262E+03  0.00000000000E+00 0. -1.
         21    1    1    2  505  502 -0.47117657090E+02  0.78282378517E+01 -0.11017076368E+02  0.49017658953E+02  0.00000000000E+00 0. -1.
         -3    1    1    2    0  503 -0.12717615285E+03  0.27163166109E+02  0.56826152676E+03  0.58295177694E+03  0.00000000000E+00 0.  1.
<scales pt_clust_3="131.56592" pt_clust_4="65.41770" pt_clust_5="47.76353" pt_clust_6="14000.00000"></scales>
<clustering>
<clus scale="   47.764">  2  5  1 -1</clus>
<clus scale="   65.418">  2  4  1 -1</clus>
<clus scale="  131.566">  2  3  1 -1</clus>
<clus scale="   47.764">  2  3  1 -1</clus>
</clustering>
</event>
<event>
 6    0  0.1849053E+002  0.1249946E+03  0.7546771E-02  0.1235078E+00
         21   -1    0    0  503  502  0.00000000000E+00  0.00000000000E+00  0.24699423716E+03  0.24699423716E+03  0.00000000000E+00 0. -1.
          1   -1    0    0  504    0 -0.00000000000E+00 -0.00000000000E+00 -0.16679097555E+04  0.16679097555E+04  0.00000000000E+00 0.  1.
         21    1    1    2  503  501 -0.23284126748E+02 -0.80384119152E+02 -0.18229793767E+02  0.85650934327E+02  0.00000000000E+00 0. -1.
         21    1    1    2  504  505 -0.29885144170E+02  0.10563724146E+02 -0.23256947188E+03  0.23471956322E+03  0.00000000000E+00 0. -1.
         21    1    1    2  505  502  0.92689379891E+02  0.11555222195E+03  0.18560150413E+03  0.23746906215E+03  0.00000000000E+00 0. -1.
          1    1    1    2  501    0 -0.39520108973E+02 -0.45731826946E+02 -0.13557177568E+04  0.13570644329E+04  0.00000000000E+00 0.  1.
<scales pt_clust_3="14000.00000" pt_clust_4="31.69723" pt_clust_5="124.99462" pt_clust_6="76.62866"></scales>
<clustering>
<clus scale="   31.697">  2  4  1 -1</clus>
<clus scale="   76.629">  2  6  1 -1</clus>
<clus scale="  124.995">  1  5  2 -1</clus>
<clus scale="  124.995">  1  3  2 -1</clus>
</clustering>
</event>
<event>
 6    0  0.1849053E+002  0.1265360E+03  0.7546771E-02  0.1232688E+00
          2   -1    0    0  504    0 -0.00000000000E+00  0.00000000000E+00  0.39276521906E+04  0.39276521906E+04  0.00000000000E+00 0. -1.
         21   -1    0    0  505  502  0.00000000000E+00 -0.00000000000E+00 -0.12902099393E+02  0.12902099393E+02  0.00000000000E+00 0. -1.
         21    1    1    2  503  502  0.35072036916E+01  0.90640985928E+02  0.41231124961E+03  0.42217135781E+03  0.00000000000E+00 0. -1.
         21    1    1    2  504  503 -0.20533632291E+02  0.10686406823E+03  0.10264182989E+04  0.10321705690E+04  0.00000000000E+00 0. -1.
         21    1    1    2  505  501  0.33474434600E+01 -0.57481558400E+02  0.28951385259E+03  0.29518402019E+03  0.00000000000E+00 0. -1.
          2    1    1    2  501    0  0.13678985139E+02 -0.14002349576E+03  0.21865066901E+04  0.21910283430E+04  0.00000000000E+00 0. -1.
<scales pt_clust_3="62.70248" pt_clust_4="126.53601" pt_clust_5="57.57895" pt_clust_6="14000.00000"></scales>
<clustering>
<clus scale="   57.579">  2  5  1 -1</clus>
<clus scale="   62.702">  2  3  1 -1</clus>
<clus scale="  126.536">  2  4  1 -1</clus>
<clus scale="   57.579">  2  3  1 -1</clus>
</clustering>
</event>
<event>
 6    0  0.1849053E+002  0.1574177E+03  0.7546771E-02  0.1191643E+00
         21   -1    0    0  501  502  0.00000000000E+00  0.00000000000E+00  0.29878493246E+03  0.29878493246E+03  0.00000000000E+00 0.  1.
         -2   -1    0    0    0  501 -0.00000000000E+00 -0.00000000000E+00 -0.50479077705E+03  0.50479077705E+03  0.00000000000E+00 0. -1.
         21    1    1    2  503  505  0.93768003637E+01 -0.52574044360E+02 -0.26949023931E+02  0.59818094388E+02  0.00000000000E+00 0.  1.
         21    1    1    2  504  502 -0.11957797465E+03  0.11997391038E+03  0.21110271101E+03  0.27066027745E+03  0.00000000000E+00 0.  1.
         21    1    1    2  505  504  0.31533228544E+02 -0.57227801123E+02  0.91565681218E+01  0.65978848607E+02  0.00000000000E+00 0.  1.
         -2    1    1    2    0  503  0.78667945742E+02 -0.10172064895E+02 -0.39931609978E+03  0.40711848906E+03  0.00000000000E+00 0. -1.
<scales pt_clust_3="38.12308" pt_clust_4="151.66448" pt_clust_5="38.12308" pt_clust_6="79.32286"></scales>
<clustering>
<clus scale="   38.123">  3  5 -1 -1</clus>
<clus scale="   79.323">  2  6  1 -1</clus>
<clus scale="  151.664">  1  4  2 -1</clus>
<clus scale="  151.664">  1  3  2 -1</clus>
</clustering>
</event>
<event>
 6    0  0.1849053E+002  0.1903164E+03  0.7546771E-02  0.1158176E+00
         21   -1    0    0  503  502  0.00000000000E+00  0.00000000000E+00  0.72289906562E+03  0.72289906562E+03  0.00000000000E+00 0.  1.
         -2   -1    0    0    0  501 -0.00000000000E+00 -0.00000000000E+00 -0.39806582512E+03  0.39806582512E+03  0.00000000000E+00 0. -1.
         21    1    1    2  503  504  0.47285683967E+02  0.25879359599E+02  0.22801458168E+03  0.23429965134E+03  0.00000000000E+00 0.  1.
         21    1    1    2  504  501  0.30012962780E+01  0.59614648274E+02 -0.12571022659E+03  0.13916168704E+03  0.00000000000E+00 0. -1.
         21    1    1    2  505  502 -0.64197478840E+02  0.16110779224E+03  0.40489934583E+03  0.44047760131E+03  0.00000000000E+00 0.  1.
         -2    1    1    2    0  505  0.13910498595E+02 -0.24660180011E+03 -0.18237046041E+03  0.30702595105E+03  0.00000000000E+00 0. -1.
<scales pt_clust_3="53.90433" pt_clust_4="60.07947" pt_clust_5="14000.00000" pt_clust_6="190.31636"></scales>
<clustering>
<clus scale="   53.904">  1  3  2 -1</clus>
<clus scale="   60.079">  2  4  1 -1</clus>
<clus scale="  190.316">  2  6  1 -1</clus>
<clus scale="   53.904">  1  3  2 -1</clus>
</clustering>
</event>
<event>
 6    0  0.1849053E+002  0.2293378E+03  0.7546771E-02  0.1127107E+00
         21   -1    0    0  505  502  0.00000000000E+00  0.00000000000E+00  0.31358112596E+03  0.31358112596E+03  0.00000000000E+00 0. -1.
         -2   -1    0    0    0  501 -0.00000000000E+00 -0.00000000000E+00 -0.37045006179E+04  0.37045006179E+04  0.00000000000E+00 0.  1.
         21    1    1    2  503  502  0.60321148654E+02 -0.95396553274E+01  0.11785817256E+03  0.13274108195E+03  0.00000000000E+00 0. -1.
         21    1    1    2  504  503 -0.18035893114E+03 -0.18416989655E+03  0.87258865211E+02  0.27214335265E+03  0.00000000000E+00 0. -1.
         21    1    1    2  505  501  0.55181113156E+02 -0.51683358339E+02 -0.39892195193E+03  0.40602321178E+03  0.00000000000E+00 0.  1.
         -2    1    1    2    0  504  0.64856669328E+02  0.24539291022E+03 -0.31971145778E+04  0.32071740975E+04  0.00000000000E+00 0.  1.
<scales pt_clust_3="61.07083" pt_clust_4="14000.00000" pt_clust_5="76.56101" pt_clust_6="229.33777"></scales>
<clustering>
<clus scale="   61.071">  1  3  2 -1</clus>
<clus scale="   76.561">  2  5  1 -1</clus>
<clus scale="  229.338">  2  6  1 -1</clus>
<clus scale="   61.071">  1  3  2 -1</clus>
</clustering>
</event>
<event>
 6    0  0.1849053E+002  0.1706088E+03  0.7546771E-02  0.1177214E+00
         21   -1    0    0  505  502  0.00000000000E+00  0.00000000000E+00  0.40446026055E+03  0.40446026055E+03  0.00000000000E+00 0.  1.
          2   -1    0    0  503    0 -0.00000000000E+00 -0.00000000000E+00 -0.14319953384E+04  0.14319953384E+04  0.00000000000E+00 0.  1.
         21    1    1    2  503  504  0.86177553190E+02 -0.69247111201E+02  0.38295452439E+02  0.11699690065E+03  0.00000000000E+00 0.  1.
         21    1    1    2  504  502 -0.14906319616E+02 -0.77843549862E+02  0.31644107021E+03  0.32621582968E+03  0.00000000000E+00 0.  1.
         21    1    1    2  505  501 -0.10238060697E+02  0.48845674630E+02 -0.64788711392E+03  0.64980645596E+03  0.00000000000E+00 0.  1.
          2    1    1    2  501    0 -0.61033172877E+02  0.98244986433E+02 -0.73438448657E+03  0.74343641265E+03  0.00000000000E+00 0.  1.
<scales pt_clust_3="159.28496" pt_clust_4="79.25791" pt_clust_5="40.14895" pt_clust_6="40.14895"></scales>
<clustering>
<clus scale="   40.149">  5  6 -1 -1</clus>
<clus scale="   79.258">  1  4  2 -1</clus>
<clus scale="  159.285">  1  3  2 -1</clus>
<clus scale="   79.258">  1  3  2 -1</clus>
</clustering>
</event>
<event>
 6    0  0.1849053E+002  0.1548222E+03  0.7546771E-02  0.1194670E+00
          2   -1    0    0  503    0 -0.00000000000E+00  0.00000000000E+00  0.28797800999E+04  0.28797800999E+04  0.00000000000E+00 0. -1.
         21   -1    0    0  505  502  0.00000000000E+00 -0.00000000000E+00 -0.12977493851E+03  0.12977493851E+03  0.00000000000E+00 0.  1.
         21    1    1    2  503  502 -0.15013499516E+03 -0.63905548974E+02 -0.46348677907E+02  0.16962498609E+03  0.00000000000E+00 0.  1.
         21    1    1    2  504  501  0.88505372264E+02  0.10269407396E+02  0.64291585279E+03  0.64906044050E+03  0.00000000000E+00 0. -1.
         21    1    1    2  505  504  0.81581813715E+02  0.10871605837E+03  0.23454988990E+03  0.27108748501E+03  0.00000000000E+00 0.  1.
          2    1    1    2  501    0 -0.19952190816E+02 -0.55079916790E+02  0.19188880966E+04  0.19197821268E+04  0.00000000000E+00 0. -1.
<scales pt_clust_3="154.82224" pt_clust_4="79.71740" pt_clust_5="14000.00000" pt_clust_6="58.58231"></scales>
<clustering>
<clus scale="   58.582">  1  6  2 -1</clus>
<clus scale="   79.717">  1  4  2 -1</clus>
<clus scale="  154.822">  2  3  1 -1</clus>
<clus scale="  154.822">  2  3  1 -1</clus>
</clustering>
</event>
<event>
 6    0  0.1849053E+002  0.2718025E+03  0.7546771E-02  0.1100252E+00
         21   -1    0    0  505  502  0.00000000000E+00  0.00000000000E+00  0.29592026015E+03  0.29592026015E+03  0.00000000000E+00 0.  1.
          2   -1    0    0  502    0 -0.00000000000E+00 -0.00000000000E+00 -0.16773403541E+04  0.16773403541E+04  0.00000000000E+00 0. -1.
         21    1    1    2  503  504  0.12319082825E+02 -0.19689915657E+03 -0.18026530273E+03  0.26723887634E+03  0.00000000000E+00 0.  1.
         21    1    1    2  504  501  0.46413687722E+02 -0.68596641011E+02 -0.33681843686E+03  0.34685211398E+03  0.00000000000E+00 0.  1.
         21    1    1    2  505  503 -0.40019608323E+01  0.30286207359E+03  0.15323385777E+03  0.33944376040E+03  0.00000000000E+00 0.  1.
          2    1    1    2  501    0 -0.54730809715E+02 -0.37366276014E+02 -0.10175702122E+04  0.10197258635E+04  0.00000000000E+00 0. -1.
<scales pt_clust_3="271.80248" pt_clust_4="89.81266" pt_clust_5="14000.00000" pt_clust_6="66.26990"></scales>
<clustering>
<clus scale="   66.270">  2  6  1 -1</clus>
<clus scale="   89.813">  2  4  1 -1</clus>
<clus scale="  271.802">  2  3  1 -1</clus>
<clus scale="  271.802">  1  3  2 -1</clus>
</clustering>
</event>
<event>
 6    0  0.1849053E+002  0.2213447E+03  0.7546771E-02  0.1132884E+00
          2   -1    0    0  505    0 -0.00000000000E+00  0.00000000000E+00  0.12884762688E+03  0.12884762688E+03  0.00000000000E+00 0. -1.
         21   -1    0    0  503  502  0.00000000000E+00 -0.00000000000E+00 -0.99677364322E+03  0.99677364322E+03  0.00000000000E+00 0. -1.
         21    1    1    2  503  504  0.10424371255E+03 -0.94639570608E+02 -0.70587590527E+03  0.71978065657E+03  0.00000000000E+00 0. -1.
         21    1    1    2  504  501  0.27065234254E+02 -0.62296512283E+02 -0.14091319707E+03  0.15642861457E+03  0.00000000000E+00 0. -1.
         21    1    1    2  505  502 -0.62839513302E+02 -0.11986398836E+02 -0.20375636462E+02  0.67138995750E+02  0.00000000000E+00 0. -1.
          2    1    1    2  501    0 -0.68469433503E+02  0.16892248173E+03 -0.76127754835E+00  0.18227300321E+03  0.00000000000E+00 0. -1.
<scales pt_clust_3="65.38932" pt_clust_4="65.38932" pt_clust_5="63.97248" pt_clust_6="200.43345"></scales>
<clustering>
<clus scale="   63.972">  1  5  2 -1</clus>
<clus scale="   65.389">  3  4 -1 -1</clus>
<clus scale="  200.433">  1  6  2 -1</clus>
<clus scale="  221.345">  2  3  1 -1</clus>
</clustering>
</event>
<event>
 6    0  0.2721004E+002  0.1142311E+03  0.7546771E-02  0.1252929E+00
          2   -1    0    0  504    0 -0.00000000000E+00  0.00000000000E+00  0.19514369071E+04  0.19514369071E+04  0.00000000000E+00 0.  1.
         21   -1    0    0  503  502  0.00000000000E+00 -0.00000000000E+00 -0.64419627459E+03  0.64419627459E+03  0.00000000000E+00 0. -1.
         21    1    1    2  503  501 -0.36980874853E+02 -0.45674369088E+02 -0.61615423553E+02  0.85148068188E+02  0.00000000000E+00 0. -1.
         21    1    1    2  504  505 -0.37154462346E+02  0.23010744552E+02  0.55523990447E+02  0.70660186472E+02  0.00000000000E+00 0.  1.
         21    1    1    2  505  502  0.26076532947E+02 -0.68998717706E+02 -0.55939649637E+03  0.56423864522E+03  0.00000000000E+00 0. -1.
          2    1    1    2  501    0  0.48058804253E+02  0.91662342242E+02  0.18727285620E+04  0.18755862818E+04  0.00000000000E+00 0.  1.
<scales pt_clust_3="58.80334" pt_clust_4="43.70296" pt_clust_5="114.23114" pt_clust_6="14000.00000"></scales>
<clustering>
<clus scale="   43.703">  1  4  2 -1</clus>
<clus scale="   58.803">  2  3  1 -1</clus>
<clus scale="  114.231">  2  5  1 -1</clus>
<clus scale="   58.803">  2  3  1 -1</clus>
</clustering>
</event>
<event>
 6    0  0.1849053E+002  0.9188564E+02  0.7546771E-02  0.1298349E+00
         -2   -1    0    0    0  501 -0.00000000000E+00  0.00000000000E+00  0.74085136274E+03  0.74085136274E+03  0.00000000000E+00 0.  1.
         21   -1    0    0  503  502  0.00000000000E+00 -0.00000000000E+00 -0.18528551159E+04  0.18528551159E+04  0.00000000000E+00 0. -1.
         21    1    1    2  503  504 -0.11175119636E+02  0.13853185747E+03 -0.16888864665E+04  0.16945953663E+04  0.00000000000E+00 0. -1.
         21    1    1    2  504  501 -0.34090464104E+02 -0.12746657515E+02  0.66396958958E+02  0.75717852449E+02  0.00000000000E+00 0. -1.
         21    1    1    2  505  502 -0.29617342153E+02 -0.56460542259E+02 -0.14584752421E+03  0.15917437013E+03  0.00000000000E+00 0.  1.
         -2    1    1    2    0  505  0.74882925893E+02 -0.69324657694E+02  0.65633327865E+03  0.66421888968E+03  0.00000000000E+00 0.  1.
<scales pt_clust_3="14000.00000" pt_clust_4="36.39556" pt_clust_5="64.02749" pt_clust_6="91.88564"></scales>
<clustering>
<clus scale="   36.396">  1  4  2 -1</clus>
<clus scale="   64.027">  2  5  1 -1</clus>
<clus scale="   91.886">  1  6  2 -1</clus>
<clus scale="   64.027">  2  3  1 -1</clus>
</clustering>
</event>
<event>
 6    0  0.1849053E+002  0.1160410E+03  0.7546771E-02  0.1249775E+00
          2   -1    0    0  503    0 -0.00000000000E+00  0.00000000000E+00  0.15302412154E+04  0.15302412154E+04  0.00000000000E+00 0.  1.
         21   -1    0    0  501  502  0.00000000000E+00 -0.00000000000E+00 -0.11440678092E+03  0.11440678092E+03  0.00000000000E+00 0.  1.
         21    1    1    2  503  505  0.32026897791E+01  0.31408052459E+02  0.12037848447E+04  0.12041987691E+04  0.00000000000E+00 0.  1.
         21    1    1    2  504  502 -0.57837485784E+02 -0.41195641510E+02 -0.42670417213E+02  0.82843347025E+02  0.00000000000E+00 0.  1.
         21    1    1    2  505  504 -0.13805090489E+02 -0.83210249429E+02  0.74149949577E+01  0.84672948948E+02  0.00000000000E+00 0.  1.
          2    1    1    2  501    0  0.68439886494E+02  0.92997838479E+02  0.24730501198E+03  0.27293293128E+03  0.00000000000E+00 0.  1.
<scales pt_clust_3="31.57092" pt_clust_4="69.74168" pt_clust_5="116.04104" pt_clust_6="14000.00000"></scales>
<clustering>
<clus scale="   31.571">  1  3  2 -1</clus>
<clus scale="   69.742">  2  4  1 -1</clus>
<clus scale="  116.041">  2  5  1 -1</clus>
<clus scale="   69.742">  2  3  1 -1</clus>
</clustering>
</event>
<event>
 6    0  0.1849053E+002  0.1706369E+03  0.7546771E-02  0.1177185E+00
          1   -1    0    0  503    0 -0.00000000000E+00  0.00000000000E+00  0.94077729584E+03  0.94077729584E+03  0.00000000000E+00 0.  1.
         21   -1    0    0  504  502  0.00000000000E+00 -0.00000000000E+00 -0.16166604706E+03  0.16166604706E+03  0.00000000000E+00 0. -1.
         21    1    1    2  503  502  0.77237004881E+02 -0.75053521530E+01  0.12939298231E+03  0.15087885573E+03  0.00000000000E+00 0. -1.
         21    1    1    2  504  505 -0.15007658462E+02 -0.45841689835E+02  0.96290007545E+01  0.49187478030E+02  0.00000000000E+00 0. -1.
         21    1    1    2  505  501 -0.12749465657E+03 -0.66491881531E+02 -0.83335158056E+02  0.16619508516E+03  0.00000000000E+00 0. -1.
          1    1    1    2  501    0  0.65265310146E+02  0.11983892352E+03  0.72342442377E+03  0.73618192399E+03  0.00000000000E+00 0.  1.
<scales pt_clust_3="76.88820" pt_clust_4="48.23578" pt_clust_5="170.63690" pt_clust_6="14000.00000"></scales>
<clustering>
<clus scale="   48.236">  2  4  1 -1</clus>
<clus scale="   76.888">  1  3  2 -1</clus>
<clus scale="  170.637">  2  5  1 -1</clus>
<clus scale="   48.236">  2  3  1 -1</clus>
</clustering>
</event>
<event>
 6    0  0.1849053E+002  0.1136678E+03  0.7546771E-02  0.1253925E+00
         21   -1    0    0  503  502  0.00000000000E+00  0.00000000000E+00  0.92392428464E+02  0.92392428464E+02  0.00000000000E+00 0.  1.
          2   -1    0    0  505    0 -0.00000000000E+00 -0.00000000000E+00 -0.35816321927E+04  0.35816321927E+04  0.00000000000E+00 0. -1.
         21    1    1    2  503  501  0.15115420501E+03 -0.53177984496E+02 -0.50851320230E+02  0.16811111949E+03  0.00000000000E+00 0.  1.
         21    1    1    2  504  502 -0.80709254517E+02  0.35629749967E+02 -0.27767657279E+02  0.92490570536E+02  0.00000000000E+00 0.  1.
         21    1    1    2  505  504  0.31289642656E+02  0.10717423898E+02 -0.11943623464E+04  0.11948202038E+04  0.00000000000E+00 0. -1.
          2    1    1    2  501    0 -0.10173459315E+03  0.68308106307E+01 -0.22162584403E+04  0.22186027273E+04  0.00000000000E+00 0. -1.
<scales pt_clust_3="113.66782" pt_clust_4="14000.00000" pt_clust_5="33.07423" pt_clust_6="74.58193"></scales>
<clustering>
<clus scale="   33.074">  2  5  1 -1</clus>
<clus scale="   74.582">  2  6  1 -1</clus>
<clus scale="  113.668">  2  3  1 -1</clus>
<clus scale="  113.668">  1  3  2 -1</clus>
</clustering>
</event>
<event>
 6    0  0.1849053E+002  0.1059091E+03  0.7546771E-02  0.1268339E+00
          2   -1    0    0  505    0 -0.00000000000E+00  0.00000000000E+00  0.13679461106E+04  0.13679461106E+04  0.00000000000E+00 0. -1.
         21   -1    0    0  503  502  0.00000000000E+00 -0.00000000000E+00 -0.13722542916E+04  0.13722542916E+04  0.00000000000E+00 0.  1.
         21    1    1    2  503  504  0.70789472952E+01 -0.10882742938E+03 -0.13319230266E+04  0.13363803612E+04  0.00000000000E+00 0.  1.
         21    1    1    2  504  501 -0.35756605227E+02  0.58191676232E+02 -0.44405971220E+01  0.68443589201E+02  0.00000000000E+00 0. -1.
         21    1    1    2  505  502 -0.17848858024E+01  0.54976402125E+02  0.10879039162E+04  0.10892935883E+04  0.00000000000E+00 0. -1.
          2    1    1    2  501    0  0.30462543734E+02 -0.43406489765E+01  0.24415152655E+03  0.24608286352E+03  0.00000000000E+00 0. -1.
<scales pt_clust_3="14000.00000" pt_clust_4="105.90914" pt_clust_5="57.85676" pt_clust_6="30.77024"></scales>
<clustering>
<clus scale="   30.770">  1  6  2 -1</clus>
<clus scale="   57.857">  1  5  2 -1</clus>
<clus scale="  105.909">  1  4  2 -1</clus>
<clus scale="  105.909">  2  3  1 -1</clus>
</clustering>
</event>
<event>
 6    0  0.1849053E+002  0.1427416E+03  0.7546771E-02  0.1209687E+00
         21   -1    0    0  504  502  0.00000000000E+00  0.00000000000E+00  0.32881778815E+03  0.32881778815E+03  0.00000000000E+00 0. -1.
         -3   -1    0    0    0  501 -0.00000000000E+00 -0.00000000000E+00 -0.94798079900E+03  0.94798079900E+03  0.00000000000E+00 0. -1.
         21    1    1    2  503  502 -0.12644409467E+02  0.28287677539E+02  0.26454955625E+02  0.40742342451E+02  0.00000000000E+00 0.  1.
         21    1    1    2  504  501 -0.11749145950E+03 -0.42127317043E+01  0.27778490653E+03  0.30163959365E+03  0.00000000000E+00 0. -1.
         21    1    1    2  505  503  0.39796674615E+02 -0.27681110545E+02 -0.22339394451E+03  0.22859324932E+03  0.00000000000E+00 0. -1.
         -3    1    1    2    0  505  0.90339194350E+02  0.36061647101E+01 -0.70000892849E+03  0.70582340172E+03  0.00000000000E+00 0. -1.
<scales pt_clust_3="30.98506" pt_clust_4="132.01699" pt_clust_5="39.67759" pt_clust_6="39.67759"></scales>
<clustering>
<clus scale="   30.985">  1  3  2 -1</clus>
<clus scale="   39.678">  5  6 -1 -1</clus>
<clus scale="  132.017">  1  4  2 -1</clus>
<clus scale="   30.985">  1  3  2 -1</clus>
</clustering>
</event>
<event>
 6    0  0.1849053E+002  0.7292149E+02  0.7546771E-02  0.1350431E+00
          2   -1    0    0  504    0 -0.00000000000E+00  0.00000000000E+00  0.10124243640E+04  0.10124243640E+04  0.00000000000E+00 0.  1.
         21   -1    0    0  503  502  0.00000000000E+00 -0.00000000000E+00 -0.27565727028E+03  0.27565727028E+03  0.00000000000E+00 0.  1.
         21    1    1    2  503  501 -0.29427494545E+02  0.28363365763E+02 -0.27059664937E+02  0.49017174736E+02  0.00000000000E+00 0.  1.
         21    1    1    2  504  505  0.18233150994E+02  0.36935517927E+02  0.61262218397E+02  0.73822352189E+02  0.00000000000E+00 0.  1.
         21    1    1    2  505  502  0.79897332290E+02 -0.79555304030E+02 -0.21618302817E+03  0.24381905540E+03  0.00000000000E+00 0.  1.
          2    1    1    2  501    0 -0.68702988739E+02  0.14256420339E+02  0.91874756844E+03  0.92142305196E+03  0.00000000000E+00 0.  1.
<scales pt_clust_3="40.87124" pt_clust_4="41.53144" pt_clust_5="14000.00000" pt_clust_6="72.92149"></scales>
<clustering>
<clus scale="   40.871">  2  3  1 -1</clus>
<clus scale="   41.531">  1  4  2 -1</clus>
<clus scale="   72.921">  1  6  2 -1</clus>
<clus scale="   40.871">  2  3  1 -1</clus>
</clustering>
</event>
<event>
 6    0  0.1849053E+002  0.1030668E+03  0.7546771E-02  0.1273976E+00
         21   -1    0    0  503  502  0.00000000000E+00  0.00000000000E+00  0.77204831448E+03  0.77204831448E+03  0.00000000000E+00 0. -1.
          2   -1    0    0  504    0 -0.00000000000E+00 -0.00000000000E+00 -0.23239603605E+03  0.23239603605E+03  0.00000000000E+00 0.  1.
         21    1    1    2  503  505 -0.40120896513E+02 -0.10375641558E+02  0.10376452634E+03  0.11173368874E+03  0.00000000000E+00 0. -1.
         21    1    1    2  504  502  0.11188698161E+03  0.67931904778E+02  0.64590367333E+03  0.65903337971E+03  0.00000000000E+00 0. -1.
         21    1    1    2  505  501 -0.24703768303E+02 -0.40472583614E+02 -0.66458916826E+02  0.81640025836E+02  0.00000000000E+00 0.  1.
          2    1    1    2  501    0 -0.47062316791E+02 -0.17083679605E+02 -0.14355700441E+03  0.15203725624E+03  0.00000000000E+00 0.  1.
<scales pt_clust_3="41.44080" pt_clust_4="92.66859" pt_clust_5="43.94593" pt_clust_6="43.94593"></scales>
<clustering>
<clus scale="   41.441">  1  3  2 -1</clus>
<clus scale="   43.946">  5  6 -1 -1</clus>
<clus scale="   92.669">  1  4  2 -1</clus>
<clus scale="   41.441">  1  3  2 -1</clus>
</clustering>
</event>
<event>
 6    0  0.1849053E+002  0.1059685E+03  0.7546771E-02  0.1268223E+00
         21   -1    0    0  503  502  0.00000000000E+00  0.00000000000E+00  0.48812686981E+02  0.48812686981E+02  0.00000000000E+00 0. -1.
          1   -1    0    0  505    0 -0.00000000000E+00 -0.00000000000E+00 -0.25606955643E+04  0.25606955643E+04  0.00000000000E+00 0. -1.
         21    1    1    2  503  501 -0.92452209204E+02  0.29916262425E+02 -0.25212842816E+02  0.10038964681E+03  0.00000000000E+00 0. -1.
         21    1    1    2  504  502 -0.15197258666E+02 -0.35202508390E+02 -0.32923815082E+02  0.50538607692E+02  0.00000000000E+00 0. -1.
         21    1    1    2  505  504  0.14669778511E+02  0.37099419323E+02 -0.30639986506E+03  0.30898615927E+03  0.00000000000E+00 0. -1.
          1    1    1    2  501    0  0.92979689359E+02 -0.31813173358E+02 -0.21473463544E+04  0.21495938375E+04  0.00000000000E+00 0. -1.
<scales pt_clust_3="105.96850" pt_clust_4="38.34284" pt_clust_5="38.65568" pt_clust_6="14000.00000"></scales>
<clustering>
<clus scale="   38.343">  1  4  2 -1</clus>
<clus scale="   38.656">  2  5  1 -1</clus>
<clus scale="  105.969">  1  3  2 -1</clus>
<clus scale="   38.343">  1  3  2 -1</clus>
</clustering>
</event>
<event>
 6    0  0.1849053E+002  0.1041232E+03  0.7546771E-02  0.1271857E+00
         21   -1    0    0  505  502  0.00000000000E+00  0.00000000000E+00  0.68785946276E+03  0.68785946276E+03  0.00000000000E+00 0.  1.
          2   -1    0    0  504    0 -0.00000000000E+00 -0.00000000000E+00 -0.27293067660E+04  0.27293067660E+04  0.00000000000E+00 0. -1.
         21    1    1    2  503  501  0.45584683977E+02 -0.29452897484E+02  0.27775383193E+03  0.28300640936E+03  0.00000000000E+00 0.  1.
         21    1    1    2  504  502  0.23783214569E+02  0.79553748397E+02 -0.32778861288E+03  0.33814170833E+03  0.00000000000E+00 0. -1.
         21    1    1    2  505  503  0.11096808201E+02 -0.45838245615E+02  0.40023974417E+03  0.40300885440E+03  0.00000000000E+00 0.  1.
          2    1    1    2  501    0 -0.80464706747E+02 -0.42626052973E+01 -0.23916522664E+04  0.23930092566E+04  0.00000000000E+00 0. -1.
<scales pt_clust_3="42.31115" pt_clust_4="93.70985" pt_clust_5="42.31115" pt_clust_6="80.57753"></scales>
<clustering>
<clus scale="   42.311">  3  5 -1 -1</clus>
<clus scale="   80.578">  2  6  1 -1</clus>
<clus scale="   93.710">  2  4  1 -1</clus>
<clus scale="  104.123">  1  3  2 -1</clus>
</clustering>
</event>
<event>
 6    0  0.1849053E+002  0.1952594E+03  0.7546771E-02  0.1153801E+00
          1   -1    0    0  504    0 -0.00000000000E+00  0.00000000000E+00  0.13689853365E+04  0.13689853365E+04  0.00000000000E+00 0. -1.
         21   -1    0    0  503  502  0.00000000000E+00 -0.00000000000E+00 -0.37268450727E+02  0.37268450727E+02  0.00000000000E+00 0. -1.
         21    1    1    2  503  501  0.41062260640E+02 -0.49092218721E+02  0.28609440081E+03  0.29316575749E+03  0.00000000000E+00 0.  1.
         21    1    1    2  504  505 -0.98854635633E+02  0.14661654767E+03  0.55486542988E+03  0.58236096736E+03  0.00000000000E+00 0. -1.
         21    1    1    2  505  502 -0.55660141706E+02 -0.10825157448E+02  0.10399520684E+03  0.11844930753E+03  0.00000000000E+00 0. -1.
          1    1    1    2  501    0  0.11345251670E+03 -0.86699171498E+02  0.38676184826E+03  0.41227775486E+03  0.00000000000E+00 0. -1.
<scales pt_clust_3="34.14374" pt_clust_4="188.48163" pt_clust_5="56.70305" pt_clust_6="34.14374"></scales>
<clustering>
<clus scale="   34.144">  3  6 -1 -1</clus>
<clus scale="   56.703">  2  5  1 -1</clus>
<clus scale="  188.482">  1  4  2 -1</clus>
<clus scale="   56.703">  2  3  1 -1</clus>
</clustering>
</event>
<event>
 6    0  0.1849053E+002  0.1332308E+03  0.7546771E-02  0.1222739E+00
          2   -1    0    0  503    0 -0.00000000000E+00  0.00000000000E+00  0.51968413188E+03  0.51968413188E+03  0.00000000000E+00 0.  1.
         21   -1    0    0  505  502  0.00000000000E+00 -0.00000000000E+00 -0.95147102439E+03  0.95147102439E+03  0.00000000000E+00 0.  1.
         21    1    1    2  503  502 -0.53169051522E+00  0.32207099731E+02  0.22550451957E+02  0.39320514383E+02  0.00000000000E+00 0. -1.
         21    1    1    2  504  501 -0.47889530917E+02 -0.88419580832E+02 -0.74155574839E+03  0.74834240653E+03  0.00000000000E+00 0.  1.
         21    1    1    2  505  504  0.37625842857E+02 -0.45952957291E+02 -0.18807129600E+03  0.19722624246E+03  0.00000000000E+00 0. -1.
          2    1    1    2  501    0  0.10795378575E+02  0.10216543839E+03  0.47528969992E+03  0.48626599290E+03  0.00000000000E+00 0.  1.
<scales pt_clust_3="32.21149" pt_clust_4="133.23084" pt_clust_5="59.15549" pt_clust_6="14000.00000"></scales>
<clustering>
<clus scale="   32.211">  1  3  2 -1</clus>
<clus scale="   59.155">  2  5  1 -1</clus>
<clus scale="  133.231">  2  4  1 -1</clus>
<clus scale="   59.155">  2  3  1 -1</clus>
</clustering>
</event>
<event>
 6    0  0.1849053E+002  0.1135799E+03  0.7546771E-02  0.1254081E+00
         21   -1    0    0  503  502  0.00000000000E+00  0.00000000000E+00  0.26555573205E+03  0.26555573205E+03  0.00000000000E+00 0. -1.
          2   -1    0    0  505    0 -0.00000000000E+00 -0.00000000000E+00 -0.24972257502E+03  0.24972257502E+03  0.00000000000E+00 0.  1.
         21    1    1    2  503  504  0.27597065570E+02  0.13603624442E+03  0.11657926386E+03  0.18126826138E+03  0.00000000000E+00 0. -1.
         21    1    1    2  504  501 -0.43115987766E+02 -0.87096343265E+02 -0.63627668134E+02  0.11616041306E+03  0.00000000000E+00 0. -1.
         21    1    1    2  505  502 -0.63262207777E+02 -0.17044573867E+02  0.59966349127E+02  0.88817720410E+02  0.00000000000E+00 0. -1.
          2    1    1    2  501    0  0.78781129973E+02 -0.31895327285E+02 -0.97084787823E+02  0.12903191221E+03  0.00000000000E+00 0.  1.
<scales pt_clust_3="113.57989" pt_clust_4="14000.00000" pt_clust_5="65.51812" pt_clust_6="80.69513"></scales>
<clustering>
<clus scale="   65.518">  1  5  2 -1</clus>
<clus scale="   80.695">  2  6  1 -1</clus>
<clus scale="  113.580">  1  3  2 -1</clus>
<clus scale="   65.518">  1  3  2 -1</clus>
</clustering>
</event>
<event>
 6    0  0.1849053E+002  0.2635876E+03  0.7546771E-02  0.1105007E+00
         -2   -1    0    0    0  501 -0.00000000000E+00  0.00000000000E+00  0.55905317499E+03  0.55905317499E+03  0.00000000000E+00 0. -1.
         21   -1    0    0  504  502  0.00000000000E+00 -0.00000000000E+00 -0.15027317773E+04  0.15027317773E+04  0.00000000000E+00 0.  1.
         21    1    1    2  503  501  0.14032551303E+03  0.38083245249E+02 -0.11145160604E+03  0.18320219339E+03  0.00000000000E+00 0.  1.
         21    1    1    2  504  503 -0.61572832282E+02 -0.48545919755E+02 -0.42506619573E+03  0.43223742405E+03  0.00000000000E+00 0.  1.
         21    1    1    2  505  502 -0.21546667516E+03  0.23360718213E+03 -0.86359363334E+03  0.92021310966E+03  0.00000000000E+00 0.  1.
         -2    1    1    2    0  505  0.13671399441E+03 -0.22314450762E+03  0.45643283278E+03  0.52613222519E+03  0.00000000000E+00 0. -1.
<scales pt_clust_3="135.57206" pt_clust_4="78.40867" pt_clust_5="14000.00000" pt_clust_6="263.58762"></scales>
<clustering>
<clus scale="   78.409">  2  4  1 -1</clus>
<clus scale="  135.572">  2  3  1 -1</clus>
<clus scale="  263.588">  1  6  2 -1</clus>
<clus scale="   78.409">  2  3  1 -1</clus>
</clustering>
</event>
<event>
 6    0  0.1849053E+002  0.1341288E+03  0.7546771E-02  0.1221455E+00
          2   -1    0    0  503    0 -0.00000000000E+00  0.00000000000E+00  0.33372251904E+04  0.33372251904E+04  0.00000000000E+00 0. -1.
         21   -1    0    0  504  502  0.00000000000E+00 -0.00000000000E+00 -0.27983625687E+03  0.27983625687E+03  0.00000000000E+00 0.  1.
         21    1    1    2  503  502  0.33005717403E+02  0.29395469556E+02 -0.19165600916E+03  0.19668629047E+03  0.00000000000E+00 0.  1.
         21    1    1    2  504  505  0.59157886168E+01  0.37013163951E+02 -0.45825148552E+02  0.59202323438E+02  0.00000000000E+00 0.  1.
         21    1    1    2  505  501  0.95565060762E+02 -0.82333894516E+02  0.93687741541E+02  0.15712715850E+03  0.00000000000E+00 0.  1.
          2    1    1    2  501    0 -0.13448656678E+03  0.15925261009E+02  0.32011823497E+04  0.32040456748E+04  0.00000000000E+00 0. -1.
<scales pt_clust_3="71.90824" pt_clust_4="37.48294" pt_clust_5="134.12882" pt_clust_6="14000.00000"></scales>
<clustering>
<clus scale="   37.483">  2  4  1 -1</clus>
<clus scale="   71.908">  2  3  1 -1</clus>
<clus scale="  134.129">  2  5  1 -1</clus>
<clus scale="   37.483">  2  3  1 -1</clus>
</clustering>
</event>
<event>
 6    0  0.1849053E+002  0.1307545E+03  0.7546771E-02  0.1226341E+00
          3   -1    0    0  504    0 -0.00000000000E+00  0.00000000000E+00  0.47684319672E+03  0.47684319672E+03  0.00000000000E+00 0. -1.
         21   -1    0    0  503  502  0.00000000000E+00 -0.00000000000E+00 -0.60624543418E+03  0.60624543418E+03  0.00000000000E+00 0.  1.
         21    1    1    2  503  501  0.31330540204E+02  0.31488899166E+02 -0.13667488234E+02  0.46475302632E+02  0.00000000000E+00 0. -1.
         21    1    1    2  504  505  0.45286548087E+02 -0.17798792624E+02  0.19285761658E+03  0.19890130399E+03  0.00000000000E+00 0. -1.
         21    1    1    2  505  502 -0.98228292562E+02  0.85004178069E+02 -0.55573518656E+03  0.57071543288E+03  0.00000000000E+00 0.  1.
          3    1    1    2  501    0  0.21611204272E+02 -0.98694284611E+02  0.24714282076E+03  0.26699659140E+03  0.00000000000E+00 0. -1.
<scales pt_clust_3="44.42019" pt_clust_4="48.75168" pt_clust_5="130.75448" pt_clust_6="14000.00000"></scales>
<clustering>
<clus scale="   44.420">  2  3  1 -1</clus>
<clus scale="   48.752">  1  4  2 -1</clus>
<clus scale="  130.754">  2  5  1 -1</clus>
<clus scale="   44.420">  2  3  1 -1</clus>
</clustering>
</event>
<event>
 6    0  0.1849053E+002  0.5753049E+03  0.7546771E-02  0.9958008E-01
         21   -1    0    0  505  502  0.00000000000E+00  0.00000000000E+00  0.68004525364E+03  0.68004525364E+03  0.00000000000E+00 0. -1.
          2   -1    0    0  504    0 -0.00000000000E+00 -0.00000000000E+00 -0.27325780786E+04  0.27325780786E+04  0.00000000000E+00 0.  1.
         21    1    1    2  503  502  0.11212701186E+02  0.12056136460E+03 -0.20791665771E+02  0.12285381829E+03  0.00000000000E+00 0. -1.
         21    1    1    2  504  503  0.33565653327E+03  0.29746201007E+03  0.51203099755E+03  0.68067958557E+03  0.00000000000E+00 0. -1.
         21    1    1    2  505  501 -0.84688654687E+02 -0.72906872638E+02 -0.23788331902E+03  0.26282323675E+03  0.00000000000E+00 0.  1.
          2    1    1    2  501    0 -0.26218057977E+03 -0.34511650203E+03 -0.23058888377E+04  0.23462666916E+04  0.00000000000E+00 0.  1.
<scales pt_clust_3="121.08166" pt_clust_4="538.01869" pt_clust_5="103.45590" pt_clust_6="103.45590"></scales>
<clustering>
<clus scale="  103.456">  5  6 -1 -1</clus>
<clus scale="  121.082">  1  3  2 -1</clus>
<clus scale="  538.019">  1  4  2 -1</clus>
<clus scale="  121.082">  1  3  2 -1</clus>
</clustering>
</event>
<event>
 6    0  0.1849053E+002  0.1482975E+03  0.7546771E-02  0.1202581E+00
         21   -1    0    0  505  502  0.00000000000E+00  0.00000000000E+00  0.11092330539E+04  0.11092330539E+04  0.00000000000E+00 0.  1.
         -1   -1    0    0    0  501 -0.00000000000E+00 -0.00000000000E+00 -0.29866547683E+03  0.29866547683E+03  0.00000000000E+00 0.  1.
         21    1    1    2  503  502 -0.68112836115E+02  0.86209108391E+02  0.18661670294E+03  0.21655752730E+03  0.00000000000E+00 0. -1.
         21    1    1    2  504  501  0.75767951549E+02  0.46913516488E+02 -0.11216517115E+03  0.14325741213E+03  0.00000000000E+00 0.  1.
         21    1    1    2  505  504  0.74787862407E+01 -0.18170426293E+03  0.87837227470E+03  0.89700068248E+03  0.00000000000E+00 0.  1.
         -1    1    1    2    0  503 -0.15133901675E+02  0.48581638055E+02 -0.14225622940E+03  0.15108290883E+03  0.00000000000E+00 0.  1.
<scales pt_clust_3="14000.00000" pt_clust_4="108.04013" pt_clust_5="148.29754" pt_clust_6="50.88429"></scales>
<clustering>
<clus scale="   50.884">  2  6  1 -1</clus>
<clus scale="  108.040">  2  4  1 -1</clus>
<clus scale="  148.298">  1  5  2 -1</clus>
<clus scale="  148.298">  1  3  2 -1</clus>
</clustering>
</event>
<event>
 6    0  0.1849053E+002  0.1253073E+03  0.7546771E-02  0.1234590E+00
         21   -1    0    0  501  502  0.00000000000E+00  0.00000000000E+00  0.33394356182E+03  0.33394356182E+03  0.00000000000E+00 0.  1.
          3   -1    0    0  504    0 -0.00000000000E+00 -0.00000000000E+00 -0.12443426651E+03  0.12443426651E+03  0.00000000000E+00 0.  1.
         21    1    1    2  503  505 -0.42975732609E+02  0.10442300765E+02  0.53554187234E+02  0.69455066114E+02  0.00000000000E+00 0.  1.
         21    1    1    2  504  503 -0.33464088526E+02 -0.21567958892E+02 -0.74143708988E+01  0.40496851328E+02  0.00000000000E+00 0.  1.
         21    1    1    2  505  502 -0.67078151288E+02 -0.20022739210E+02  0.18700409705E+03  0.19967704119E+03  0.00000000000E+00 0.  1.
          3    1    1    2  501    0  0.14351797242E+03  0.31148397337E+02 -0.23634618068E+02  0.14874886970E+03  0.00000000000E+00 0.  1.
<scales pt_clust_3="38.61472" pt_clust_4="39.81234" pt_clust_5="38.61472" pt_clust_6="115.50657"></scales>
<clustering>
<clus scale="   38.615">  3  5 -1 -1</clus>
<clus scale="   39.812">  2  4  1 -1</clus>
<clus scale="  115.507">  2  6  1 -1</clus>
<clus scale="  125.307">  1  3  2 -1</clus>
</clustering>
</event>
<event>
 6    0  0.1849053E+002  0.1489577E+03  0.7546771E-02  0.1201760E+00
          3   -1    0    0  505    0 -0.00000000000E+00  0.00000000000E+00  0.29639390285E+02  0.29639390285E+02  0.00000000000E+00 0. -1.
         21   -1    0    0  503  502  0.00000000000E+00 -0.00000000000E+00 -0.18066246431E+04  0.18066246431E+04  0.00000000000E+00 0.  1.
         21    1    1    2  503  501  0.80152291004E+01  0.53675063998E+02 -0.20908013464E+03  0.21600870143E+03  0.00000000000E+00 0. -1.
         21    1    1    2  504  502  0.65259921680E+02 -0.12598975205E+03 -0.13990638314E+04  0.14062403349E+04  0.00000000000E+00 0.  1.
         21    1    1    2  505  504 -0.38171138855E+02  0.27751101456E+01 -0.14125497910E+02  0.40795425835E+02  0.00000000000E+00 0. -1.
          3    1    1    2  501    0 -0.35104011925E+02  0.69539577901E+02 -0.15471578880E+03  0.17321957121E+03  0.00000000000E+00 0. -1.
<scales pt_clust_3="43.92700" pt_clust_4="137.66944" pt_clust_5="38.27188" pt_clust_6="43.92700"></scales>
<clustering>
<clus scale="   38.272">  1  5  2 -1</clus>
<clus scale="   43.927">  3  6 -1 -1</clus>
<clus scale="  137.669">  2  4  1 -1</clus>
<clus scale="  137.669">  2  3  1 -1</clus>
</clustering>
</event>
<event>
 6    0  0.1849053E+002  0.8622720E+02  0.7546771E-02  0.1312254E+00
         21   -1    0    0  503  502  0.00000000000E+00  0.00000000000E+00  0.73920424205E+03  0.73920424205E+03  0.00000000000E+00 0.  1.
         -1   -1    0    0    0  501 -0.00000000000E+00 -0.00000000000E+00 -0.21029115157E+03  0.21029115157E+03  0.00000000000E+00 0.  1.
         21    1    1    2  503  505 -0.94426321913E+01 -0.35138737951E+02  0.36335746022E+03  0.36517466794E+03  0.00000000000E+00 0. -1.
         21    1    1    2  504  502 -0.49757503247E+02 -0.92116918323E+01  0.32420926233E+03  0.32813459156E+03  0.00000000000E+00 0.  1.
         21    1    1    2  505  501 -0.61400569358E+02  0.46889220967E+02 -0.84939269568E+02  0.11481858941E+03  0.00000000000E+00 0.  1.
         -1    1    1    2    0  504  0.12060070480E+03 -0.25387911838E+01 -0.73714362497E+02  0.14136754471E+03  0.00000000000E+00 0.  1.
<scales pt_clust_3="36.38536" pt_clust_4="70.30795" pt_clust_5="14000.00000" pt_clust_6="86.22720"></scales>
<clustering>
<clus scale="   36.385">  1  3  2 -1</clus>
<clus scale="   70.308">  1  4  2 -1</clus>
<clus scale="   86.227">  1  6  2 -1</clus>
<clus scale="   36.385">  1  3  2 -1</clus>
</clustering>
</event>
<event>
 6    0  0.1849053E+002  0.1309924E+03  0.7546771E-02  0.1225991E+00
          2   -1    0    0  505    0 -0.00000000000E+00  0.00000000000E+00  0.25453512823E+04  0.25453512823E+04  0.00000000000E+00 0.  1.
         21   -1    0    0  504  502  0.00000000000E+00 -0.00000000000E+00 -0.81061436929E+02  0.81061436929E+02  0.00000000000E+00 0.  1.
         21    1    1    2  503  502  0.49766452566E+02 -0.13853309989E+02 -0.11758520074E+02  0.52979965959E+02  0.00000000000E+00 0.  1.
         21    1    1    2  504  501 -0.56634791039E+02  0.17470283362E+02  0.87136284102E+03  0.87337615669E+03  0.00000000000E+00 0.  1.
         21    1    1    2  505  503  0.43453464463E+02 -0.60952323529E+02 -0.17150274076E+02  0.76795320289E+02  0.00000000000E+00 0.  1.
          2    1    1    2  501    0 -0.36585125990E+02  0.57335350156E+02  0.16218357985E+04  0.16232612763E+04  0.00000000000E+00 0.  1.
<scales pt_clust_3="34.45339" pt_clust_4="50.03743" pt_clust_5="126.51445" pt_clust_6="50.03743"></scales>
<clustering>
<clus scale="   34.453">  3  5 -1 -1</clus>
<clus scale="   50.037">  4  6 -1 -1</clus>
<clus scale="  126.514">  2  3  1 -1</clus>
<clus scale="  126.514">  2  3  1 -1</clus>
</clustering>
</event>
<event>
 6    0  0.1849053E+002  0.1340221E+03  0.7546771E-02  0.1221607E+00
          2   -1    0    0  503    0 -0.00000000000E+00  0.00000000000E+00  0.31667044768E+04  0.31667044768E+04  0.00000000000E+00 0. -1.
         21   -1    0    0  505  502  0.00000000000E+00 -0.00000000000E+00 -0.18003522767E+02  0.18003522767E+02  0.00000000000E+00 0.  1.
         21    1    1    2  503  502 -0.10053927361E+02  0.99903721403E+02  0.29480648949E+03  0.31143651239E+03  0.00000000000E+00 0.  1.
         21    1    1    2  504  501  0.24987338736E+02 -0.32801467079E+02  0.57492759743E+03  0.57640441152E+03  0.00000000000E+00 0.  1.
         21    1    1    2  505  504 -0.24758085016E+02  0.25935484129E+02  0.32316811420E+02  0.48269953502E+02  0.00000000000E+00 0.  1.
          2    1    1    2  501    0  0.98246736405E+01 -0.93037738453E+02  0.22466500557E+04  0.22485971221E+04  0.00000000000E+00 0. -1.
<scales pt_clust_3="125.20425" pt_clust_4="31.74096" pt_clust_5="35.85543" pt_clust_6="31.74096"></scales>
<clustering>
<clus scale="   31.741">  4  6 -1 -1</clus>
<clus scale="   35.855">  2  5  1 -1</clus>
<clus scale="  125.204">  2  3  1 -1</clus>
<clus scale="   35.855">  2  3  1 -1</clus>
</clustering>
</event>
<event>
 6    0  0.1849053E+002  0.1462992E+03  0.7546771E-02  0.1205096E+00
         21   -1    0    0  505  502  0.00000000000E+00  0.00000000000E+00  0.49477438776E+01  0.49477438776E+01  0.00000000000E+00 0.  1.
          2   -1    0    0  503    0 -0.00000000000E+00 -0.00000000000E+00 -0.56519602192E+04  0.56519602192E+04  0.00000000000E+00 0.  1.
         21    1    1    2  503  504 -0.26455945277E+02  0.47507593376E+02 -0.87263450323E+03  0.87432709251E+03  0.00000000000E+00 0.  1.
         21    1    1    2  504  502 -0.32967241210E+02  0.71953240200E+02 -0.52304656987E+03  0.52900077696E+03  0.00000000000E+00 0.  1.
         21    1    1    2  505  501  0.18043643303E+02 -0.52132604063E+02 -0.12635501788E+04  0.12647539033E+04  0.00000000000E+00 0. -1.
          2    1    1    2  501    0  0.41379543184E+02 -0.67328229513E+02 -0.29877812234E+04  0.29888261904E+04  0.00000000000E+00 0.  1.
<scales pt_clust_3="49.74304" pt_clust_4="49.74304" pt_clust_5="30.38896" pt_clust_6="138.29288"></scales>
<clustering>
<clus scale="   30.389">  5  6 -1 -1</clus>
<clus scale="   49.743">  3  4 -1 -1</clus>
<clus scale="  138.293">  2  5  1 -1</clus>
<clus scale="  146.299">  1  3  2 -1</clus>
</clustering>
</event>
<event>
 6    0  0.1849053E+002  0.8408900E+02  0.7546771E-02  0.1317832E+00
         21   -1    0    0  503  502  0.00000000000E+00  0.00000000000E+00  0.45989921359E+02  0.45989921359E+02  0.00000000000E+00 0.  1.
          2   -1    0    0  505    0 -0.00000000000E+00 -0.00000000000E+00 -0.30396792040E+04  0.30396792040E+04  0.00000000000E+00 0. -1.
         21    1    1    2  503  501  0.31099327561E+02 -0.15202983358E+02 -0.27097203093E+02  0.43960860924E+02  0.00000000000E+00 0.  1.
         21    1    1    2  504  502  0.40087797107E+02  0.49997529510E+01  0.16834990087E+02  0.43765807403E+02  0.00000000000E+00 0.  1.
         21    1    1    2  505  504 -0.74749037285E+02  0.92671952208E+02 -0.53344845337E+03  0.54657365625E+03  0.00000000000E+00 0.  1.
          2    1    1    2  501    0  0.35619126180E+01 -0.82468721801E+02 -0.24499786162E+04  0.24513688007E+04  0.00000000000E+00 0. -1.
<scales pt_clust_3="34.61645" pt_clust_4="65.58121" pt_clust_5="84.08900" pt_clust_6="14000.00000"></scales>
<clustering>
<clus scale="   34.616">  1  3  2 -1</clus>
<clus scale="   65.581">  1  4  2 -1</clus>
<clus scale="   84.089">  1  5  2 -1</clus>
<clus scale="   34.616">  1  3  2 -1</clus>
</clustering>
</event>
<event>
 6    0  0.1849053E+002  0.1497315E+03  0.7546771E-02  0.1200803E+00
          1   -1    0    0  503    0 -0.00000000000E+00  0.00000000000E+00  0.34490020847E+04  0.34490020847E+04  0.00000000000E+00 0.  1.
         21   -1    0    0  505  502  0.00000000000E+00 -0.00000000000E+00 -0.70718414447E+02  0.70718414447E+02  0.00000000000E+00 0. -1.
         21    1    1    2  503  504  0.35086433103E+02 -0.10776330615E+03 -0.80707811252E+01  0.11361833236E+03  0.00000000000E+00 0. -1.
         21    1    1    2  504  502 -0.12111377168E+02 -0.46116294368E+02  0.11188602825E+03  0.12162187871E+03  0.00000000000E+00 0.  1.
         21    1    1    2  505  501  0.74487866549E+02  0.13648962520E+03  0.21831841602E+04  0.21887144486E+04  0.00000000000E+00 0.  1.
          1    1    1    2  501    0 -0.97462922484E+02  0.17389975326E+02  0.10912842629E+04  0.10957658395E+04  0.00000000000E+00 0.  1.
<scales pt_clust_3="14000.00000" pt_clust_4="47.68016" pt_clust_5="149.73147" pt_clust_6="99.14545"></scales>
<clustering>
<clus scale="   47.680">  2  4  1 -1</clus>
<clus scale="   99.145">  1  6  2 -1</clus>
<clus scale="  149.731">  1  5  2 -1</clus>
<clus scale="   47.680">  2  3  1 -1</clus>
</clustering>
</event>
<event>
 6    0  0.1849053E+002  0.8839908E+02  0.7546771E-02  0.1306776E+00
         21   -1    0    0  505  502  0.00000000000E+00  0.00000000000E+00  0.23262723436E+03  0.23262723436E+03  0.00000000000E+00 0. -1.
          4   -1    0    0  504    0 -0.00000000000E+00 -0.00000000000E+00 -0.14097382574E+04  0.14097382574E+04  0.00000000000E+00 0. -1.
         21    1    1    2  503  502  0.10265392039E+03 -0.10048553488E+03  0.12729228183E+03  0.19193356951E+03  0.00000000000E+00 0. -1.
         21    1    1    2  504  503 -0.29843020659E+02  0.27571540525E+02 -0.11672612465E+03  0.12359524225E+03  0.00000000000E+00 0. -1.
         21    1    1    2  505  501 -0.17640136720E+02  0.75260972955E+02  0.47301131445E+02  0.90624420051E+02  0.00000000000E+00 0. -1.
          4    1    1    2  501    0 -0.55170763017E+02 -0.23469785981E+01 -0.12349783116E+04  0.12362122599E+04  0.00000000000E+00 0. -1.
<scales pt_clust_3="14000.00000" pt_clust_4="40.62999" pt_clust_5="77.86688" pt_clust_6="88.39908"></scales>
<clustering>
<clus scale="   40.630">  2  4  1 -1</clus>
<clus scale="   77.867">  1  5  2 -1</clus>
<clus scale="   88.399">  2  6  1 -1</clus>
<clus scale="   77.867">  1  3  2 -1</clus>
</clustering>
</event>
<event>
 6    0  0.1849053E+002  0.9688896E+02  0.7546771E-02  0.1286977E+00
         21   -1    0    0  504  502  0.00000000000E+00  0.00000000000E+00  0.78250541524E+02  0.78250541524E+02  0.00000000000E+00 0.  1.
         -1   -1    0    0    0  501 -0.00000000000E+00 -0.00000000000E+00 -0.12512924856E+04  0.12512924856E+04  0.00000000000E+00 0. -1.
         21    1    1    2  503  501  0.28145444785E+02 -0.21680061278E+02 -0.28058180155E+03  0.28282209687E+03  0.00000000000E+00 0. -1.
         21    1    1    2  504  503  0.40376847580E+02  0.27180106918E+01 -0.22247672477E+02  0.46180475672E+02  0.00000000000E+00 0. -1.
         21    1    1    2  505  502  0.25615271926E+02  0.70409264123E+02  0.39380558212E+02  0.84642985505E+02  0.00000000000E+00 0.  1.
         -1    1    1    2    0  505 -0.94137564291E+02 -0.51447213537E+02 -0.90959302824E+03  0.91589746905E+03  0.00000000000E+00 0. -1.
<scales pt_clust_3="35.52733" pt_clust_4="41.41609" pt_clust_5="96.88896" pt_clust_6="14000.00000"></scales>
<clustering>
<clus scale="   35.527">  2  3  1 -1</clus>
<clus scale="   41.416">  1  4  2 -1</clus>
<clus scale="   96.889">  1  5  2 -1</clus>
<clus scale="   41.416">  1  3  2 -1</clus>
</clustering>
</event>
<event>
 6    0  0.1849053E+002  0.6782244E+02  0.7546771E-02  0.1367658E+00
          1   -1    0    0  505    0 -0.00000000000E+00  0.00000000000E+00  0.13048043979E+04  0.13048043979E+04  0.00000000000E+00 0.  1.
         21   -1    0    0  503  502  0.00000000000E+00 -0.00000000000E+00 -0.17441630078E+03  0.17441630078E+03  0.00000000000E+00 0.  1.
         21    1    1    2  503  504 -0.13868791659E+02 -0.10826511374E+03 -0.16819282308E+02  0.11043806632E+03  0.00000000000E+00 0.  1.
         21    1    1    2  504  501  0.44054867481E+02  0.61158765326E+02  0.30578647628E+03  0.31493903379E+03  0.00000000000E+00 0.  1.
         21    1    1    2  505  502  0.71425693153E+01  0.44148733829E+02 -0.10111514817E+03  0.11056400945E+03  0.00000000000E+00 0.  1.
          1    1    1    2  501    0 -0.37328645137E+02  0.29576145800E+01  0.94253605130E+03  0.94327958911E+03  0.00000000000E+00 0.  1.
<scales pt_clust_3="67.82244" pt_clust_4="14000.00000" pt_clust_5="44.68572" pt_clust_6="37.44563"></scales>
<clustering>
<clus scale="   37.446">  1  6  2 -1</clus>
<clus scale="   44.686">  2  5  1 -1</clus>
<clus scale="   67.822">  2  3  1 -1</clus>
<clus scale="   44.686">  2  3  1 -1</clus>
</clustering>
</event>
<event>
 6    0  0.1849053E+002  0.8714660E+02  0.7546771E-02  0.1309913E+00
         -4   -1    0    0    0  501 -0.00000000000E+00  0.00000000000E+00  0.25034137595E+02  0.25034137595E+02  0.00000000000E+00 0. -1.
         21   -1    0    0  504  502  0.00000000000E+00 -0.00000000000E+00 -0.10140861400E+04  0.10140861400E+04  0.00000000000E+00 0. -1.
         21    1    1    2  503  502 -0.45200881052E+02 -0.40228322478E+01 -0.14387237610E+03  0.15085941612E+03  0.00000000000E+00 0. -1.
         21    1    1    2  504  501  0.27090061865E+02 -0.14308841768E+02 -0.10645039619E+03  0.11077139186E+03  0.00000000000E+00 0.  1.
         21    1    1    2  505  503 -0.12167618966E+02  0.98198544795E+02 -0.63708111917E+03  0.64471959607E+03  0.00000000000E+00 0. -1.
         -4    1    1    2    0  505  0.30278438152E+02 -0.79866870779E+02 -0.10164811096E+03  0.13276987356E+03  0.00000000000E+00 0. -1.
<scales pt_clust_3="41.28351" pt_clust_4="30.63681" pt_clust_5="14000.00000" pt_clust_6="87.14660"></scales>
<clustering>
<clus scale="   30.637">  2  4  1 -1</clus>
<clus scale="   41.284">  2  3  1 -1</clus>
<clus scale="   87.147">  1  6  2 -1</clus>
<clus scale="   30.637">  2  3  1 -1</clus>
</clustering>
</event>
<event>
 6    0  0.1849053E+002  0.1085718E+03  0.7546771E-02  0.1263238E+00
         21   -1    0    0  501  502  0.00000000000E+00  0.00000000000E+00  0.10772356511E+03  0.10772356511E+03  0.00000000000E+00 0.  1.
          1   -1    0    0  504    0 -0.00000000000E+00 -0.00000000000E+00 -0.18811498221E+04  0.18811498221E+04  0.00000000000E+00 0. -1.
         21    1    1    2  503  502 -0.90267316982E+02 -0.39948449810E+02 -0.37897480077E+01  0.98784762729E+02  0.00000000000E+00 0.  1.
         21    1    1    2  504  505  0.17584371164E+01 -0.55464046215E+02 -0.17991778400E+03  0.18828107054E+03  0.00000000000E+00 0.  1.
         21    1    1    2  505  503  0.12599871644E+03  0.10019153781E+02 -0.18405874839E+02  0.12772954323E+03  0.00000000000E+00 0.  1.
          1    1    1    2  501    0 -0.37489836571E+02  0.85393342245E+02 -0.15713128502E+04  0.15740780107E+04  0.00000000000E+00 0. -1.
<scales pt_clust_3="108.57183" pt_clust_4="55.49191" pt_clust_5="14000.00000" pt_clust_6="49.41173"></scales>
<clustering>
<clus scale="   55.492">  2  4  1 -1</clus>
<clus scale="   49.412">  2  6  1 -1</clus>
<clus scale="  108.572">  1  3  2 -1</clus>
<clus scale="  108.572">  1  3  2 -1</clus>
</clustering>
</event>
<event>
 6    0  0.1849053E+002  0.8939823E+03  0.7546771E-02  0.9433135E-01
         21   -1    0    0  505  502  0.00000000000E+00  0.00000000000E+00  0.26804490164E+04  0.26804490164E+04  0.00000000000E+00 0. -1.
          2   -1    0    0  503    0 -0.00000000000E+00 -0.00000000000E+00 -0.11143530256E+04  0.11143530256E+04  0.00000000000E+00 0. -1.
         21    1    1    2  503  502  0.39788706821E+03  0.21571919003E+03  0.11287438074E+04  0.12161050410E+04  0.00000000000E+00 0. -1.
         21    1    1    2  504  501 -0.13602426616E+03 -0.17931168427E+03 -0.12608887465E+03  0.25798000971E+03  0.00000000000E+00 0.  1.
         21    1    1    2  505  504  0.84382974006E+00  0.62908727733E+03  0.12052577496E+04  0.13595579272E+04  0.00000000000E+00 0. -1.
          2    1    1    2  501    0 -0.26270663179E+03 -0.66549478310E+03 -0.64181669155E+03  0.96115906398E+03  0.00000000000E+00 0. -1.
<scales pt_clust_3="452.60235" pt_clust_4="86.77479" pt_clust_5="880.49282" pt_clust_6="86.77479"></scales>
<clustering>
<clus scale="   86.775">  4  6 -1 -1</clus>
<clus scale="  452.602">  1  3  2 -1</clus>
<clus scale="  880.493">  1  5  2 -1</clus>
<clus scale="  452.602">  1  3  2 -1</clus>
</clustering>
</event>
<event>
 6    0  0.1849053E+002  0.1026456E+03  0.7546771E-02  0.1274829E+00
         21   -1    0    0  501  502  0.00000000000E+00  0.00000000000E+00  0.36216445013E+02  0.36216445013E+02  0.00000000000E+00 0. -1.
          1   -1    0    0  503    0 -0.00000000000E+00 -0.00000000000E+00 -0.19960494359E+04  0.19960494359E+04  0.00000000000E+00 0.  1.
         21    1    1    2  503  504 -0.56954940429E+02  0.94777553876E+01 -0.83013616462E+03  0.83214166155E+03  0.00000000000E+00 0. -1.
         21    1    1    2  504  505 -0.26516447859E+02  0.26535148138E+02 -0.38487796492E+02  0.53745200461E+02  0.00000000000E+00 0.  1.
         21    1    1    2  505  502 -0.54212842000E+02  0.15360800799E+02 -0.12514291158E+02  0.57719961210E+02  0.00000000000E+00 0. -1.
          1    1    1    2  501    0  0.13768423029E+03 -0.51373704324E+02 -0.10786947386E+04  0.10886590577E+04  0.00000000000E+00 0.  1.
<scales pt_clust_3="57.73814" pt_clust_4="32.13153" pt_clust_5="32.13153" pt_clust_6="94.79104"></scales>
<clustering>
<clus scale="   32.132">  4  5 -1 -1</clus>
<clus scale="   57.738">  2  3  1 -1</clus>
<clus scale="   94.791">  2  6  1 -1</clus>
<clus scale="  102.646">  1  3  2 -1</clus>
</clustering>
</event>
<event>
 6    0  0.1849053E+002  0.1385384E+03  0.7546771E-02  0.1215309E+00
          2   -1    0    0  503    0 -0.00000000000E+00  0.00000000000E+00  0.13851649644E+04  0.13851649644E+04  0.00000000000E+00 0. -1.
         21   -1    0    0  505  502  0.00000000000E+00 -0.00000000000E+00 -0.10135887467E+03  0.10135887467E+03  0.00000000000E+00 0. -1.
         21    1    1    2  503  502  0.41564260622E+02  0.25476593590E+02  0.24658335401E+03  0.25135631095E+03  0.00000000000E+00 0. -1.
         21    1    1    2  504  501 -0.57301734494E+02 -0.92485839710E+02  0.10872763154E+02  0.10934046050E+03  0.00000000000E+00 0. -1.
         21    1    1    2  505  504 -0.15464166993E+02 -0.34212418866E+02 -0.39633863306E+02  0.54593710132E+02  0.00000000000E+00 0. -1.
          2    1    1    2  501    0  0.31201640864E+02  0.10122166499E+03  0.10659838359E+04  0.10712333575E+04  0.00000000000E+00 0. -1.
<scales pt_clust_3="47.39330" pt_clust_4="14000.00000" pt_clust_5="37.54504" pt_clust_6="138.53841"></scales>
<clustering>
<clus scale="   37.545">  2  5  1 -1</clus>
<clus scale="   47.393">  1  3  2 -1</clus>
<clus scale="  138.538">  1  6  2 -1</clus>
<clus scale="   37.545">  2  3  1 -1</clus>
</clustering>
</event>
<event>
 6    0  0.1849053E+002  0.1026372E+03  0.7546771E-02  0.1274846E+00
         21   -1    0    0  504  502  0.00000000000E+00  0.00000000000E+00  0.95314491784E+02  0.95314491784E+02  0.00000000000E+00 0. -1.
          2   -1    0    0  502    0 -0.00000000000E+00 -0.00000000000E+00 -0.16628911973E+04  0.16628911973E+04  0.00000000000E+00 0. -1.
         21    1    1    2  503  501  0.80767475174E+01  0.39082218818E+02 -0.20327048431E+03  0.20715101609E+03  0.00000000000E+00 0. -1.
         21    1    1    2  504  505 -0.94586250775E+02  0.29015649129E+02  0.39976812478E+02  0.10670807029E+03  0.00000000000E+00 0. -1.
         21    1    1    2  505  503  0.10582600296E+03 -0.93546917167E+02 -0.23190199975E+03  0.27153030420E+03  0.00000000000E+00 0. -1.
          2    1    1    2  501    0 -0.19316499703E+02  0.25449049221E+02 -0.11723810340E+04  0.11728162985E+04  0.00000000000E+00 0. -1.
<scales pt_clust_3="49.73386" pt_clust_4="102.63715" pt_clust_5="14000.00000" pt_clust_6="31.94967"></scales>
<clustering>
<clus scale="   31.950">  2  6  1 -1</clus>
<clus scale="   49.734">  2  3  1 -1</clus>
<clus scale="  102.637">  1  4  2 -1</clus>
<clus scale="  102.637">  1  3  2 -1</clus>
</clustering>
</event>
<event>
 6    0  0.1849053E+002  0.5982818E+03  0.7546771E-02  0.9908977E-01
          2   -1    0    0  504    0 -0.00000000000E+00  0.00000000000E+00  0.72824074339E+03  0.72824074339E+03  0.00000000000E+00 0.  1.
         21   -1    0    0  503  502  0.00000000000E+00 -0.00000000000E+00 -0.50461572202E+03  0.50461572202E+03  0.00000000000E+00 0.  1.
         21    1    1    2  503  501  0.27213307885E+03  0.23030551840E+03  0.14833993647E+03  0.38613699792E+03  0.00000000000E+00 0.  1.
         21    1    1    2  504  505 -0.10349731134E+03 -0.40226962552E+02 -0.94559896448E+01  0.11144199258E+03  0.00000000000E+00 0.  1.
         21    1    1    2  505  502 -0.38476546781E+03 -0.29569584958E+03  0.17836134632E+02  0.48559100937E+03  0.00000000000E+00 0.  1.
          2    1    1    2  501    0  0.21612970030E+03  0.10561729373E+03  0.66904939909E+02  0.24968646554E+03  0.00000000000E+00 0.  1.
<scales pt_clust_3="67.21962" pt_clust_4="34.27346" pt_clust_5="596.97419" pt_clust_6="67.21962"></scales>
<clustering>
<clus scale="   34.273">  4  5 -1 -1</clus>
<clus scale="   67.220">  3  6 -1 -1</clus>
<clus scale="  596.974">  2  4  1 -1</clus>
<clus scale="  596.974">  2  3  1 -1</clus>
</clustering>
</event>
<event>
 6    0  0.1849053E+002  0.1258550E+03  0.7546771E-02  0.1233739E+00
          1   -1    0    0  505    0 -0.00000000000E+00  0.00000000000E+00  0.16441227556E+04  0.16441227556E+04  0.00000000000E+00 0.  1.
         21   -1    0    0  501  502  0.00000000000E+00 -0.00000000000E+00 -0.85138027393E+02  0.85138027393E+02  0.00000000000E+00 0.  1.
         21    1    1    2  503  502 -0.24499618630E+02  0.26821338372E+02 -0.22984053542E+02  0.42987000620E+02  0.00000000000E+00 0.  1.
         21    1    1    2  504  503  0.46041913593E+01  0.87086414446E+02 -0.10593203705E+02  0.87849064445E+02  0.00000000000E+00 0.  1.
         21    1    1    2  505  504 -0.25921224640E+02 -0.21690345959E+02  0.39993298551E+03  0.40135865992E+03  0.00000000000E+00 0.  1.
          1    1    1    2  501    0  0.45816651911E+02 -0.92217406859E+02  0.11926289999E+04  0.11970660580E+04  0.00000000000E+00 0.  1.
<scales pt_clust_3="33.03474" pt_clust_4="33.03474" pt_clust_5="33.79913" pt_clust_6="114.97670"></scales>
<clustering>
<clus scale="   33.035">  3  4 -1 -1</clus>
<clus scale="   33.799">  1  5  2 -1</clus>
<clus scale="  114.977">  1  6  2 -1</clus>
<clus scale="  125.855">  2  3  1 -1</clus>
</clustering>
</event>
<event>
 6    0  0.1893966E+002  0.1176842E+03  0.7546771E-02  0.1246967E+00
         21   -1    0    0  505  502  0.00000000000E+00  0.00000000000E+00  0.16455639154E+04  0.16455639154E+04  0.00000000000E+00 0. -1.
          1   -1    0    0  503    0 -0.00000000000E+00 -0.00000000000E+00 -0.11539223858E+04  0.11539223858E+04  0.00000000000E+00 0.  1.
         21    1    1    2  503  502 -0.77050857344E+02 -0.75450611504E+02  0.15124224055E+04  0.15162622339E+04  0.00000000000E+00 0. -1.
         21    1    1    2  504  501 -0.18818171865E+02  0.11748033557E+03 -0.29274881489E+02  0.12252661557E+03  0.00000000000E+00 0.  1.
         21    1    1    2  505  504  0.17743396696E+02 -0.28960058209E+02  0.79664474248E+02  0.86602202946E+02  0.00000000000E+00 0. -1.
          1    1    1    2  501    0  0.78125632512E+02 -0.13069665855E+02 -0.10711704686E+04  0.10740952488E+04  0.00000000000E+00 0.  1.
<scales pt_clust_3="117.68416" pt_clust_4="14000.00000" pt_clust_5="33.96341" pt_clust_6="79.23216"></scales>
<clustering>
<clus scale="   33.963">  1  5  2 -1</clus>
<clus scale="   79.232">  2  6  1 -1</clus>
<clus scale="  117.684">  1  3  2 -1</clus>
<clus scale="   33.963">  1  3  2 -1</clus>
</clustering>
</event>
<event>
 6    0  0.1849053E+002  0.1557092E+03  0.7546771E-02  0.1193628E+00
         21   -1    0    0  503  502  0.00000000000E+00  0.00000000000E+00  0.95670508135E+02  0.95670508135E+02  0.00000000000E+00 0.  1.
          1   -1    0    0  504    0 -0.00000000000E+00 -0.00000000000E+00 -0.78178053618E+03  0.78178053618E+03  0.00000000000E+00 0. -1.
         21    1    1    2  503  505 -0.63460994723E+02 -0.71048400630E+02 -0.18238644026E+03  0.20576682598E+03  0.00000000000E+00 0. -1.
         21    1    1    2  504  502  0.12369457045E+03  0.74103091081E+02  0.11329864601E+02  0.14463741113E+03  0.00000000000E+00 0.  1.
         21    1    1    2  505  501 -0.10942014504E+02 -0.45466312176E+02 -0.21298403144E+03  0.21805758614E+03  0.00000000000E+00 0. -1.
          1    1    1    2  501    0 -0.49291561222E+02  0.42411621724E+02 -0.30206942094E+03  0.30898922106E+03  0.00000000000E+00 0. -1.
<scales pt_clust_3="45.39488" pt_clust_4="141.58923" pt_clust_5="45.39488" pt_clust_6="65.02618"></scales>
<clustering>
<clus scale="   45.395">  3  5 -1 -1</clus>
<clus scale="   65.026">  2  6  1 -1</clus>
<clus scale="  141.589">  1  4  2 -1</clus>
<clus scale="  141.589">  1  3  2 -1</clus>
</clustering>
</event>
<event>
 6    0  0.1849053E+002  0.1451136E+03  0.7546771E-02  0.1206609E+00
          2   -1    0    0  502    0 -0.00000000000E+00  0.00000000000E+00  0.13455295697E+04  0.13455295697E+04  0.00000000000E+00 0. -1.
         21   -1    0    0  504  502  0.00000000000E+00 -0.00000000000E+00 -0.64932579379E+02  0.64932579379E+02  0.00000000000E+00 0.  1.
         21    1    1    2  503  505  0.75124583099E+02 -0.14591613009E+01  0.15606261323E+02  0.76742345091E+02  0.00000000000E+00 0.  1.
         21    1    1    2  504  503  0.66614768440E+02 -0.40529329364E+02  0.31795104023E+02  0.84208565792E+02  0.00000000000E+00 0.  1.
         21    1    1    2  505  501 -0.10494868513E+03 -0.31630418930E+02  0.50989763937E+03  0.52154607902E+03  0.00000000000E+00 0.  1.
          2    1    1    2  501    0 -0.36790666413E+02  0.73618909595E+02  0.72329798563E+03  0.72796515919E+03  0.00000000000E+00 0. -1.
<scales pt_clust_3="41.70801" pt_clust_4="41.70801" pt_clust_5="138.75416" pt_clust_6="82.30004"></scales>
<clustering>
<clus scale="   41.708">  3  4 -1 -1</clus>
<clus scale="   82.300">  1  6  2 -1</clus>
<clus scale="  138.754">  1  5  2 -1</clus>
<clus scale="  145.114">  2  3  1 -1</clus>
</clustering>
</event>
<event>
 6    0  0.1849053E+002  0.9843778E+02  0.7546771E-02  0.1283616E+00
          2   -1    0    0  504    0 -0.00000000000E+00  0.00000000000E+00  0.16994976272E+04  0.16994976272E+04  0.00000000000E+00 0. -1.
         21   -1    0    0  505  502  0.00000000000E+00 -0.00000000000E+00 -0.21780492812E+02  0.21780492812E+02  0.00000000000E+00 0. -1.
         21    1    1    2  503  502 -0.63776859880E+01 -0.35192561751E+02  0.13783464600E+03  0.14239937120E+03  0.00000000000E+00 0. -1.
         21    1    1    2  504  503 -0.42513713654E+02  0.29635890812E+02  0.42641824479E+03  0.42955584196E+03  0.00000000000E+00 0. -1.
         21    1    1    2  505  501 -0.54549595111E+02 -0.49941783994E+02  0.78989288512E+02  0.10820881579E+03  0.00000000000E+00 0. -1.
          2    1    1    2  501    0  0.10344099475E+03  0.55498454933E+02  0.10344749551E+04  0.10411140911E+04  0.00000000000E+00 0. -1.
<scales pt_clust_3="35.76578" pt_clust_4="50.69302" pt_clust_5="98.43778" pt_clust_6="14000.00000"></scales>
<clustering>
<clus scale="   35.766">  2  3  1 -1</clus>
<clus scale="   50.693">  1  4  2 -1</clus>
<clus scale="   98.438">  2  5  1 -1</clus>
<clus scale="   35.766">  2  3  1 -1</clus>
</clustering>
</event>
<event>
 6    0  0.1849053E+002  0.1409616E+03  0.7546771E-02  0.1212041E+00
         21   -1    0    0  504  502  0.00000000000E+00  0.00000000000E+00  0.31518931174E+02  0.31518931174E+02  0.00000000000E+00 0. -1.
          2   -1    0    0  503    0 -0.00000000000E+00 -0.00000000000E+00 -0.34882415672E+04  0.34882415672E+04  0.00000000000E+00 0. -1.
         21    1    1    2  503  502 -0.59549642540E+02  0.26016353950E+01 -0.12653515116E+03  0.13987163012E+03  0.00000000000E+00 0. -1.
         21    1    1    2  504  505  0.43432920172E+02 -0.11867298191E+03 -0.31623070144E+03  0.34054596125E+03  0.00000000000E+00 0. -1.
         21    1    1    2  505  501 -0.17562466866E+02  0.23371104525E+03 -0.12950808130E+04  0.13161168661E+04  0.00000000000E+00 0. -1.
          2    1    1    2  501    0  0.33679189234E+02 -0.11763969873E+03 -0.17188759704E+04  0.17232260409E+04  0.00000000000E+00 0. -1.
<scales pt_clust_3="59.60645" pt_clust_4="118.26785" pt_clust_5="14000.00000" pt_clust_6="140.96164"></scales>
<clustering>
<clus scale="   59.606">  1  3  2 -1</clus>
<clus scale="  118.268">  1  4  2 -1</clus>
<clus scale="  140.962">  2  6  1 -1</clus>
<clus scale="   59.606">  1  3  2 -1</clus>
</clustering>
</event>
<event>
 6    0  0.2086526E+002  0.8165270E+02  0.7546771E-02  0.1324426E+00
         -1   -1    0    0    0  501 -0.00000000000E+00  0.00000000000E+00  0.40247188485E+03  0.40247188485E+03  0.00000000000E+00 0.  1.
         21   -1    0    0  504  502  0.00000000000E+00 -0.00000000000E+00 -0.43877898863E+03  0.43877898863E+03  0.00000000000E+00 0.  1.
         21    1    1    2  503  501  0.28018752744E+02  0.15875476202E+02  0.50155443670E+01  0.32591976548E+02  0.00000000000E+00 0. -1.
         21    1    1    2  504  503  0.40440935784E+02 -0.10401082118E+03 -0.37300321170E+03  0.38933933291E+03  0.00000000000E+00 0.  1.
         21    1    1    2  505  502  0.28036704201E+00  0.34855162112E+02 -0.30822535416E+02  0.46529448966E+02  0.00000000000E+00 0.  1.
         -1    1    1    2    0  505 -0.68740055571E+02  0.53280182868E+02  0.36250309897E+03  0.37279011506E+03  0.00000000000E+00 0.  1.
<scales pt_clust_3="32.20375" pt_clust_4="81.65270" pt_clust_5="35.19048" pt_clust_6="14000.00000"></scales>
<clustering>
<clus scale="   32.204">  1  3  2 -1</clus>
<clus scale="   35.190">  2  5  1 -1</clus>
<clus scale="   81.653">  2  4  1 -1</clus>
<clus scale="   35.190">  2  3  1 -1</clus>
</clustering>
</event>
<event>
 6    0  0.1849053E+002  0.9788980E+02  0.7546771E-02  0.1284797E+00
         21   -1    0    0  504  502  0.00000000000E+00  0.00000000000E+00  0.47446593849E+03  0.47446593849E+03  0.00000000000E+00 0. -1.
         -1   -1    0    0    0  501 -0.00000000000E+00 -0.00000000000E+00 -0.69092270856E+03  0.69092270856E+03  0.00000000000E+00 0. -1.
         21    1    1    2  503  502  0.30002185639E+02 -0.27591805159E+02  0.26830018535E+03  0.27137875435E+03  0.00000000000E+00 0. -1.
         21    1    1    2  504  505  0.20422234398E+01  0.41203876105E+02  0.17925460504E+03  0.18394059778E+03  0.00000000000E+00 0. -1.
         21    1    1    2  505  501  0.89969599794E+02 -0.21321123194E+02 -0.48213667032E+03  0.49092248680E+03  0.00000000000E+00 0. -1.
         -1    1    1    2    0  503 -0.12201400887E+03  0.77090522485E+01 -0.18187489014E+03  0.21914680812E+03  0.00000000000E+00 0. -1.
<scales pt_clust_3="40.76075" pt_clust_4="33.18611" pt_clust_5="14000.00000" pt_clust_6="97.88980"></scales>
<clustering>
<clus scale="   40.761">  1  3  2 -1</clus>
<clus scale="   33.186">  1  4  2 -1</clus>
<clus scale="   97.890">  1  6  2 -1</clus>
<clus scale="   40.761">  1  3  2 -1</clus>
</clustering>
</event>
<event>
 6    0  0.1849053E+002  0.6540727E+02  0.7546771E-02  0.1376446E+00
         21   -1    0    0  504  502  0.00000000000E+00  0.00000000000E+00  0.89669862589E+03  0.89669862589E+03  0.00000000000E+00 0. -1.
          2   -1    0    0  505    0 -0.00000000000E+00 -0.00000000000E+00 -0.67576085441E+03  0.67576085441E+03  0.00000000000E+00 0. -1.
         21    1    1    2  503  502 -0.54489377018E+02  0.15319474771E+02  0.80329269023E+03  0.80528437504E+03  0.00000000000E+00 0. -1.
         21    1    1    2  504  501  0.14424129914E+02 -0.44087399481E+02  0.69434788624E+02  0.83504156711E+02  0.00000000000E+00 0. -1.
         21    1    1    2  505  503  0.10047144203E+03  0.29586207027E+02 -0.18178015896E+03  0.20979485337E+03  0.00000000000E+00 0. -1.
          2    1    1    2  501    0 -0.60406194930E+02 -0.81828231733E+00 -0.47000954842E+03  0.47387609517E+03  0.00000000000E+00 0. -1.
<scales pt_clust_3="49.05910" pt_clust_4="46.38701" pt_clust_5="65.40727" pt_clust_6="14000.00000"></scales>
<clustering>
<clus scale="   46.387">  1  4  2 -1</clus>
<clus scale="   49.059">  1  3  2 -1</clus>
<clus scale="   65.407">  1  5  2 -1</clus>
<clus scale="   46.387">  1  3  2 -1</clus>
</clustering>
</event>
<event>
 6    0  0.1849053E+002  0.2386384E+03  0.7546771E-02  0.1120703E+00
         21   -1    0    0  504  502  0.00000000000E+00  0.00000000000E+00  0.19421802747E+03  0.19421802747E+03  0.00000000000E+00 0.  1.
          2   -1    0    0  502    0 -0.00000000000E+00 -0.00000000000E+00 -0.94471008882E+03  0.94471008882E+03  0.00000000000E+00 0.  1.
         21    1    1    2  503  505  0.10798086774E+03  0.16741700905E+03  0.10856215797E+03  0.22687896522E+03  0.00000000000E+00 0.  1.
         21    1    1    2  504  503  0.27943021782E+02  0.21715067287E+02 -0.24077472315E+02  0.42802818677E+02  0.00000000000E+00 0. -1.
         21    1    1    2  505  501 -0.52084392689E+02 -0.35784465567E+02 -0.16044507269E+03  0.17244110093E+03  0.00000000000E+00 0.  1.
          2    1    1    2  501    0 -0.83839496828E+02 -0.15334761077E+03 -0.67453167431E+03  0.69680523147E+03  0.00000000000E+00 0.  1.
<scales pt_clust_3="229.76402" pt_clust_4="35.38865" pt_clust_5="38.63169" pt_clust_6="38.63169"></scales>
<clustering>
<clus scale="   35.389">  1  4  2 -1</clus>
<clus scale="   38.632">  5  6 -1 -1</clus>
<clus scale="  229.764">  1  3  2 -1</clus>
<clus scale="   35.389">  1  3  2 -1</clus>
</clustering>
</event>
<event>
 6    0  0.1849053E+002  0.6771804E+02  0.7546771E-02  0.1368029E+00
         21   -1    0    0  501  502  0.00000000000E+00  0.00000000000E+00  0.40783907808E+02  0.40783907808E+02  0.00000000000E+00 0. -1.
          1   -1    0    0  505    0 -0.00000000000E+00 -0.00000000000E+00 -0.92041134481E+03  0.92041134481E+03  0.00000000000E+00 0. -1.
         21    1    1    2  503  502  0.10354006261E+02  0.63613877261E+02 -0.10222669810E+02  0.65256676317E+02  0.00000000000E+00 0. -1.
         21    1    1    2  504  503 -0.26537850399E+02 -0.91790254601E+02 -0.30749433205E+03  0.32199762823E+03  0.00000000000E+00 0. -1.
         21    1    1    2  505  504 -0.41770811773E+02  0.64107299206E+01 -0.11050075009E+03  0.11830601821E+03  0.00000000000E+00 0. -1.
          1    1    1    2  501    0  0.57954655910E+02  0.21765647419E+02 -0.45140968505E+03  0.45563492986E+03  0.00000000000E+00 0. -1.
<scales pt_clust_3="67.71804" pt_clust_4="14000.00000" pt_clust_5="42.25989" pt_clust_6="42.78625"></scales>
<clustering>
<clus scale="   42.260">  2  5  1 -1</clus>
<clus scale="   42.786">  2  6  1 -1</clus>
<clus scale="   67.718">  1  3  2 -1</clus>
<clus scale="   67.718">  1  3  2 -1</clus>
</clustering>
</event>
<event>
 6    0  0.1849053E+002  0.1257943E+03  0.7546771E-02  0.1233833E+00
          2   -1    0    0  505    0 -0.00000000000E+00  0.00000000000E+00  0.19770344531E+04  0.19770344531E+04  0.00000000000E+00 0. -1.
         21   -1    0    0  501  502  0.00000000000E+00 -0.00000000000E+00 -0.17288690106E+03  0.17288690106E+03  0.00000000000E+00 0.  1.
         21    1    1    2  503  502  0.49274602255E+02  0.23575207233E+02 -0.60611805624E+02  0.81593920144E+02  0.00000000000E+00 0.  1.
         21    1    1    2  504  503  0.15507218380E+02  0.71592692976E+02 -0.82645531455E+02  0.11043673021E+03  0.00000000000E+00 0.  1.
         21    1    1    2  505  504 -0.64729362842E+02 -0.52089147005E+02  0.34342995479E+03  0.35333737914E+03  0.00000000000E+00 0. -1.
          2    1    1    2  501    0 -0.52457793090E-01 -0.43078753204E+02  0.16039749344E+04  0.16045533247E+04  0.00000000000E+00 0. -1.
<scales pt_clust_3="48.36989" pt_clust_4="48.36989" pt_clust_5="112.80383" pt_clust_6="43.07879"></scales>
<clustering>
<clus scale="   43.079">  1  6  2 -1</clus>
<clus scale="   48.370">  3  4 -1 -1</clus>
<clus scale="  112.804">  1  5  2 -1</clus>
<clus scale="  125.794">  2  3  1 -1</clus>
</clustering>
</event>
<event>
 6    0  0.1849053E+002  0.3299813E+03  0.7546771E-02  0.1071145E+00
         21   -1    0    0  501  502  0.00000000000E+00  0.00000000000E+00  0.54063070837E+03  0.54063070837E+03  0.00000000000E+00 0.  1.
         -4   -1    0    0    0  501 -0.00000000000E+00 -0.00000000000E+00 -0.30519961598E+03  0.30519961598E+03  0.00000000000E+00 0. -1.
         21    1    1    2  503  505 -0.85790232215E+02  0.26612800006E+03  0.25778078782E+03  0.38030909919E+03  0.00000000000E+00 0.  1.
         21    1    1    2  504  503  0.51023681558E+02 -0.87221743852E+02  0.68909966339E+01  0.10128442385E+03  0.00000000000E+00 0. -1.
         21    1    1    2  505  502 -0.95348501683E+02  0.34021800306E+02  0.34032568046E+02  0.10680372352E+03  0.00000000000E+00 0. -1.
         -4    1    1    2    0  504  0.13011505234E+03 -0.21292805651E+03 -0.63273260105E+02  0.25743307779E+03  0.00000000000E+00 0. -1.
<scales pt_clust_3="326.02077" pt_clust_4="32.43638" pt_clust_5="101.23645" pt_clust_6="32.43638"></scales>
<clustering>
<clus scale="   32.436">  4  6 -1 -1</clus>
<clus scale="  101.236">  1  5  2 -1</clus>
<clus scale="  326.021">  1  3  2 -1</clus>
<clus scale="  101.236">  1  3  2 -1</clus>
</clustering>
</event>
<event>
 6    0  0.1849053E+002  0.1770074E+03  0.7546771E-02  0.1170731E+00
         21   -1    0    0  505  502  0.00000000000E+00  0.00000000000E+00  0.14190145527E+03  0.14190145527E+03  0.00000000000E+00 0. -1.
          2   -1    0    0  504    0 -0.00000000000E+00 -0.00000000000E+00 -0.25055676538E+03  0.25055676538E+03  0.00000000000E+00 0. -1.
         21    1    1    2  503  502  0.42945940578E+02 -0.12340638775E+03  0.37073088280E+02  0.13582306220E+03  0.00000000000E+00 0. -1.
         21    1    1    2  504  503  0.27822110570E+02 -0.25550502391E+02 -0.18673989100E+02  0.42138057358E+02  0.00000000000E+00 0. -1.
         21    1    1    2  505  501 -0.33540160676E+02  0.43892453872E+02 -0.16855889897E+02  0.57754747937E+02  0.00000000000E+00 0. -1.
          2    1    1    2  501    0 -0.37227890472E+02  0.10506443627E+03 -0.11019851939E+03  0.15674235316E+03  0.00000000000E+00 0. -1.
<scales pt_clust_3="34.57597" pt_clust_4="34.57597" pt_clust_5="36.37534" pt_clust_6="172.81835"></scales>
<clustering>
<clus scale="   34.576">  3  4 -1 -1</clus>
<clus scale="   36.375">  5  6 -1 -1</clus>
<clus scale="  172.818">  2  5  1 -1</clus>
<clus scale="  177.007">  1  3  2 -1</clus>
</clustering>
</event>
<event>
 6    0  0.1849053E+002  0.2485478E+03  0.7546771E-02  0.1114226E+00
          2   -1    0    0  503    0 -0.00000000000E+00  0.00000000000E+00  0.11594100808E+04  0.11594100808E+04  0.00000000000E+00 0.  1.
         21   -1    0    0  505  502  0.00000000000E+00 -0.00000000000E+00 -0.17678567460E+03  0.17678567460E+03  0.00000000000E+00 0.  1.
         21    1    1    2  503  502  0.10564895504E+03 -0.94874462125E+01  0.50463623753E+03  0.51566408210E+03  0.00000000000E+00 0.  1.
         21    1    1    2  504  501 -0.57921901173E+02 -0.41073190456E+02  0.17537266903E+02  0.73140340034E+02  0.00000000000E+00 0. -1.
         21    1    1    2  505  504 -0.14973303646E+03 -0.10300337099E+03 -0.63058457600E+02  0.19236955507E+03  0.00000000000E+00 0.  1.
          2    1    1    2  501    0  0.10200598259E+03  0.15356400766E+03  0.52350935935E+03  0.55502177818E+03  0.00000000000E+00 0.  1.
<scales pt_clust_3="106.07409" pt_clust_4="42.13821" pt_clust_5="42.13821" pt_clust_6="239.23063"></scales>
<clustering>
<clus scale="   42.138">  4  5 -1 -1</clus>
<clus scale="  106.074">  1  3  2 -1</clus>
<clus scale="  239.231">  1  6  2 -1</clus>
<clus scale="  248.548">  2  3  1 -1</clus>
</clustering>
</event>
<event>
 6    0  0.1849053E+002  0.1319730E+03  0.7546771E-02  0.1224557E+00
         21   -1    0    0  504  502  0.00000000000E+00  0.00000000000E+00  0.49181732279E+03  0.49181732279E+03  0.00000000000E+00 0. -1.
          3   -1    0    0  505    0 -0.00000000000E+00 -0.00000000000E+00 -0.28616981652E+03  0.28616981652E+03  0.00000000000E+00 0.  1.
         21    1    1    2  503  502 -0.75988604711E+02  0.10083371009E+00  0.10415965228E+03  0.12893219682E+03  0.00000000000E+00 0.  1.
         21    1    1    2  504  501 -0.27479275991E+02 -0.92745435681E+02  0.34238394274E+03  0.35578587759E+03  0.00000000000E+00 0. -1.
         21    1    1    2  505  503  0.85168330116E+01  0.35401261361E+02 -0.11003590814E+02  0.38037675551E+02  0.00000000000E+00 0. -1.
          3    1    1    2  501    0  0.94951047691E+02  0.57243340610E+02 -0.22989249793E+03  0.25523138935E+03  0.00000000000E+00 0.  1.
<scales pt_clust_3="75.60630" pt_clust_4="131.97297" pt_clust_5="36.41134" pt_clust_6="14000.00000"></scales>
<clustering>
<clus scale="   36.411">  2  5  1 -1</clus>
<clus scale="   75.606">  1  3  2 -1</clus>
<clus scale="  131.973">  1  4  2 -1</clus>
<clus scale="   75.606">  1  3  2 -1</clus>
</clustering>
</event>
<event>
 6    0  0.1849053E+002  0.1201684E+03  0.7546771E-02  0.1242820E+00
         21   -1    0    0  501  502  0.00000000000E+00  0.00000000000E+00  0.13578787998E+03  0.13578787998E+03  0.00000000000E+00 0.  1.
          2   -1    0    0  505    0 -0.00000000000E+00 -0.00000000000E+00 -0.15100103096E+04  0.15100103096E+04  0.00000000000E+00 0.  1.
         21    1    1    2  503  504 -0.54436275220E+02  0.31264178867E+02 -0.17075759398E+03  0.18193106618E+03  0.00000000000E+00 0.  1.
         21    1    1    2  504  502  0.62112979517E+02 -0.10492554790E+03  0.98893572879E+02  0.15699468648E+03  0.00000000000E+00 0.  1.
         21    1    1    2  505  503  0.12021173063E+02  0.28164542430E+02 -0.13366764918E+03  0.13713056001E+03  0.00000000000E+00 0.  1.
          2    1    1    2  501    0 -0.19697877360E+02  0.45496826607E+02 -0.11686907593E+04  0.11697418769E+04  0.00000000000E+00 0.  1.
<scales pt_clust_3="63.35783" pt_clust_4="14000.00000" pt_clust_5="30.62270" pt_clust_6="120.16836"></scales>
<clustering>
<clus scale="   30.623">  2  5  1 -1</clus>
<clus scale="   63.358">  2  3  1 -1</clus>
<clus scale="  120.168">  2  6  1 -1</clus>
<clus scale="  120.168">  1  3  2 -1</clus>
</clustering>
</event>
<event>
 6    0  0.1849053E+002  0.1765809E+03  0.7546771E-02  0.1171154E+00
          2   -1    0    0  504    0 -0.00000000000E+00  0.00000000000E+00  0.11484517927E+04  0.11484517927E+04  0.00000000000E+00 0. -1.
         21   -1    0    0  503  502  0.00000000000E+00 -0.00000000000E+00 -0.19181516928E+03  0.19181516928E+03  0.00000000000E+00 0. -1.
         21    1    1    2  503  501  0.33317126839E+02  0.64200712083E+02  0.37437247772E+03  0.38129583587E+03  0.00000000000E+00 0. -1.
         21    1    1    2  504  505 -0.60171260780E+02 -0.28874921726E+02 -0.44958717309E+02  0.80471286746E+02  0.00000000000E+00 0. -1.
         21    1    1    2  505  502 -0.67920051276E+02 -0.73350971233E+02 -0.10161367645E+03  0.14254416013E+03  0.00000000000E+00 0. -1.
          2    1    1    2  501    0  0.94774185217E+02  0.38025180876E+02  0.72883653940E+03  0.73595567919E+03  0.00000000000E+00 0. -1.
<scales pt_clust_3="55.33737" pt_clust_4="30.51679" pt_clust_5="168.08457" pt_clust_6="55.33737"></scales>
<clustering>
<clus scale="   30.517">  4  5 -1 -1</clus>
<clus scale="   55.337">  3  6 -1 -1</clus>
<clus scale="  168.085">  2  4  1 -1</clus>
<clus scale="  168.085">  2  3  1 -1</clus>
</clustering>
</event>
<event>
 6    0  0.1849053E+002  0.1055473E+03  0.7546771E-02  0.1269045E+00
          2   -1    0    0  503    0 -0.00000000000E+00  0.00000000000E+00  0.97013359862E+03  0.97013359862E+03  0.00000000000E+00 0.  1.
         21   -1    0    0  504  502  0.00000000000E+00 -0.00000000000E+00 -0.70263236863E+03  0.70263236863E+03  0.00000000000E+00 0. -1.
         21    1    1    2  503  505  0.47246470790E+02  0.64851419306E+02  0.32341932133E+03  0.33322363811E+03  0.00000000000E+00 0. -1.
         21    1    1    2  504  501  0.10205381375E+02  0.33154600499E+02 -0.29265441232E+02  0.45385497615E+02  0.00000000000E+00 0. -1.
         21    1    1    2  505  502 -0.10051236433E+03 -0.89613040683E+02 -0.65276476275E+03  0.66650961579E+03  0.00000000000E+00 0. -1.
          2    1    1    2  501    0  0.43060512169E+02 -0.83929791220E+01  0.62611211265E+03  0.62764721573E+03  0.00000000000E+00 0.  1.
<scales pt_clust_3="14000.00000" pt_clust_4="34.68973" pt_clust_5="105.54728" pt_clust_6="43.87509"></scales>
<clustering>
<clus scale="   34.690">  2  4  1 -1</clus>
<clus scale="   43.875">  1  6  2 -1</clus>
<clus scale="  105.547">  2  5  1 -1</clus>
<clus scale="   34.690">  2  3  1 -1</clus>
</clustering>
</event>
<event>
 6    0  0.1849053E+002  0.8168730E+02  0.7546771E-02  0.1324330E+00
          2   -1    0    0  505    0 -0.00000000000E+00  0.00000000000E+00  0.15356251940E+04  0.15356251940E+04  0.00000000000E+00 0. -1.
         21   -1    0    0  504  502  0.00000000000E+00 -0.00000000000E+00 -0.18832248815E+03  0.18832248815E+03  0.00000000000E+00 0. -1.
         21    1    1    2  503  502  0.94724009125E+02 -0.15760114728E+02 -0.12764093602E+03  0.15972860630E+03  0.00000000000E+00 0. -1.
         21    1    1    2  504  501 -0.49996598175E+02 -0.56731597349E+02 -0.91745227411E+01  0.76172868098E+02  0.00000000000E+00 0. -1.
         21    1    1    2  505  503 -0.24516005044E+02  0.19971924089E+02  0.10256372251E+04  0.10261245683E+04  0.00000000000E+00 0. -1.
          2    1    1    2  501    0 -0.20211405906E+02  0.52519787988E+02  0.45848093949E+03  0.46192163939E+03  0.00000000000E+00 0. -1.
<scales pt_clust_3="81.68730" pt_clust_4="75.72736" pt_clust_5="31.62139" pt_clust_6="14000.00000"></scales>
<clustering>
<clus scale="   31.621">  1  5  2 -1</clus>
<clus scale="   75.727">  2  4  1 -1</clus>
<clus scale="   81.687">  2  3  1 -1</clus>
<clus scale="   75.727">  2  3  1 -1</clus>
</clustering>
</event>
<event>
 6    0  0.1849053E+002  0.1987405E+03  0.7546771E-02  0.1150806E+00
         21   -1    0    0  503  502  0.00000000000E+00  0.00000000000E+00  0.48194969658E+03  0.48194969658E+03  0.00000000000E+00 0.  1.
          1   -1    0    0  505    0 -0.00000000000E+00 -0.00000000000E+00 -0.29904637243E+03  0.29904637243E+03  0.00000000000E+00 0.  1.
         21    1    1    2  503  501  0.59160115839E+02  0.92107497215E+02 -0.12704729036E+03  0.16770427644E+03  0.00000000000E+00 0.  1.
         21    1    1    2  504  502 -0.24157216608E+02 -0.10211754693E+03  0.31321293010E+03  0.33032393811E+03  0.00000000000E+00 0.  1.
         21    1    1    2  505  504 -0.17602323755E+02 -0.77370372269E+02  0.11201616078E+03  0.13727212602E+03  0.00000000000E+00 0.  1.
          1    1    1    2  501    0 -0.17400575476E+02  0.87380421983E+02 -0.11527847637E+03  0.14569572844E+03  0.00000000000E+00 0.  1.
<scales pt_clust_3="67.13648" pt_clust_4="194.48984" pt_clust_5="54.07104" pt_clust_6="67.13648"></scales>
<clustering>
<clus scale="   54.071">  4  5 -1 -1</clus>
<clus scale="   67.136">  3  6 -1 -1</clus>
<clus scale="  194.490">  1  4  2 -1</clus>
<clus scale="  194.490">  1  3  2 -1</clus>
</clustering>
</event>
<event>
 6    0  0.1849053E+002  0.1528313E+03  0.7546771E-02  0.1197036E+00
          2   -1    0    0  502    0 -0.00000000000E+00  0.00000000000E+00  0.58480970659E+03  0.58480970659E+03  0.00000000000E+00 0. -1.
         21   -1    0    0  504  502  0.00000000000E+00 -0.00000000000E+00 -0.19414744181E+03  0.19414744181E+03  0.00000000000E+00 0. -1.
         21    1    1    2  503  501  0.16959803865E+02  0.52766935928E+02  0.12407145403E+03  0.13588859474E+03  0.00000000000E+00 0. -1.
         21    1    1    2  504  505 -0.27317399670E+02 -0.63554156791E+02 -0.44530685660E+02  0.82270001431E+02  0.00000000000E+00 0. -1.
         21    1    1    2  505  503 -0.56330073788E+02 -0.47519994399E+02 -0.10892458262E+03  0.13151346615E+03  0.00000000000E+00 0. -1.
          2    1    1    2  501    0  0.66687669594E+02  0.58307215262E+02  0.42004607902E+03  0.42928508608E+03  0.00000000000E+00 0. -1.
<scales pt_clust_3="50.17137" pt_clust_4="51.45366" pt_clust_5="148.84506" pt_clust_6="50.17137"></scales>
<clustering>
<clus scale="   50.171">  3  6 -1 -1</clus>
<clus scale="   51.454">  4  5 -1 -1</clus>
<clus scale="  148.845">  2  4  1 -1</clus>
<clus scale="  148.845">  2  3  1 -1</clus>
</clustering>
</event>
<event>
 6    0  0.1849053E+002  0.7235380E+02  0.7546771E-02  0.1352267E+00
          1   -1    0    0  503    0 -0.00000000000E+00  0.00000000000E+00  0.57228372307E+03  0.57228372307E+03  0.00000000000E+00 0. -1.
         21   -1    0    0  504  502  0.00000000000E+00 -0.00000000000E+00 -0.55005234656E+03  0.55005234656E+03  0.00000000000E+00 0.  1.
         21    1    1    2  503  505 -0.50685686040E+01  0.30946614311E+02  0.22662894829E+03  0.22878825042E+03  0.00000000000E+00 0. -1.
         21    1    1    2  504  501  0.21448971834E+02  0.63402873519E+02 -0.12469237880E+03  0.14152092458E+03  0.00000000000E+00 0. -1.
         21    1    1    2  505  502  0.50500771666E+02 -0.75060093122E+02 -0.40724501196E+03  0.41717244071E+03  0.00000000000E+00 0.  1.
          1    1    1    2  501    0 -0.66881174895E+02 -0.19289394708E+02  0.32753981897E+03  0.33485445393E+03  0.00000000000E+00 0. -1.
<scales pt_clust_3="31.35894" pt_clust_4="67.60981" pt_clust_5="72.35380" pt_clust_6="14000.00000"></scales>
<clustering>
<clus scale="   31.359">  1  3  2 -1</clus>
<clus scale="   67.610">  2  4  1 -1</clus>
<clus scale="   72.354">  2  5  1 -1</clus>
<clus scale="   67.610">  2  3  1 -1</clus>
</clustering>
</event>
<event>
 6    0  0.1849053E+002  0.1146541E+03  0.7546771E-02  0.1252186E+00
         21   -1    0    0  504  502  0.00000000000E+00  0.00000000000E+00  0.19881583098E+03  0.19881583098E+03  0.00000000000E+00 0. -1.
          2   -1    0    0  503    0 -0.00000000000E+00 -0.00000000000E+00 -0.61476120691E+03  0.61476120691E+03  0.00000000000E+00 0. -1.
         21    1    1    2  503  505  0.10509663027E+02 -0.30440858138E+02 -0.25174694897E+02  0.40876204866E+02  0.00000000000E+00 0. -1.
         21    1    1    2  504  501 -0.31039977739E+02 -0.75282216379E+01 -0.70548051773E+01  0.32709702157E+02  0.00000000000E+00 0. -1.
         21    1    1    2  505  502  0.10564449860E+03  0.93715356237E+02  0.14450998940E+03  0.20205559907E+03  0.00000000000E+00 0. -1.
          2    1    1    2  501    0 -0.85114183884E+02 -0.55746276461E+02 -0.52822586526E+03  0.53793553180E+03  0.00000000000E+00 0. -1.
<scales pt_clust_3="32.10488" pt_clust_4="31.93986" pt_clust_5="114.65408" pt_clust_6="14000.00000"></scales>
<clustering>
<clus scale="   31.940">  1  4  2 -1</clus>
<clus scale="   32.105">  2  3  1 -1</clus>
<clus scale="  114.654">  1  5  2 -1</clus>
<clus scale="   31.940">  1  3  2 -1</clus>
</clustering>
</event>
<event>
 6    0  0.1849053E+002  0.9542270E+02  0.7546771E-02  0.1290227E+00
         21   -1    0    0  501  502  0.00000000000E+00  0.00000000000E+00  0.70090899836E+02  0.70090899836E+02  0.00000000000E+00 0.  1.
          2   -1    0    0  503    0 -0.00000000000E+00 -0.00000000000E+00 -0.19059035882E+04  0.19059035882E+04  0.00000000000E+00 0.  1.
         21    1    1    2  503  504 -0.23290451882E+02  0.44506203817E+02 -0.62711250967E+03  0.62912109098E+03  0.00000000000E+00 0.  1.
         21    1    1    2  504  505 -0.12262306937E+03  0.32414087023E+02 -0.54584962628E+01  0.12695229561E+03  0.00000000000E+00 0.  1.
         21    1    1    2  505  502  0.32275945229E+02 -0.28308532782E+02 -0.88660994041E+02  0.98508281545E+02  0.00000000000E+00 0. -1.
          2    1    1    2  501    0  0.11363757603E+03 -0.48611758058E+02 -0.11145806883E+04  0.11214128199E+04  0.00000000000E+00 0.  1.
<scales pt_clust_3="49.61535" pt_clust_4="95.42270" pt_clust_5="42.93145" pt_clust_6="14000.00000"></scales>
<clustering>
<clus scale="   42.931">  1  5  2 -1</clus>
<clus scale="   49.615">  2  3  1 -1</clus>
<clus scale="   95.423">  1  4  2 -1</clus>
<clus scale="   42.931">  1  3  2 -1</clus>
</clustering>
</event>
<event>
 6    0  0.1849053E+002  0.1182908E+03  0.7546771E-02  0.1245944E+00
          2   -1    0    0  505    0 -0.00000000000E+00  0.00000000000E+00  0.28695152821E+04  0.28695152821E+04  0.00000000000E+00 0.  1.
         21   -1    0    0  504  502  0.00000000000E+00 -0.00000000000E+00 -0.99484282994E+02  0.99484282994E+02  0.00000000000E+00 0. -1.
         21    1    1    2  503  501 -0.43282069863E+02 -0.74943214040E+02  0.19591392730E+03  0.21417770615E+03  0.00000000000E+00 0.  1.
         21    1    1    2  504  503  0.14345381384E+02  0.39375839759E+02  0.37026565619E+01  0.42070849639E+02  0.00000000000E+00 0. -1.
         21    1    1    2  505  502  0.12671340325E+03 -0.30869945825E+02 -0.89059204814E+01  0.13072320199E+03  0.00000000000E+00 0. -1.
          2    1    1    2  501    0 -0.97776714772E+02  0.66437320106E+02  0.25793203357E+04  0.25820278073E+04  0.00000000000E+00 0.  1.
<scales pt_clust_3="81.85439" pt_clust_4="41.90760" pt_clust_5="14000.00000" pt_clust_6="118.29076"></scales>
<clustering>
<clus scale="   41.908">  2  4  1 -1</clus>
<clus scale="   81.854">  2  3  1 -1</clus>
<clus scale="  118.291">  1  6  2 -1</clus>
<clus scale="   41.908">  2  3  1 -1</clus>
</clustering>
</event>
<event>
 6    0  0.1849053E+002  0.1522581E+03  0.7546771E-02  0.1197725E+00
         21   -1    0    0  504  502  0.00000000000E+00  0.00000000000E+00  0.28225136029E+03  0.28225136029E+03  0.00000000000E+00 0. -1.
          2   -1    0    0  503    0 -0.00000000000E+00 -0.00000000000E+00 -0.24438771752E+04  0.24438771752E+04  0.00000000000E+00 0. -1.
         21    1    1    2  503  505 -0.84454492594E+02 -0.43529683705E+02  0.13688380642E+03  0.16662704205E+03  0.00000000000E+00 0. -1.
         21    1    1    2  504  501  0.54762659877E+02  0.37020092478E+02 -0.81931191873E+03  0.82197412145E+03  0.00000000000E+00 0. -1.
         21    1    1    2  505  502 -0.17905109830E+02 -0.51652635933E+02  0.12245950615E+03  0.13410786108E+03  0.00000000000E+00 0. -1.
          2    1    1    2  501    0  0.47596942548E+02  0.58162227160E+02 -0.16016572088E+04  0.16034195110E+04  0.00000000000E+00 0. -1.
<scales pt_clust_3="45.79799" pt_clust_4="40.93943" pt_clust_5="45.79799" pt_clust_6="146.43345"></scales>
<clustering>
<clus scale="   40.939">  4  6 -1 -1</clus>
<clus scale="   45.798">  3  5 -1 -1</clus>
<clus scale="  146.433">  2  4  1 -1</clus>
<clus scale="  152.258">  1  3  2 -1</clus>
</clustering>
</event>
<event>
 6    0  0.1849053E+002  0.3564254E+03  0.7546771E-02  0.1060008E+00
          2   -1    0    0  503    0 -0.00000000000E+00  0.00000000000E+00  0.34149406362E+04  0.34149406362E+04  0.00000000000E+00 0. -1.
         21   -1    0    0  505  502  0.00000000000E+00 -0.00000000000E+00 -0.20082789645E+03  0.20082789645E+03  0.00000000000E+00 0.  1.
         21    1    1    2  503  502  0.15441585401E+03  0.35393832014E+03  0.26223190246E+02  0.38704553497E+03  0.00000000000E+00 0.  1.
         21    1    1    2  504  501 -0.12713270516E+03 -0.16707265794E+03  0.16556109551E+04  0.16688689680E+04  0.00000000000E+00 0.  1.
         21    1    1    2  505  504  0.15428016013E+02 -0.52178220750E+02  0.60739407102E+02  0.81546710380E+02  0.00000000000E+00 0.  1.
          2    1    1    2  501    0 -0.42711164869E+02 -0.13468744144E+03  0.14715391873E+04  0.14783073193E+04  0.00000000000E+00 0. -1.
<scales pt_clust_3="348.27372" pt_clust_4="62.18840" pt_clust_5="54.41131" pt_clust_6="62.18840"></scales>
<clustering>
<clus scale="   54.411">  2  5  1 -1</clus>
<clus scale="   62.188">  4  6 -1 -1</clus>
<clus scale="  348.274">  2  3  1 -1</clus>
<clus scale="   54.411">  2  3  1 -1</clus>
</clustering>
</event>
<event>
 6    0  0.1849053E+002  0.1016607E+03  0.7546771E-02  0.1276842E+00
         -4   -1    0    0    0  501 -0.00000000000E+00  0.00000000000E+00  0.33149620902E+03  0.33149620902E+03  0.00000000000E+00 0.  1.
         21   -1    0    0  504  502  0.00000000000E+00 -0.00000000000E+00 -0.44906422892E+03  0.44906422892E+03  0.00000000000E+00 0. -1.
         21    1    1    2  503  502  0.10085390325E+03  0.12071952957E+02 -0.39274047703E+03  0.40566282076E+03  0.00000000000E+00 0. -1.
         21    1    1    2  504  501 -0.27622956015E+02  0.24910401261E+02 -0.48507078357E+01  0.37511133767E+02  0.00000000000E+00 0. -1.
         21    1    1    2  505  503 -0.94960673375E+02 -0.70362882695E+02  0.10566132864E+03  0.15853321772E+03  0.00000000000E+00 0. -1.
         -4    1    1    2    0  505  0.21729726139E+02  0.33380528477E+02  0.17436183633E+03  0.17885326569E+03  0.00000000000E+00 0.  1.
<scales pt_clust_3="14000.00000" pt_clust_4="37.19618" pt_clust_5="101.66072" pt_clust_6="47.75032"></scales>
<clustering>
<clus scale="   37.196">  1  4  2 -1</clus>
<clus scale="   47.750">  1  6  2 -1</clus>
<clus scale="  101.661">  1  5  2 -1</clus>
<clus scale="  101.661">  2  3  1 -1</clus>
</clustering>
</event>
<event>
 6    0  0.1849053E+002  0.2389607E+03  0.7546771E-02  0.1120487E+00
          1   -1    0    0  504    0 -0.00000000000E+00  0.00000000000E+00  0.20728426186E+04  0.20728426186E+04  0.00000000000E+00 0.  1.
         21   -1    0    0  505  502  0.00000000000E+00 -0.00000000000E+00 -0.20216878380E+03  0.20216878380E+03  0.00000000000E+00 0. -1.
         21    1    1    2  503  501 -0.40720163413E+02  0.56968433491E+02 -0.22312993885E+02  0.73494243440E+02  0.00000000000E+00 0.  1.
         21    1    1    2  504  502  0.14006902505E+03 -0.43025884697E+02  0.16360844392E+04  0.16426329020E+04  0.00000000000E+00 0.  1.
         21    1    1    2  505  503 -0.15635804677E+03  0.71821911940E+02 -0.91989363241E+02  0.19511091403E+03  0.00000000000E+00 0. -1.
          1    1    1    2  501    0  0.57009185133E+02 -0.85764460734E+02  0.34889175274E+03  0.36377334296E+03  0.00000000000E+00 0.  1.
<scales pt_clust_3="38.57800" pt_clust_4="231.18238" pt_clust_5="38.57800" pt_clust_6="102.98344"></scales>
<clustering>
<clus scale="   38.578">  3  5 -1 -1</clus>
<clus scale="  102.983">  1  6  2 -1</clus>
<clus scale="  231.182">  1  4  2 -1</clus>
<clus scale="  238.961">  2  3  1 -1</clus>
</clustering>
</event>
<event>
 6    0  0.1849053E+002  0.1466426E+03  0.7546771E-02  0.1204660E+00
          2   -1    0    0  503    0 -0.00000000000E+00  0.00000000000E+00  0.27500378620E+03  0.27500378620E+03  0.00000000000E+00 0. -1.
         21   -1    0    0  505  502  0.00000000000E+00 -0.00000000000E+00 -0.46360804615E+03  0.46360804615E+03  0.00000000000E+00 0.  1.
         21    1    1    2  503  502  0.68783843664E+02  0.80294410018E+02  0.15154088899E+02  0.10680850078E+03  0.00000000000E+00 0.  1.
         21    1    1    2  504  501 -0.36887357567E+02 -0.84783352010E+02 -0.27433062909E+03  0.28949298434E+03  0.00000000000E+00 0.  1.
         21    1    1    2  505  504  0.49485563463E+01 -0.61597125194E+02 -0.12125861364E+03  0.13609682371E+03  0.00000000000E+00 0.  1.
          2    1    1    2  501    0 -0.36845042443E+02  0.66086067186E+02  0.19183089388E+03  0.20621352351E+03  0.00000000000E+00 0. -1.
<scales pt_clust_3="138.98033" pt_clust_4="38.24503" pt_clust_5="38.24503" pt_clust_6="75.66324"></scales>
<clustering>
<clus scale="   38.245">  4  5 -1 -1</clus>
<clus scale="   75.663">  1  6  2 -1</clus>
<clus scale="  138.980">  1  3  2 -1</clus>
<clus scale="  146.643">  2  3  1 -1</clus>
</clustering>
</event>
<event>
 6    0  0.1849053E+002  0.8836921E+02  0.7546771E-02  0.1306850E+00
          1   -1    0    0  504    0 -0.00000000000E+00  0.00000000000E+00  0.43088280590E+03  0.43088280590E+03  0.00000000000E+00 0. -1.
         21   -1    0    0  501  502  0.00000000000E+00 -0.00000000000E+00 -0.73193386223E+02  0.73193386223E+02  0.00000000000E+00 0.  1.
         21    1    1    2  503  502  0.35429050696E+02  0.32669184864E+02 -0.73169652406E+01  0.48744551011E+02  0.00000000000E+00 0.  1.
         21    1    1    2  504  505 -0.77550041529E+02 -0.11701921256E+02  0.15017585921E+03  0.16942175950E+03  0.00000000000E+00 0. -1.
         21    1    1    2  505  503  0.17625452111E+01  0.74630117989E+02  0.45834989616E+02  0.87599128704E+02  0.00000000000E+00 0.  1.
          1    1    1    2  501    0  0.40358445622E+02 -0.95597381596E+02  0.16899553609E+03  0.19831075291E+03  0.00000000000E+00 0. -1.
<scales pt_clust_3="48.19225" pt_clust_4="70.16142" pt_clust_5="88.36921" pt_clust_6="14000.00000"></scales>
<clustering>
<clus scale="   48.192">  2  3  1 -1</clus>
<clus scale="   70.161">  1  4  2 -1</clus>
<clus scale="   88.369">  2  5  1 -1</clus>
<clus scale="   48.192">  2  3  1 -1</clus>
</clustering>
</event>
<event>
 6    0  0.1849053E+002  0.1330091E+03  0.7546771E-02  0.1223058E+00
         21   -1    0    0  503  502  0.00000000000E+00  0.00000000000E+00  0.32371954843E+03  0.32371954843E+03  0.00000000000E+00 0. -1.
          2   -1    0    0  504    0 -0.00000000000E+00 -0.00000000000E+00 -0.37989623151E+04  0.37989623151E+04  0.00000000000E+00 0. -1.
         21    1    1    2  503  501  0.68655337644E+02 -0.13852560074E+03  0.25670496377E+03  0.29966704168E+03  0.00000000000E+00 0. -1.
         21    1    1    2  504  505 -0.74874315741E+02  0.10418164380E+02 -0.18976921601E+03  0.20427201632E+03  0.00000000000E+00 0.  1.
         21    1    1    2  505  502  0.32112412084E+02  0.50968809594E+02  0.13825862138E+02  0.61807613003E+02  0.00000000000E+00 0.  1.
          2    1    1    2  501    0 -0.25893433987E+02  0.77138626768E+02 -0.35560043766E+04  0.35569351925E+04  0.00000000000E+00 0. -1.
<scales pt_clust_3="133.00911" pt_clust_4="74.98003" pt_clust_5="60.24140" pt_clust_6="14000.00000"></scales>
<clustering>
<clus scale="   60.241">  1  5  2 -1</clus>
<clus scale="   74.980">  2  4  1 -1</clus>
<clus scale="  133.009">  1  3  2 -1</clus>
<clus scale="   60.241">  1  3  2 -1</clus>
</clustering>
</event>
<event>
 6    0  0.1849053E+002  0.2397511E+03  0.7546771E-02  0.1119959E+00
         21   -1    0    0  504  502  0.00000000000E+00  0.00000000000E+00  0.15812755142E+04  0.15812755142E+04  0.00000000000E+00 0. -1.
          1   -1    0    0  503    0 -0.00000000000E+00 -0.00000000000E+00 -0.10028202895E+03  0.10028202895E+03  0.00000000000E+00 0.  1.
         21    1    1    2  503  505  0.12340748558E+03 -0.18836504317E+02  0.68571744451E+03  0.69698826038E+03  0.00000000000E+00 0. -1.
         21    1    1    2  504  501 -0.12088689306E+03  0.10024263933E+02  0.64307474950E+02  0.13729376576E+03  0.00000000000E+00 0.  1.
         21    1    1    2  505  502  0.10936980064E+03  0.75813646047E+01  0.72709242002E+03  0.73531123861E+03  0.00000000000E+00 0. -1.
          1    1    1    2  501    0 -0.11189039316E+03  0.12308757788E+01  0.38761457780E+01  0.11196427842E+03  0.00000000000E+00 0.  1.
<scales pt_clust_3="235.47854" pt_clust_4="54.06438" pt_clust_5="31.61600" pt_clust_6="54.06438"></scales>
<clustering>
<clus scale="   31.616">  3  5 -1 -1</clus>
<clus scale="   54.064">  4  6 -1 -1</clus>
<clus scale="  235.479">  1  3  2 -1</clus>
<clus scale="  235.479">  1  3  2 -1</clus>
</clustering>
</event>
<event>
 6    0  0.1849053E+002  0.4390347E+03  0.7546771E-02  0.1031043E+00
          4   -1    0    0  505    0 -0.00000000000E+00  0.00000000000E+00  0.22299758696E+04  0.22299758696E+04  0.00000000000E+00 0. -1.
         21   -1    0    0  504  502  0.00000000000E+00 -0.00000000000E+00 -0.37715811101E+03  0.37715811101E+03  0.00000000000E+00 0. -1.
         21    1    1    2  503  501  0.67749965029E+02 -0.40804066463E+03 -0.14392721762E+03  0.43795237838E+03  0.00000000000E+00 0. -1.
         21    1    1    2  504  503  0.40607382760E+02 -0.22496301721E+02 -0.51695347682E+02  0.69479868291E+02  0.00000000000E+00 0. -1.
         21    1    1    2  505  502  0.11178649536E+02  0.32891036557E+02  0.69849077646E+02  0.78010743742E+02  0.00000000000E+00 0.  1.
          4    1    1    2  501    0 -0.11953599732E+03  0.39764592979E+03  0.19785912462E+04  0.20216909902E+04  0.00000000000E+00 0. -1.
<scales pt_clust_3="439.03466" pt_clust_4="46.39725" pt_clust_5="34.73878" pt_clust_6="14000.00000"></scales>
<clustering>
<clus scale="   34.739">  1  5  2 -1</clus>
<clus scale="   46.397">  2  4  1 -1</clus>
<clus scale="  439.035">  2  3  1 -1</clus>
<clus scale="   46.397">  2  3  1 -1</clus>
</clustering>
</event>
<event>
 6    0  0.1849053E+002  0.1500437E+03  0.7546771E-02  0.1200419E+00
         -2   -1    0    0    0  501 -0.00000000000E+00  0.00000000000E+00  0.37149286461E+03  0.37149286461E+03  0.00000000000E+00 0.  1.
         21   -1    0    0  504  502  0.00000000000E+00 -0.00000000000E+00 -0.46462977684E+03  0.46462977684E+03  0.00000000000E+00 0.  1.
         21    1    1    2  503  501 -0.79647004188E+02 -0.31706633768E+02 -0.21475441433E+03  0.23123238176E+03  0.00000000000E+00 0.  1.
         21    1    1    2  504  503 -0.27292611288E+02 -0.49818040759E+02 -0.22241898508E+03  0.22955811625E+03  0.00000000000E+00 0.  1.
         21    1    1    2  505  502  0.65658871216E+01  0.41222012879E+02  0.10318859049E+03  0.11131150177E+03  0.00000000000E+00 0.  1.
         -2    1    1    2    0  505  0.10037372835E+03  0.40302661649E+02  0.24084789669E+03  0.26402064166E+03  0.00000000000E+00 0.  1.
<scales pt_clust_3="145.62727" pt_clust_4="45.50461" pt_clust_5="41.35090" pt_clust_6="41.35090"></scales>
<clustering>
<clus scale="   41.351">  5  6 -1 -1</clus>
<clus scale="   45.505">  3  4 -1 -1</clus>
<clus scale="  145.627">  2  3  1 -1</clus>
<clus scale="  145.627">  2  3  1 -1</clus>
</clustering>
</event>
<event>
 6    0  0.1849053E+002  0.1740023E+03  0.7546771E-02  0.1173737E+00
         21   -1    0    0  505  502  0.00000000000E+00  0.00000000000E+00  0.58587370517E+02  0.58587370517E+02  0.00000000000E+00 0.  1.
          3   -1    0    0  503    0 -0.00000000000E+00 -0.00000000000E+00 -0.85685091497E+03  0.85685091497E+03  0.00000000000E+00 0. -1.
         21    1    1    2  503  504 -0.48631507290E+02 -0.23358762300E+01 -0.97722010002E+02  0.10917907793E+03  0.00000000000E+00 0. -1.
         21    1    1    2  504  502 -0.73559071698E+02 -0.13575773949E+03 -0.12685413075E+03  0.19983260832E+03  0.00000000000E+00 0.  1.
         21    1    1    2  505  501  0.78612517182E+01  0.54064000420E+02 -0.16501400529E+03  0.17382271820E+03  0.00000000000E+00 0.  1.
          3    1    1    2  501    0  0.11432932727E+03  0.84029615296E+02 -0.40867339841E+03  0.43260388104E+03  0.00000000000E+00 0. -1.
<scales pt_clust_3="48.68757" pt_clust_4="160.12871" pt_clust_5="42.24798" pt_clust_6="42.24798"></scales>
<clustering>
<clus scale="   42.248">  5  6 -1 -1</clus>
<clus scale="   48.688">  2  3  1 -1</clus>
<clus scale="  160.129">  1  4  2 -1</clus>
<clus scale="  160.129">  1  3  2 -1</clus>
</clustering>
</event>
<event>
 6    0  0.1849053E+002  0.1155859E+03  0.7546771E-02  0.1250562E+00
         21   -1    0    0  504  502  0.00000000000E+00  0.00000000000E+00  0.15569512465E+03  0.15569512465E+03  0.00000000000E+00 0.  1.
          4   -1    0    0  503    0 -0.00000000000E+00 -0.00000000000E+00 -0.39354336141E+03  0.39354336141E+03  0.00000000000E+00 0.  1.
         21    1    1    2  503  505 -0.91716624399E+01 -0.65991744710E+02 -0.77811076670E+02  0.10243824195E+03  0.00000000000E+00 0.  1.
         21    1    1    2  504  501 -0.89657832596E+02  0.30851155256E+02 -0.14396637127E+02  0.95904034779E+02  0.00000000000E+00 0.  1.
         21    1    1    2  505  502  0.14184030743E+03  0.55532323450E+02  0.41435996224E+02  0.15785896726E+03  0.00000000000E+00 0.  1.
          4    1    1    2  501    0 -0.43010812395E+02 -0.20391733996E+02 -0.18707651919E+03  0.19303724208E+03  0.00000000000E+00 0.  1.
<scales pt_clust_3="80.15569" pt_clust_4="115.58592" pt_clust_5="14000.00000" pt_clust_6="47.59992"></scales>
<clustering>
<clus scale="   47.600">  2  6  1 -1</clus>
<clus scale="   80.156">  2  3  1 -1</clus>
<clus scale="  115.586">  1  4  2 -1</clus>
<clus scale="  115.586">  1  3  2 -1</clus>
</clustering>
</event>
<event>
 6    0  0.1849053E+002  0.1094918E+03  0.7546771E-02  0.1261514E+00
         21   -1    0    0  505  502  0.00000000000E+00  0.00000000000E+00  0.24028233211E+03  0.24028233211E+03  0.00000000000E+00 0. -1.
          2   -1    0    0  504    0 -0.00000000000E+00 -0.00000000000E+00 -0.10926586933E+04  0.10926586933E+04  0.00000000000E+00 0.  1.
         21    1    1    2  503  502 -0.31291215579E+02  0.49996649825E+02  0.15445153916E+03  0.16533022444E+03  0.00000000000E+00 0. -1.
         21    1    1    2  504  503 -0.71299192008E+02  0.64756991610E+02 -0.43167262827E+03  0.44228757697E+03  0.00000000000E+00 0. -1.
         21    1    1    2  505  501  0.76218597740E+02  0.29828805102E+02  0.41239301057E+02  0.91649943846E+02  0.00000000000E+00 0. -1.
          2    1    1    2  501    0  0.26371809847E+02 -0.14458244654E+03 -0.61639457318E+03  0.63367328020E+03  0.00000000000E+00 0.  1.
<scales pt_clust_3="58.98140" pt_clust_4="14000.00000" pt_clust_5="87.16818" pt_clust_6="109.49182"></scales>
<clustering>
<clus scale="   58.981">  1  3  2 -1</clus>
<clus scale="   87.168">  1  5  2 -1</clus>
<clus scale="  109.492">  1  6  2 -1</clus>
<clus scale="   58.981">  1  3  2 -1</clus>
</clustering>
</event>
<event>
 6    0  0.1849053E+002  0.3310066E+03  0.7546771E-02  0.1070692E+00
          2   -1    0    0  503    0 -0.00000000000E+00  0.00000000000E+00  0.10101106839E+04  0.10101106839E+04  0.00000000000E+00 0. -1.
         21   -1    0    0  505  502  0.00000000000E+00 -0.00000000000E+00 -0.26900973819E+03  0.26900973819E+03  0.00000000000E+00 0. -1.
         21    1    1    2  503  502  0.63200780267E+02  0.34333918764E+02  0.18084331009E+02  0.74163330778E+02  0.00000000000E+00 0.  1.
         21    1    1    2  504  501 -0.13632558945E+03 -0.33234923177E+03  0.24524060837E+02  0.36005847824E+03  0.00000000000E+00 0. -1.
         21    1    1    2  505  504 -0.50572189078E+02 -0.26534159854E+01 -0.21413205473E+02  0.54982836351E+02  0.00000000000E+00 0. -1.
          2    1    1    2  501    0  0.12369699826E+03  0.30066872899E+03  0.71990575933E+03  0.78991577670E+03  0.00000000000E+00 0. -1.
<scales pt_clust_3="66.42520" pt_clust_4="14000.00000" pt_clust_5="50.64175" pt_clust_6="331.00664"></scales>
<clustering>
<clus scale="   50.642">  2  5  1 -1</clus>
<clus scale="   66.425">  2  3  1 -1</clus>
<clus scale="  331.007">  1  6  2 -1</clus>
<clus scale="   50.642">  2  3  1 -1</clus>
</clustering>
</event>
<event>
 6    0  0.1849053E+002  0.1108316E+03  0.7546771E-02  0.1259038E+00
         21   -1    0    0  504  502  0.00000000000E+00  0.00000000000E+00  0.31442006666E+03  0.31442006666E+03  0.00000000000E+00 0.  1.
          2   -1    0    0  503    0 -0.00000000000E+00 -0.00000000000E+00 -0.20792598583E+04  0.20792598583E+04  0.00000000000E+00 0.  1.
         21    1    1    2  503  505  0.46495573728E+02  0.74904244839E+02 -0.11116168501E+04  0.11151073965E+04  0.00000000000E+00 0.  1.
         21    1    1    2  504  501 -0.45491287914E+02  0.57322734753E+02  0.27426616227E+03  0.28386137631E+03  0.00000000000E+00 0.  1.
         21    1    1    2  505  502 -0.54141199655E+02 -0.59561981469E+01  0.26549899901E+01  0.54532511113E+02  0.00000000000E+00 0. -1.
          2    1    1    2  501    0  0.53136913840E+02 -0.12627078144E+03 -0.93014409382E+03  0.94017864107E+03  0.00000000000E+00 0.  1.
<scales pt_clust_3="87.95683" pt_clust_4="110.83164" pt_clust_5="54.46784" pt_clust_6="14000.00000"></scales>
<clustering>
<clus scale="   54.468">  1  5  2 -1</clus>
<clus scale="   87.957">  2  3  1 -1</clus>
<clus scale="  110.832">  1  4  2 -1</clus>
<clus scale="   54.468">  1  3  2 -1</clus>
</clustering>
</event>
<event>
 6    0  0.1849053E+002  0.1932342E+03  0.7546771E-02  0.1155576E+00
         21   -1    0    0  505  502  0.00000000000E+00  0.00000000000E+00  0.19463415845E+04  0.19463415845E+04  0.00000000000E+00 0.  1.
          2   -1    0    0  504    0 -0.00000000000E+00 -0.00000000000E+00 -0.20829481384E+04  0.20829481384E+04  0.00000000000E+00 0. -1.
         21    1    1    2  503  502  0.12889853429E+03 -0.32522833158E+02  0.18813004589E+04  0.18859915120E+04  0.00000000000E+00 0.  1.
         21    1    1    2  504  503 -0.40675183171E+02  0.37750618904E+02 -0.38689974984E+03  0.39085930484E+03  0.00000000000E+00 0. -1.
         21    1    1    2  505  501  0.63415473842E+02  0.60059415483E+02  0.22914119315E+02  0.90297910136E+02  0.00000000000E+00 0.  1.
          2    1    1    2  501    0 -0.15163882497E+03 -0.65287201228E+02 -0.16539213822E+04  0.16621409960E+04  0.00000000000E+00 0. -1.
<scales pt_clust_3="193.23421" pt_clust_4="55.49396" pt_clust_5="87.27805" pt_clust_6="14000.00000"></scales>
<clustering>
<clus scale="   55.494">  2  4  1 -1</clus>
<clus scale="   87.278">  1  5  2 -1</clus>
<clus scale="  193.234">  1  3  2 -1</clus>
<clus scale="   87.278">  1  3  2 -1</clus>
</clustering>
</event>
<event>
 6    0  0.1849053E+002  0.6992525E+02  0.7546771E-02  0.1360347E+00
          2   -1    0    0  503    0 -0.00000000000E+00  0.00000000000E+00  0.27968619223E+04  0.27968619223E+04  0.00000000000E+00 0.  1.
         21   -1    0    0  504  502  0.00000000000E+00 -0.00000000000E+00 -0.28261543809E+03  0.28261543809E+03  0.00000000000E+00 0.  1.
         21    1    1    2  503  505  0.37390005851E+02 -0.14828029693E+01  0.13104397543E+04  0.13109738979E+04  0.00000000000E+00 0.  1.
         21    1    1    2  504  501  0.50452741131E+01 -0.36394777815E+02 -0.45552411659E+02  0.58523985263E+02  0.00000000000E+00 0. -1.
         21    1    1    2  505  502 -0.26475029547E+01  0.10607161332E+03 -0.21697086317E+03  0.24152546841E+03  0.00000000000E+00 0.  1.
          2    1    1    2  501    0 -0.39787777009E+02 -0.68194032535E+02  0.14663300047E+04  0.14684540088E+04  0.00000000000E+00 0.  1.
<scales pt_clust_3="37.42693" pt_clust_4="36.74282" pt_clust_5="69.92525" pt_clust_6="14000.00000"></scales>
<clustering>
<clus scale="   36.743">  2  4  1 -1</clus>
<clus scale="   37.427">  1  3  2 -1</clus>
<clus scale="   69.925">  2  5  1 -1</clus>
<clus scale="   36.743">  2  3  1 -1</clus>
</clustering>
</event>
<event>
 6    0  0.1849053E+002  0.8552810E+02  0.7546771E-02  0.1314057E+00
         21   -1    0    0  504  502  0.00000000000E+00  0.00000000000E+00  0.62027454769E+03  0.62027454769E+03  0.00000000000E+00 0. -1.
         -1   -1    0    0    0  501 -0.00000000000E+00 -0.00000000000E+00 -0.14132006869E+03  0.14132006869E+03  0.00000000000E+00 0.  1.
         21    1    1    2  503  502 -0.28087811844E+02 -0.33741278658E+02  0.74106015204E+02  0.86134200810E+02  0.00000000000E+00 0.  1.
         21    1    1    2  504  505  0.76201027012E+02 -0.55043642275E+01  0.47039333687E+03  0.47655722208E+03  0.00000000000E+00 0. -1.
         21    1    1    2  505  501  0.65789588578E+02  0.32771650596E+02 -0.30252188389E+02  0.79482362512E+02  0.00000000000E+00 0. -1.
         -1    1    1    2    0  503 -0.11390280375E+03  0.64739922894E+01 -0.35292684698E+02  0.11942083097E+03  0.00000000000E+00 0.  1.
<scales pt_clust_3="43.90215" pt_clust_4="62.37938" pt_clust_5="85.52810" pt_clust_6="14000.00000"></scales>
<clustering>
<clus scale="   43.902">  1  3  2 -1</clus>
<clus scale="   62.379">  1  4  2 -1</clus>
<clus scale="   85.528">  2  5  1 -1</clus>
<clus scale="   43.902">  1  3  2 -1</clus>
</clustering>
</event>
<event>
 6    0  0.1849053E+002  0.1318057E+03  0.7546771E-02  0.1224801E+00
          2   -1    0    0  505    0 -0.00000000000E+00  0.00000000000E+00  0.65837422490E+03  0.65837422490E+03  0.00000000000E+00 0.  1.
         21   -1    0    0  501  502  0.00000000000E+00 -0.00000000000E+00 -0.13357074243E+03  0.13357074243E+03  0.00000000000E+00 0. -1.
         21    1    1    2  503  504 -0.64467026943E+02 -0.35835289890E+02 -0.38001410094E+02  0.82971517604E+02  0.00000000000E+00 0. -1.
         21    1    1    2  504  502 -0.60451691795E+02  0.67765690894E+01 -0.43883645897E+02  0.75007355018E+02  0.00000000000E+00 0. -1.
         21    1    1    2  505  503  0.44611874374E+02  0.40229816904E+02  0.74812960421E+02  0.95946008516E+02  0.00000000000E+00 0.  1.
          2    1    1    2  501    0  0.80306844364E+02 -0.11171096103E+02  0.53187557804E+03  0.53802008620E+03  0.00000000000E+00 0.  1.
<scales pt_clust_3="38.56230" pt_clust_4="38.56230" pt_clust_5="60.07210" pt_clust_6="124.77853"></scales>
<clustering>
<clus scale="   38.562">  3  4 -1 -1</clus>
<clus scale="   60.072">  1  5  2 -1</clus>
<clus scale="  124.779">  1  6  2 -1</clus>
<clus scale="  131.806">  2  3  1 -1</clus>
</clustering>
</event>
<event>
 6    0  0.1849053E+002  0.1166322E+03  0.7546771E-02  0.1248759E+00
         21   -1    0    0  505  502  0.00000000000E+00  0.00000000000E+00  0.60974553932E+03  0.60974553932E+03  0.00000000000E+00 0. -1.
         -2   -1    0    0    0  501 -0.00000000000E+00 -0.00000000000E+00 -0.16458750970E+03  0.16458750970E+03  0.00000000000E+00 0. -1.
         21    1    1    2  503  502 -0.52004339925E+01  0.83087872992E+02  0.42360097781E+03  0.43170409722E+03  0.00000000000E+00 0. -1.
         21    1    1    2  504  501 -0.29318536802E+02 -0.19047679178E+03  0.52597869451E+02  0.19976866791E+03  0.00000000000E+00 0. -1.
         21    1    1    2  505  504 -0.11332839448E+02  0.28013347829E+02  0.21607993833E+02  0.37149512837E+02  0.00000000000E+00 0.  1.
         -2    1    1    2    0  503  0.45851810243E+02  0.79375570958E+02 -0.52648811478E+02  0.10571077106E+03  0.00000000000E+00 0. -1.
<scales pt_clust_3="116.63218" pt_clust_4="14000.00000" pt_clust_5="30.21888" pt_clust_6="92.52333"></scales>
<clustering>
<clus scale="   30.219">  1  5  2 -1</clus>
<clus scale="   92.523">  2  6  1 -1</clus>
<clus scale="  116.632">  1  3  2 -1</clus>
<clus scale="   30.219">  1  3  2 -1</clus>
</clustering>
</event>
<event>
 6    0  0.1849053E+002  0.1275812E+03  0.7546771E-02  0.1231090E+00
          4   -1    0    0  503    0 -0.00000000000E+00  0.00000000000E+00  0.22374539454E+03  0.22374539454E+03  0.00000000000E+00 0. -1.
         21   -1    0    0  504  502  0.00000000000E+00 -0.00000000000E+00 -0.74499701276E+03  0.74499701276E+03  0.00000000000E+00 0. -1.
         21    1    1    2  503  502  0.12962527933E+02 -0.52468573912E+02  0.13291244673E+02  0.55656406313E+02  0.00000000000E+00 0. -1.
         21    1    1    2  504  505 -0.37224595269E+02  0.26181207254E+02 -0.22479660318E+03  0.22935701190E+03  0.00000000000E+00 0. -1.
         21    1    1    2  505  501 -0.79075187339E+02 -0.22138592017E+02 -0.47547213252E+03  0.48251088206E+03  0.00000000000E+00 0. -1.
          4    1    1    2  501    0  0.10333725467E+03  0.48425958675E+02  0.16572587281E+03  0.20121810703E+03  0.00000000000E+00 0. -1.
<scales pt_clust_3="54.04608" pt_clust_4="39.65655" pt_clust_5="39.65655" pt_clust_6="115.92816"></scales>
<clustering>
<clus scale="   39.657">  4  5 -1 -1</clus>
<clus scale="   54.046">  1  3  2 -1</clus>
<clus scale="  115.928">  1  6  2 -1</clus>
<clus scale="  127.581">  2  3  1 -1</clus>
</clustering>
</event>
<event>
 6    0  0.1849053E+002  0.2945236E+03  0.7546771E-02  0.1088011E+00
         21   -1    0    0  504  502  0.00000000000E+00  0.00000000000E+00  0.71837852519E+03  0.71837852519E+03  0.00000000000E+00 0.  1.
          1   -1    0    0  505    0 -0.00000000000E+00 -0.00000000000E+00 -0.66006590218E+03  0.66006590218E+03  0.00000000000E+00 0.  1.
         21    1    1    2  503  501  0.15325650022E+03  0.12844628767E+03 -0.46933448818E+03  0.51015768687E+03  0.00000000000E+00 0.  1.
         21    1    1    2  504  503 -0.78353869185E+02  0.62041103469E+02  0.62650560227E+02  0.11795558500E+03  0.00000000000E+00 0. -1.
         21    1    1    2  505  502 -0.93326847854E+02 -0.27121064640E+03  0.55702840207E+03  0.62653472048E+03  0.00000000000E+00 0.  1.
          1    1    1    2  501    0  0.18424216824E+02  0.80723255262E+02 -0.92031851107E+02  0.12379643502E+03  0.00000000000E+00 0.  1.
<scales pt_clust_3="74.87505" pt_clust_4="99.94212" pt_clust_5="270.56358" pt_clust_6="74.87505"></scales>
<clustering>
<clus scale="   74.875">  3  6 -1 -1</clus>
<clus scale="   99.942">  1  4  2 -1</clus>
<clus scale="  270.564">  1  5  2 -1</clus>
<clus scale="   99.942">  1  3  2 -1</clus>
</clustering>
</event>
<event>
 6    0  0.1849053E+002  0.7055085E+02  0.7546771E-02  0.1358230E+00
         21   -1    0    0  504  502  0.00000000000E+00  0.00000000000E+00  0.68065251396E+02  0.68065251396E+02  0.00000000000E+00 0.  1.
          2   -1    0    0  503    0 -0.00000000000E+00 -0.00000000000E+00 -0.58507336020E+03  0.58507336020E+03  0.00000000000E+00 0. -1.
         21    1    1    2  503  505 -0.32629449806E+02  0.36803657936E+02 -0.10887513095E+03  0.11946959601E+03  0.00000000000E+00 0. -1.
         21    1    1    2  504  501 -0.50752988646E+02  0.47261553498E+02  0.15608800590E+02  0.71085546713E+02  0.00000000000E+00 0.  1.
         21    1    1    2  505  502  0.31630902917E+02 -0.72830461227E+02 -0.72979814139E+02  0.10784638786E+03  0.00000000000E+00 0.  1.
          2    1    1    2  501    0  0.51751535536E+02 -0.11234750207E+02 -0.35076196431E+03  0.35473708102E+03  0.00000000000E+00 0. -1.
<scales pt_clust_3="49.18526" pt_clust_4="70.55085" pt_clust_5="14000.00000" pt_clust_6="31.82141"></scales>
<clustering>
<clus scale="   49.185">  2  3  1 -1</clus>
<clus scale="   31.821">  2  6  1 -1</clus>
<clus scale="   70.551">  1  4  2 -1</clus>
<clus scale="   70.551">  1  3  2 -1</clus>
</clustering>
</event>
<event>
 6    0  0.1849053E+002  0.1540848E+03  0.7546771E-02  0.1195542E+00
         21   -1    0    0  505  502  0.00000000000E+00  0.00000000000E+00  0.27098534390E+02  0.27098534390E+02  0.00000000000E+00 0. -1.
          1   -1    0    0  504    0 -0.00000000000E+00 -0.00000000000E+00 -0.92709927384E+03  0.92709927384E+03  0.00000000000E+00 0. -1.
         21    1    1    2  503  502 -0.96415844482E+02 -0.13532134430E+01 -0.24675895015E+03  0.26492985059E+03  0.00000000000E+00 0. -1.
         21    1    1    2  504  503 -0.36751691455E+02 -0.37546139788E+02 -0.72152068997E+02  0.89254246388E+02  0.00000000000E+00 0. -1.
         21    1    1    2  505  501  0.23616073144E+02  0.29475955030E+02 -0.11153489719E+03  0.11775646108E+03  0.00000000000E+00 0.  1.
          1    1    1    2  501    0  0.10955146279E+03  0.94233982010E+01 -0.46955482311E+03  0.48225725017E+03  0.00000000000E+00 0. -1.
<scales pt_clust_3="49.49152" pt_clust_4="49.49152" pt_clust_5="32.65531" pt_clust_6="149.50315"></scales>
<clustering>
<clus scale="   32.655">  5  6 -1 -1</clus>
<clus scale="   49.492">  3  4 -1 -1</clus>
<clus scale="  149.503">  2  5  1 -1</clus>
<clus scale="  154.085">  1  3  2 -1</clus>
</clustering>
</event>
<event>
 6    0  0.1849053E+002  0.1211169E+03  0.7546771E-02  0.1241266E+00
         -2   -1    0    0    0  501 -0.00000000000E+00  0.00000000000E+00  0.43530806452E+03  0.43530806452E+03  0.00000000000E+00 0. -1.
         21   -1    0    0  503  502  0.00000000000E+00 -0.00000000000E+00 -0.23394638771E+03  0.23394638771E+03  0.00000000000E+00 0.  1.
         21    1    1    2  503  505 -0.32219809050E+02 -0.93745550179E+02 -0.35503724435E+02  0.10529415331E+03  0.00000000000E+00 0.  1.
         21    1    1    2  504  502 -0.26084297587E+02 -0.22832480408E+02 -0.14762276919E+03  0.15163836825E+03  0.00000000000E+00 0.  1.
         21    1    1    2  505  501  0.53958862941E+01  0.29984569655E+02  0.26995635079E+02  0.40705703773E+02  0.00000000000E+00 0.  1.
         -2    1    1    2    0  504  0.52908220343E+02  0.86593460932E+02  0.35749253536E+03  0.37161622690E+03  0.00000000000E+00 0. -1.
<scales pt_clust_3="121.11689" pt_clust_4="34.54678" pt_clust_5="30.46621" pt_clust_6="14000.00000"></scales>
<clustering>
<clus scale="   30.466">  1  5  2 -1</clus>
<clus scale="   34.547">  2  4  1 -1</clus>
<clus scale="  121.117">  2  3  1 -1</clus>
<clus scale="   34.547">  2  3  1 -1</clus>
</clustering>
</event>
<event>
 6    0  0.1849053E+002  0.1079832E+03  0.7546771E-02  0.1264351E+00
          1   -1    0    0  504    0 -0.00000000000E+00  0.00000000000E+00  0.12163427670E+04  0.12163427670E+04  0.00000000000E+00 0. -1.
         21   -1    0    0  501  502  0.00000000000E+00 -0.00000000000E+00 -0.88849117900E+02  0.88849117900E+02  0.00000000000E+00 0.  1.
         21    1    1    2  503  502  0.71726434529E+02  0.83455287229E+02 -0.41721141026E+02  0.11768653273E+03  0.00000000000E+00 0.  1.
         21    1    1    2  504  505  0.17820959905E+02 -0.30897369169E+02  0.63896907944E+02  0.73178199474E+02  0.00000000000E+00 0. -1.
         21    1    1    2  505  503 -0.45043895561E+02 -0.16513571631E+02  0.15429617674E+03  0.16158267460E+03  0.00000000000E+00 0.  1.
          1    1    1    2  501    0 -0.44503498872E+02 -0.36044346428E+02  0.95102170549E+03  0.95274447814E+03  0.00000000000E+00 0. -1.
<scales pt_clust_3="107.98319" pt_clust_4="35.66839" pt_clust_5="47.38399" pt_clust_6="14000.00000"></scales>
<clustering>
<clus scale="   35.668">  1  4  2 -1</clus>
<clus scale="   47.384">  1  5  2 -1</clus>
<clus scale="  107.983">  2  3  1 -1</clus>
<clus scale="  107.983">  2  3  1 -1</clus>
</clustering>
</event>
<event>
 6    0  0.1849053E+002  0.2157875E+03  0.7546771E-02  0.1137063E+00
         21   -1    0    0  504  502  0.00000000000E+00  0.00000000000E+00  0.14221612269E+03  0.14221612269E+03  0.00000000000E+00 0.  1.
          2   -1    0    0  502    0 -0.00000000000E+00 -0.00000000000E+00 -0.39884183310E+03  0.39884183310E+03  0.00000000000E+00 0.  1.
         21    1    1    2  503  505 -0.42668119166E+02 -0.14034262412E+03 -0.61940235863E+01  0.14681616555E+03  0.00000000000E+00 0.  1.
         21    1    1    2  504  503  0.40529698289E+02 -0.55967936532E+02 -0.27011265075E+01  0.69154627086E+02  0.00000000000E+00 0.  1.
         21    1    1    2  505  501 -0.28348312050E+02  0.91903106066E+02 -0.79610229668E+02  0.12485029583E+03  0.00000000000E+00 0.  1.
          2    1    1    2  501    0  0.30486732927E+02  0.10440745459E+03 -0.16812033065E+03  0.20023686733E+03  0.00000000000E+00 0.  1.
<scales pt_clust_3="61.47360" pt_clust_4="61.47360" pt_clust_5="71.42124" pt_clust_6="210.50234"></scales>
<clustering>
<clus scale="   61.474">  3  4 -1 -1</clus>
<clus scale="   71.421">  5  6 -1 -1</clus>
<clus scale="  210.502">  2  5  1 -1</clus>
<clus scale="  215.788">  1  3  2 -1</clus>
</clustering>
</event>
<event>
 6    0  0.1849053E+002  0.2209496E+03  0.7546771E-02  0.1133177E+00
         21   -1    0    0  503  502  0.00000000000E+00  0.00000000000E+00  0.10676783078E+04  0.10676783078E+04  0.00000000000E+00 0. -1.
          2   -1    0    0  504    0 -0.00000000000E+00 -0.00000000000E+00 -0.22531354256E+04  0.22531354256E+04  0.00000000000E+00 0.  1.
         21    1    1    2  503  505  0.16558117551E+02 -0.89262614305E+02  0.37277187040E+03  0.38366763342E+03  0.00000000000E+00 0. -1.
         21    1    1    2  504  502  0.53335896459E+02 -0.15122924536E+01 -0.45283508437E+02  0.69982862301E+02  0.00000000000E+00 0.  1.
         21    1    1    2  505  501  0.86451734945E+02 -0.95335291477E+02  0.66416863085E+03  0.67652249813E+03  0.00000000000E+00 0. -1.
          2    1    1    2  501    0 -0.15634574895E+03  0.18611019824E+03 -0.21771141106E+04  0.21906407395E+04  0.00000000000E+00 0.  1.
<scales pt_clust_3="53.56964" pt_clust_4="53.35733" pt_clust_5="53.56964" pt_clust_6="211.53873"></scales>
<clustering>
<clus scale="   53.357">  2  4  1 -1</clus>
<clus scale="   53.570">  3  5 -1 -1</clus>
<clus scale="  211.539">  2  6  1 -1</clus>
<clus scale="  220.950">  1  3  2 -1</clus>
</clustering>
</event>
<event>
 6    0  0.1849053E+002  0.1664898E+03  0.7546771E-02  0.1181559E+00
         21   -1    0    0  503  502  0.00000000000E+00  0.00000000000E+00  0.32203531660E+03  0.32203531660E+03  0.00000000000E+00 0.  1.
          1   -1    0    0  505    0 -0.00000000000E+00 -0.00000000000E+00 -0.20307337804E+04  0.20307337804E+04  0.00000000000E+00 0. -1.
         21    1    1    2  503  504 -0.72615311714E+02  0.11455865345E+02 -0.30920530864E+02  0.79751486349E+02  0.00000000000E+00 0. -1.
         21    1    1    2  504  501  0.37853198942E+02 -0.15390833770E+03 -0.69708448409E+02  0.17314707292E+03  0.00000000000E+00 0. -1.
         21    1    1    2  505  502  0.14424924834E+03  0.14664957591E+02  0.22032226115E+03  0.26375140831E+03  0.00000000000E+00 0.  1.
          1    1    1    2  501    0 -0.10948713557E+03  0.12778751476E+03 -0.18283917457E+04  0.18361191295E+04  0.00000000000E+00 0. -1.
<scales pt_clust_3="73.51340" pt_clust_4="166.48981" pt_clust_5="88.50633" pt_clust_6="14000.00000"></scales>
<clustering>
<clus scale="   73.513">  1  3  2 -1</clus>
<clus scale="   88.506">  1  5  2 -1</clus>
<clus scale="  166.490">  1  4  2 -1</clus>
<clus scale="   73.513">  1  3  2 -1</clus>
</clustering>
</event>
<event>
 6    0  0.1849053E+002  0.1504328E+03  0.7546771E-02  0.1199942E+00
         -4   -1    0    0    0  501 -0.00000000000E+00  0.00000000000E+00  0.94680907994E+02  0.94680907994E+02  0.00000000000E+00 0. -1.
         21   -1    0    0  503  502  0.00000000000E+00 -0.00000000000E+00 -0.36824043232E+03  0.36824043232E+03  0.00000000000E+00 0. -1.
         21    1    1    2  503  504 -0.20174601993E+02  0.39873968913E+02 -0.14314709792E+03  0.14996012672E+03  0.00000000000E+00 0. -1.
         21    1    1    2  504  501 -0.64343029579E+02  0.68663090871E+02 -0.13249956261E+03  0.16251393661E+03  0.00000000000E+00 0. -1.
         21    1    1    2  505  502  0.61624375188E+01 -0.51136559002E+02 -0.10311400210E+02  0.52528547258E+02  0.00000000000E+00 0. -1.
         -4    1    1    2    0  505  0.78355194052E+02 -0.57400500781E+02  0.12398536413E+02  0.97918729720E+02  0.00000000000E+00 0. -1.
<scales pt_clust_3="36.04227" pt_clust_4="147.16983" pt_clust_5="44.33384" pt_clust_6="44.33384"></scales>
<clustering>
<clus scale="   36.042">  3  4 -1 -1</clus>
<clus scale="   44.334">  5  6 -1 -1</clus>
<clus scale="  147.170">  2  3  1 -1</clus>
<clus scale="  147.170">  2  3  1 -1</clus>
</clustering>
</event>
<event>
 6    0  0.1849053E+002  0.1187133E+03  0.7546771E-02  0.1245235E+00
         21   -1    0    0  503  502  0.00000000000E+00  0.00000000000E+00  0.44534951419E+02  0.44534951419E+02  0.00000000000E+00 0. -1.
          2   -1    0    0  502    0 -0.00000000000E+00 -0.00000000000E+00 -0.78162188998E+03  0.78162188998E+03  0.00000000000E+00 0.  1.
         21    1    1    2  503  504  0.68633843610E+02 -0.18291729968E+01 -0.33080911960E+02  0.76212184712E+02  0.00000000000E+00 0. -1.
         21    1    1    2  504  505  0.43195679545E+02 -0.68213873981E+02 -0.90053733280E+02  0.12094905627E+03  0.00000000000E+00 0. -1.
         21    1    1    2  505  501 -0.50474621618E+02  0.44739325641E+02 -0.37404261485E+03  0.38007521941E+03  0.00000000000E+00 0.  1.
          2    1    1    2  501    0 -0.61354901536E+02  0.25303721337E+02 -0.23990967847E+03  0.24892038101E+03  0.00000000000E+00 0.  1.
<scales pt_clust_3="68.65821" pt_clust_4="113.16657" pt_clust_5="35.57487" pt_clust_6="35.57487"></scales>
<clustering>
<clus scale="   35.575">  5  6 -1 -1</clus>
<clus scale="   68.658">  1  3  2 -1</clus>
<clus scale="  113.167">  1  4  2 -1</clus>
<clus scale="   68.658">  1  3  2 -1</clus>
</clustering>
</event>
<event>
 6    0  0.1849053E+002  0.1604881E+03  0.7546771E-02  0.1188147E+00
         21   -1    0    0  505  502  0.00000000000E+00  0.00000000000E+00  0.16156828271E+03  0.16156828271E+03  0.00000000000E+00 0.  1.
          1   -1    0    0  503    0 -0.00000000000E+00 -0.00000000000E+00 -0.35014650974E+03  0.35014650974E+03  0.00000000000E+00 0.  1.
         21    1    1    2  503  504 -0.15823741664E+03  0.82751642127E+02 -0.49654405723E+02  0.18534420495E+03  0.00000000000E+00 0.  1.
         21    1    1    2  504  502  0.13179609358E+02 -0.97127466745E+02  0.23592952750E+02  0.10081703387E+03  0.00000000000E+00 0.  1.
         21    1    1    2  505  501  0.64305783604E+02  0.22448995646E+02 -0.41224580947E+02  0.79615684916E+02  0.00000000000E+00 0.  1.
          1    1    1    2  501    0  0.80752023676E+02 -0.80731710278E+01 -0.12129219310E+03  0.14593786872E+03  0.00000000000E+00 0.  1.
<scales pt_clust_3="150.14048" pt_clust_4="98.01758" pt_clust_5="51.93921" pt_clust_6="51.93921"></scales>
<clustering>
<clus scale="   51.939">  5  6 -1 -1</clus>
<clus scale="   98.018">  1  4  2 -1</clus>
<clus scale="  150.140">  1  3  2 -1</clus>
<clus scale="   98.018">  1  3  2 -1</clus>
</clustering>
</event>
<event>
 6    0  0.1849053E+002  0.1082625E+03  0.7546771E-02  0.1263822E+00
          2   -1    0    0  505    0 -0.00000000000E+00  0.00000000000E+00  0.15217105804E+04  0.15217105804E+04  0.00000000000E+00 0. -1.
         21   -1    0    0  504  502  0.00000000000E+00 -0.00000000000E+00 -0.74833326485E+03  0.74833326485E+03  0.00000000000E+00 0.  1.
         21    1    1    2  503  502 -0.45348281442E+01 -0.89169918910E+02 -0.65293809598E+03  0.65901441280E+03  0.00000000000E+00 0.  1.
         21    1    1    2  504  501  0.13976133381E+02 -0.33829672944E+02 -0.19479266221E+02  0.41463488617E+02  0.00000000000E+00 0.  1.
         21    1    1    2  505  503 -0.91905055469E+02  0.58398332940E+02 -0.10604212126E+02  0.10940454207E+03  0.00000000000E+00 0.  1.
          2    1    1    2  501    0  0.82463750233E+02  0.64601258914E+02  0.14563988899E+04  0.14601614017E+04  0.00000000000E+00 0. -1.
<scales pt_clust_3="108.26251" pt_clust_4="36.60299" pt_clust_5="14000.00000" pt_clust_6="104.72912"></scales>
<clustering>
<clus scale="   36.603">  2  4  1 -1</clus>
<clus scale="  104.729">  1  6  2 -1</clus>
<clus scale="  108.263">  2  3  1 -1</clus>
<clus scale="   36.603">  2  3  1 -1</clus>
</clustering>
</event>
<event>
 6    0  0.1849053E+002  0.1080834E+03  0.7546771E-02  0.1264161E+00
          2   -1    0    0  503    0 -0.00000000000E+00  0.00000000000E+00  0.23092312006E+04  0.23092312006E+04  0.00000000000E+00 0.  1.
         21   -1    0    0  505  502  0.00000000000E+00 -0.00000000000E+00 -0.31381900765E+02  0.31381900765E+02  0.00000000000E+00 0.  1.
         21    1    1    2  503  504  0.25636072956E+02 -0.22212342911E+02  0.20582038037E+03  0.20859680100E+03  0.00000000000E+00 0.  1.
         21    1    1    2  504  502  0.44310719782E+02 -0.37974057490E+02  0.10157280872E+03  0.11714309370E+03  0.00000000000E+00 0.  1.
         21    1    1    2  505  501 -0.11146877162E+03  0.12207588146E+03  0.29819119496E+03  0.34094837825E+03  0.00000000000E+00 0.  1.
          2    1    1    2  501    0  0.41521978887E+02 -0.61889481061E+02  0.16722649157E+04  0.16739248284E+04  0.00000000000E+00 0.  1.
<scales pt_clust_3="33.92044" pt_clust_4="60.12109" pt_clust_5="108.08340" pt_clust_6="14000.00000"></scales>
<clustering>
<clus scale="   33.920">  1  3  2 -1</clus>
<clus scale="   60.121">  2  4  1 -1</clus>
<clus scale="  108.083">  2  5  1 -1</clus>
<clus scale="   60.121">  2  3  1 -1</clus>
</clustering>
</event>
<event>
 6    0  0.1849053E+002  0.1403964E+03  0.7546771E-02  0.1212797E+00
         21   -1    0    0  501  502  0.00000000000E+00  0.00000000000E+00  0.17782677967E+03  0.17782677967E+03  0.00000000000E+00 0. -1.
          2   -1    0    0  503    0 -0.00000000000E+00 -0.00000000000E+00 -0.22242466368E+03  0.22242466368E+03  0.00000000000E+00 0. -1.
         21    1    1    2  503  504 -0.69364003705E+01  0.96196464770E+02 -0.61635258020E+02  0.11445863233E+03  0.00000000000E+00 0. -1.
         21    1    1    2  504  505  0.51600133646E+02  0.39859541788E+01  0.12447225350E+02  0.53229644390E+02  0.00000000000E+00 0. -1.
         21    1    1    2  505  502  0.65003435383E+02 -0.84686715617E+02  0.43345245167E+02  0.11522194536E+03  0.00000000000E+00 0. -1.
          2    1    1    2  501    0 -0.10966716866E+03 -0.15495703332E+02 -0.38755096511E+02  0.11734122127E+03  0.00000000000E+00 0. -1.
<scales pt_clust_3="96.44622" pt_clust_4="49.98605" pt_clust_5="49.98605" pt_clust_6="120.65243"></scales>
<clustering>
<clus scale="   49.986">  4  5 -1 -1</clus>
<clus scale="   96.446">  2  3  1 -1</clus>
<clus scale="  120.652">  2  6  1 -1</clus>
<clus scale="  140.396">  1  3  2 -1</clus>
</clustering>
</event>
<event>
 6    0  0.1849053E+002  0.7920189E+02  0.7546771E-02  0.1331332E+00
         21   -1    0    0  503  502  0.00000000000E+00  0.00000000000E+00  0.75472533848E+02  0.75472533848E+02  0.00000000000E+00 0.  1.
          2   -1    0    0  504    0 -0.00000000000E+00 -0.00000000000E+00 -0.79502098950E+03  0.79502098950E+03  0.00000000000E+00 0.  1.
         21    1    1    2  503  501  0.87072923895E+01 -0.28992079196E+02  0.11691588126E+02  0.32450744672E+02  0.00000000000E+00 0.  1.
         21    1    1    2  504  505  0.22661504637E+02  0.30681586939E+02 -0.87736834925E+02  0.95669513285E+02  0.00000000000E+00 0.  1.
         21    1    1    2  505  502  0.23970389154E+02  0.94486783516E+02 -0.86130959491E+01  0.97859681367E+02  0.00000000000E+00 0.  1.
          2    1    1    2  501    0 -0.55339186181E+02 -0.96176291259E+02 -0.63489011291E+03  0.64451358403E+03  0.00000000000E+00 0.  1.
<scales pt_clust_3="30.27140" pt_clust_4="36.83929" pt_clust_5="79.20189" pt_clust_6="14000.00000"></scales>
<clustering>
<clus scale="   30.271">  1  3  2 -1</clus>
<clus scale="   36.839">  2  4  1 -1</clus>
<clus scale="   79.202">  1  5  2 -1</clus>
<clus scale="   30.271">  1  3  2 -1</clus>
</clustering>
</event>
<event>
 6    0  0.1849053E+002  0.2893650E+03  0.7546771E-02  0.1090681E+00
         21   -1    0    0  505  502  0.00000000000E+00  0.00000000000E+00  0.76690679780E+02  0.76690679780E+02  0.00000000000E+00 0. -1.
          3   -1    0    0  503    0 -0.00000000000E+00 -0.00000000000E+00 -0.14412966612E+04  0.14412966612E+04  0.00000000000E+00 0. -1.
         21    1    1    2  503  504 -0.11479119362E+03 -0.57224165280E+02 -0.23706690341E+03  0.26954098003E+03  0.00000000000E+00 0. -1.
         21    1    1    2  504  502 -0.14440038161E+03 -0.81043633510E+02 -0.20507653048E+03  0.26358286002E+03  0.00000000000E+00 0. -1.
         21    1    1    2  505  501  0.20851528076E+03  0.18172402580E+03 -0.70231909587E+03  0.75482074448E+03  0.00000000000E+00 0. -1.
          3    1    1    2  501    0  0.50676294475E+02 -0.43456227010E+02 -0.22014345167E+03  0.23004275646E+03  0.00000000000E+00 0. -1.
<scales pt_clust_3="43.40252" pt_clust_4="43.40252" pt_clust_5="285.13183" pt_clust_6="66.75725"></scales>
<clustering>
<clus scale="   43.403">  3  4 -1 -1</clus>
<clus scale="   66.757">  2  6  1 -1</clus>
<clus scale="  285.132">  2  5  1 -1</clus>
<clus scale="  289.365">  1  3  2 -1</clus>
</clustering>
</event>
<event>
 6    0  0.1849053E+002  0.1453647E+03  0.7546771E-02  0.1206287E+00
         21   -1    0    0  505  502  0.00000000000E+00  0.00000000000E+00  0.36439231561E+02  0.36439231561E+02  0.00000000000E+00 0.  1.
          2   -1    0    0  503    0 -0.00000000000E+00 -0.00000000000E+00 -0.18168154819E+04  0.18168154819E+04  0.00000000000E+00 0.  1.
         21    1    1    2  503  502 -0.28646939203E+02  0.30947563634E+02 -0.93361962262E+02  0.10244439867E+03  0.00000000000E+00 0. -1.
         21    1    1    2  504  501  0.39255408351E+02 -0.30877741511E+02 -0.85482906735E+03  0.85628684236E+03  0.00000000000E+00 0.  1.
         21    1    1    2  505  504 -0.48351975287E+02  0.83371686059E+02 -0.53029360088E+02  0.11000392985E+03  0.00000000000E+00 0.  1.
          2    1    1    2  501    0  0.37743506139E+02 -0.83441508182E+02 -0.77915586066E+03  0.78451954262E+03  0.00000000000E+00 0.  1.
<scales pt_clust_3="42.17107" pt_clust_4="43.07417" pt_clust_5="133.37825" pt_clust_6="43.07417"></scales>
<clustering>
<clus scale="   42.171">  1  3  2 -1</clus>
<clus scale="   43.074">  4  6 -1 -1</clus>
<clus scale="  133.378">  1  5  2 -1</clus>
<clus scale="   42.171">  1  3  2 -1</clus>
</clustering>
</event>
<event>
 6    0  0.1849053E+002  0.1926404E+03  0.7546771E-02  0.1156101E+00
         21   -1    0    0  504  502  0.00000000000E+00  0.00000000000E+00  0.91088401926E+02  0.91088401926E+02  0.00000000000E+00 0.  1.
          2   -1    0    0  505    0 -0.00000000000E+00 -0.00000000000E+00 -0.14991701765E+04  0.14991701765E+04  0.00000000000E+00 0.  1.
         21    1    1    2  503  502 -0.77052985931E+02  0.36268818146E+02 -0.31338180822E+02  0.90745090159E+02  0.00000000000E+00 0.  1.
         21    1    1    2  504  501  0.18290847649E+02 -0.71256668189E+02 -0.73546445992E+01  0.73933474599E+02  0.00000000000E+00 0.  1.
         21    1    1    2  505  503 -0.47894573853E+02  0.19462315634E+03 -0.59964527427E+03  0.63225510527E+03  0.00000000000E+00 0.  1.
          2    1    1    2  501    0  0.10665671214E+03 -0.15963530630E+03 -0.76974367488E+03  0.79332490839E+03  0.00000000000E+00 0.  1.
<scales pt_clust_3="67.65405" pt_clust_4="73.56676" pt_clust_5="192.64038" pt_clust_6="14000.00000"></scales>
<clustering>
<clus scale="   73.567">  1  4  2 -1</clus>
<clus scale="   67.654">  1  3  2 -1</clus>
<clus scale="  192.640">  1  5  2 -1</clus>
<clus scale="   73.567">  1  3  2 -1</clus>
</clustering>
</event>
<event>
 6    0  0.1849053E+002  0.1592426E+03  0.7546771E-02  0.1189555E+00
          2   -1    0    0  503    0 -0.00000000000E+00  0.00000000000E+00  0.19636780161E+04  0.19636780161E+04  0.00000000000E+00 0. -1.
         21   -1    0    0  505  502  0.00000000000E+00 -0.00000000000E+00 -0.82163311262E+02  0.82163311262E+02  0.00000000000E+00 0.  1.
         21    1    1    2  503  504  0.36134969224E+02  0.49840895837E+01  0.82587976468E+03  0.82668492357E+03  0.00000000000E+00 0. -1.
         21    1    1    2  504  502 -0.10237326462E+03 -0.17156467906E+01  0.65833924579E+02  0.12172647362E+03  0.00000000000E+00 0.  1.
         21    1    1    2  505  501  0.36775685917E+02 -0.15235335154E+03  0.81784527299E+02  0.17678434236E+03  0.00000000000E+00 0.  1.
          2    1    1    2  501    0  0.29462609482E+02  0.14908490874E+03  0.90801648829E+03  0.92064558782E+03  0.00000000000E+00 0. -1.
<scales pt_clust_3="36.47708" pt_clust_4="99.40244" pt_clust_5="14000.00000" pt_clust_6="159.24256"></scales>
<clustering>
<clus scale="   36.477">  1  3  2 -1</clus>
<clus scale="   99.402">  2  4  1 -1</clus>
<clus scale="  159.243">  1  6  2 -1</clus>
<clus scale="   99.402">  2  3  1 -1</clus>
</clustering>
</event>
<event>
 6    0  0.1849053E+002  0.8355124E+02  0.7546771E-02  0.1319265E+00
         21   -1    0    0  505  502  0.00000000000E+00  0.00000000000E+00  0.39402820128E+03  0.39402820128E+03  0.00000000000E+00 0.  1.
          2   -1    0    0  504    0 -0.00000000000E+00 -0.00000000000E+00 -0.33835694819E+04  0.33835694819E+04  0.00000000000E+00 0.  1.
         21    1    1    2  503  501  0.10588258854E+03  0.70267769914E+02  0.33634546872E+03  0.35955104835E+03  0.00000000000E+00 0.  1.
         21    1    1    2  504  502 -0.44882049426E+02 -0.15478141080E+02 -0.97867459439E+03  0.97982546044E+03  0.00000000000E+00 0.  1.
         21    1    1    2  505  503 -0.32101270549E+02 -0.29910499188E+02  0.34739721917E+02  0.55964076080E+02  0.00000000000E+00 0.  1.
          2    1    1    2  501    0 -0.28899268560E+02 -0.24879129646E+02 -0.23819518768E+04  0.23822570983E+04  0.00000000000E+00 0.  1.
<scales pt_clust_3="14000.00000" pt_clust_4="83.55124" pt_clust_5="44.28007" pt_clust_6="38.13317"></scales>
<clustering>
<clus scale="   38.133">  2  6  1 -1</clus>
<clus scale="   44.280">  1  5  2 -1</clus>
<clus scale="   83.551">  2  4  1 -1</clus>
<clus scale="   44.280">  1  3  2 -1</clus>
</clustering>
</event>
<event>
 6    0  0.1849053E+002  0.1195450E+03  0.7546771E-02  0.1243849E+00
         21   -1    0    0  505  502  0.00000000000E+00  0.00000000000E+00  0.14400486074E+03  0.14400486074E+03  0.00000000000E+00 0. -1.
          1   -1    0    0  503    0 -0.00000000000E+00 -0.00000000000E+00 -0.26632335279E+04  0.26632335279E+04  0.00000000000E+00 0.  1.
         21    1    1    2  503  502 -0.20224216314E+02 -0.32841338297E+02 -0.16260361219E+03  0.16711525102E+03  0.00000000000E+00 0. -1.
         21    1    1    2  504  501 -0.16906174516E+02 -0.47377028154E+02  0.36479721359E+02  0.62138326369E+02  0.00000000000E+00 0. -1.
         21    1    1    2  505  504  0.11926676655E+02 -0.66468964382E+02  0.77560973501E+02  0.10284003818E+03  0.00000000000E+00 0. -1.
          1    1    1    2  501    0  0.25203714175E+02  0.14668733083E+03 -0.24706657499E+04  0.24751447731E+04  0.00000000000E+00 0.  1.
<scales pt_clust_3="38.56906" pt_clust_4="30.23066" pt_clust_5="30.23066" pt_clust_6="114.29848"></scales>
<clustering>
<clus scale="   30.231">  4  5 -1 -1</clus>
<clus scale="   38.569">  2  3  1 -1</clus>
<clus scale="  114.298">  2  6  1 -1</clus>
<clus scale="  119.545">  1  3  2 -1</clus>
</clustering>
</event>
<event>
 6    0  0.1849053E+002  0.1099860E+03  0.7546771E-02  0.1260596E+00
         21   -1    0    0  504  502  0.00000000000E+00  0.00000000000E+00  0.12655116093E+03  0.12655116093E+03  0.00000000000E+00 0.  1.
          1   -1    0    0  503    0 -0.00000000000E+00 -0.00000000000E+00 -0.31631875738E+04  0.31631875738E+04  0.00000000000E+00 0. -1.
         21    1    1    2  503  505  0.41976001322E+02  0.45590995535E+02 -0.21004146537E+03  0.21899301527E+03  0.00000000000E+00 0.  1.
         21    1    1    2  504  501 -0.91074960860E+02  0.36493822794E+02  0.80058593681E+02  0.12663264200E+03  0.00000000000E+00 0.  1.
         21    1    1    2  505  502 -0.20720323980E+02 -0.41715658332E+02 -0.11685227365E+02  0.48021583840E+02  0.00000000000E+00 0. -1.
          1    1    1    2  501    0  0.69819283518E+02 -0.40369159998E+02 -0.28949683139E+04  0.28960914937E+04  0.00000000000E+00 0. -1.
<scales pt_clust_3="60.12745" pt_clust_4="109.98597" pt_clust_5="46.57819" pt_clust_6="14000.00000"></scales>
<clustering>
<clus scale="   46.578">  1  5  2 -1</clus>
<clus scale="   60.127">  2  3  1 -1</clus>
<clus scale="  109.986">  1  4  2 -1</clus>
<clus scale="   46.578">  1  3  2 -1</clus>
</clustering>
</event>
<event>
 6    0  0.1849053E+002  0.9876592E+02  0.7546771E-02  0.1282913E+00
          2   -1    0    0  505    0 -0.00000000000E+00  0.00000000000E+00  0.84846579790E+03  0.84846579790E+03  0.00000000000E+00 0. -1.
         21   -1    0    0  503  502  0.00000000000E+00 -0.00000000000E+00 -0.21835892774E+03  0.21835892774E+03  0.00000000000E+00 0. -1.
         21    1    1    2  503  501  0.34541643689E+02  0.35966552613E+02  0.28824910831E+02  0.57598555017E+02  0.00000000000E+00 0. -1.
         21    1    1    2  504  502 -0.72769669600E+02  0.72088803429E+02 -0.15650012656E+03  0.18704146601E+03  0.00000000000E+00 0. -1.
         21    1    1    2  505  504  0.46687988576E+01 -0.10215235422E+03  0.50439953730E+02  0.11402232277E+03  0.00000000000E+00 0.  1.
          2    1    1    2  501    0  0.33559227053E+02 -0.59030018171E+01  0.70734213215E+03  0.70816238185E+03  0.00000000000E+00 0. -1.
<scales pt_clust_3="56.37168" pt_clust_4="98.76592" pt_clust_5="14000.00000" pt_clust_6="34.07444"></scales>
<clustering>
<clus scale="   34.074">  1  6  2 -1</clus>
<clus scale="   56.372">  1  3  2 -1</clus>
<clus scale="   98.766">  2  4  1 -1</clus>
<clus scale="   98.766">  2  3  1 -1</clus>
</clustering>
</event>
<event>
 6    0  0.1849053E+002  0.1340853E+03  0.7546771E-02  0.1221517E+00
         21   -1    0    0  501  502  0.00000000000E+00  0.00000000000E+00  0.29013571462E+03  0.29013571462E+03  0.00000000000E+00 0. -1.
          2   -1    0    0  504    0 -0.00000000000E+00 -0.00000000000E+00 -0.82539991644E+03  0.82539991644E+03  0.00000000000E+00 0.  1.
         21    1    1    2  503  502 -0.45794081052E+01  0.67299467277E+02  0.13499449782E+03  0.15090958789E+03  0.00000000000E+00 0. -1.
         21    1    1    2  504  505 -0.45085011275E+02 -0.48206492908E+02 -0.51308770331E+02  0.83600921724E+02  0.00000000000E+00 0. -1.
         21    1    1    2  505  503  0.12200274165E+03  0.12679963222E+02  0.99685828429E+02  0.15805921304E+03  0.00000000000E+00 0. -1.
          2    1    1    2  501    0 -0.72338322268E+02 -0.31772937591E+02 -0.71863575774E+03  0.72296590842E+03  0.00000000000E+00 0.  1.
<scales pt_clust_3="66.98420" pt_clust_4="66.00397" pt_clust_5="134.08528" pt_clust_6="14000.00000"></scales>
<clustering>
<clus scale="   66.004">  2  4  1 -1</clus>
<clus scale="   66.984">  1  3  2 -1</clus>
<clus scale="  134.085">  1  5  2 -1</clus>
<clus scale="   66.984">  1  3  2 -1</clus>
</clustering>
</event>
<event>
 6    0  0.1849053E+002  0.2213915E+03  0.7546771E-02  0.1132850E+00
          1   -1    0    0  504    0 -0.00000000000E+00  0.00000000000E+00  0.36301555908E+04  0.36301555908E+04  0.00000000000E+00 0.  1.
         21   -1    0    0  505  502  0.00000000000E+00 -0.00000000000E+00 -0.35745308954E+02  0.35745308954E+02  0.00000000000E+00 0.  1.
         21    1    1    2  503  502 -0.27610839963E+02  0.29223067688E+02  0.42038941634E+02  0.58168881563E+02  0.00000000000E+00 0.  1.
         21    1    1    2  504  503  0.21694163513E+02  0.21385619844E+03  0.53470137327E+03  0.57629043799E+03  0.00000000000E+00 0.  1.
         21    1    1    2  505  501 -0.42207024416E+02 -0.23547302158E+02  0.24783409403E+03  0.25250276535E+03  0.00000000000E+00 0.  1.
          1    1    1    2  501    0  0.48123700866E+02 -0.21953196397E+03  0.27698358729E+04  0.27789388149E+04  0.00000000000E+00 0.  1.
<scales pt_clust_3="40.20381" pt_clust_4="14000.00000" pt_clust_5="49.27370" pt_clust_6="221.39151"></scales>
<clustering>
<clus scale="   40.204">  2  3  1 -1</clus>
<clus scale="   49.274">  2  5  1 -1</clus>
<clus scale="  221.392">  1  6  2 -1</clus>
<clus scale="   40.204">  2  3  1 -1</clus>
</clustering>
</event>
<event>
 6    0  0.1849053E+002  0.1093608E+03  0.7546771E-02  0.1261758E+00
          2   -1    0    0  505    0 -0.00000000000E+00  0.00000000000E+00  0.13454448106E+04  0.13454448106E+04  0.00000000000E+00 0. -1.
         21   -1    0    0  501  502  0.00000000000E+00 -0.00000000000E+00 -0.18014030603E+02  0.18014030603E+02  0.00000000000E+00 0. -1.
         21    1    1    2  503  502 -0.10188314917E+02 -0.52741879871E+02  0.12969255718E+03  0.14037687503E+03  0.00000000000E+00 0. -1.
         21    1    1    2  504  503  0.21705489535E+02 -0.45763978391E+02  0.13222818280E+03  0.14159718331E+03  0.00000000000E+00 0. -1.
         21    1    1    2  505  504 -0.31946155904E+02 -0.15464437679E+02  0.62515405596E+03  0.62616076162E+03  0.00000000000E+00 0. -1.
          2    1    1    2  501    0  0.20428981285E+02  0.11397029594E+03  0.44035598401E+03  0.45532402121E+03  0.00000000000E+00 0. -1.
<scales pt_clust_3="31.77604" pt_clust_4="31.77604" pt_clust_5="35.49233" pt_clust_6="104.35004"></scales>
<clustering>
<clus scale="   31.776">  3  4 -1 -1</clus>
<clus scale="   35.492">  1  5  2 -1</clus>
<clus scale="  104.350">  1  6  2 -1</clus>
<clus scale="  109.361">  2  3  1 -1</clus>
</clustering>
</event>
<event>
 6    0  0.1849053E+002  0.2061177E+03  0.7546771E-02  0.1144678E+00
         21   -1    0    0  504  502  0.00000000000E+00  0.00000000000E+00  0.48104961387E+02  0.48104961387E+02  0.00000000000E+00 0.  1.
          2   -1    0    0  503    0 -0.00000000000E+00 -0.00000000000E+00 -0.22545559126E+04  0.22545559126E+04  0.00000000000E+00 0.  1.
         21    1    1    2  503  505 -0.39011436579E+02 -0.29930702536E+02 -0.11131643395E+03  0.12169259470E+03  0.00000000000E+00 0.  1.
         21    1    1    2  504  501  0.42604410399E+02  0.82216210559E+02 -0.70400397464E+03  0.71006776956E+03  0.00000000000E+00 0.  1.
         21    1    1    2  505  502 -0.10365220290E+03 -0.93948302480E+02 -0.92397309280E+02  0.16765239476E+03  0.00000000000E+00 0.  1.
          2    1    1    2  501    0  0.10005922908E+03  0.41662794456E+02 -0.12987332334E+04  0.13032481150E+04  0.00000000000E+00 0.  1.
<scales pt_clust_3="47.88010" pt_clust_4="76.13961" pt_clust_5="205.47806" pt_clust_6="76.13961"></scales>
<clustering>
<clus scale="   47.880">  3  5 -1 -1</clus>
<clus scale="   76.140">  4  6 -1 -1</clus>
<clus scale="  205.478">  1  3  2 -1</clus>
<clus scale="  205.478">  1  3  2 -1</clus>
</clustering>
</event>
<event>
 6    0  0.1849053E+002  0.1779222E+03  0.7546771E-02  0.1169829E+00
          1   -1    0    0  503    0 -0.00000000000E+00  0.00000000000E+00  0.20667756568E+04  0.20667756568E+04  0.00000000000E+00 0. -1.
         21   -1    0    0  501  502  0.00000000000E+00 -0.00000000000E+00 -0.41216507087E+02  0.41216507087E+02  0.00000000000E+00 0. -1.
         21    1    1    2  503  504 -0.50865043376E+02  0.36743175557E+02  0.29113759858E+03  0.29782279109E+03  0.00000000000E+00 0. -1.
         21    1    1    2  504  505  0.64108484236E+02 -0.14351858783E+02  0.91218115476E+02  0.11241271366E+03  0.00000000000E+00 0. -1.
         21    1    1    2  505  502  0.11568700995E+03  0.20652971555E+02  0.11809403993E+03  0.16660201612E+03  0.00000000000E+00 0. -1.
          1    1    1    2  501    0 -0.12893045082E+03 -0.43044288328E+02  0.15251093957E+04  0.15311546430E+04  0.00000000000E+00 0. -1.
<scales pt_clust_3="62.74802" pt_clust_4="30.56849" pt_clust_5="30.56849" pt_clust_6="173.16122"></scales>
<clustering>
<clus scale="   30.568">  4  5 -1 -1</clus>
<clus scale="   62.748">  1  3  2 -1</clus>
<clus scale="  173.161">  1  6  2 -1</clus>
<clus scale="  177.922">  2  3  1 -1</clus>
</clustering>
</event>
<event>
 6    0  0.1849053E+002  0.9681823E+02  0.7546771E-02  0.1287133E+00
          2   -1    0    0  503    0 -0.00000000000E+00  0.00000000000E+00  0.22656696613E+03  0.22656696613E+03  0.00000000000E+00 0. -1.
         21   -1    0    0  504  502  0.00000000000E+00 -0.00000000000E+00 -0.25110170607E+03  0.25110170607E+03  0.00000000000E+00 0.  1.
         21    1    1    2  503  505 -0.40129484541E+02 -0.27947732647E+02  0.22826656264E+02  0.53967652588E+02  0.00000000000E+00 0.  1.
         21    1    1    2  504  501  0.12996586952E+03  0.30862186958E+02 -0.18281551815E+03  0.22641801055E+03  0.00000000000E+00 0.  1.
         21    1    1    2  505  502 -0.35145441007E+02  0.19489328335E+01 -0.14137982591E+02  0.37932610173E+02  0.00000000000E+00 0.  1.
          2    1    1    2  501    0 -0.54690943973E+02 -0.48633871447E+01  0.14959210453E+03  0.15935039889E+03  0.00000000000E+00 0. -1.
<scales pt_clust_3="50.84278" pt_clust_4="96.81823" pt_clust_5="35.19944" pt_clust_6="14000.00000"></scales>
<clustering>
<clus scale="   35.199">  2  5  1 -1</clus>
<clus scale="   50.843">  1  3  2 -1</clus>
<clus scale="   96.818">  2  4  1 -1</clus>
<clus scale="   35.199">  2  3  1 -1</clus>
</clustering>
</event>
<event>
 6    0  0.1849053E+002  0.1946230E+03  0.7546771E-02  0.1154357E+00
          2   -1    0    0  503    0 -0.00000000000E+00  0.00000000000E+00  0.10034019546E+04  0.10034019546E+04  0.00000000000E+00 0.  1.
         21   -1    0    0  504  502  0.00000000000E+00 -0.00000000000E+00 -0.46180671461E+02  0.46180671461E+02  0.00000000000E+00 0.  1.
         21    1    1    2  503  505  0.48920290482E+02 -0.13185244467E+03  0.19319670568E+03  0.23896281944E+03  0.00000000000E+00 0.  1.
         21    1    1    2  504  501 -0.24176810331E+01  0.13280039453E+03  0.43110387074E+03  0.45110124954E+03  0.00000000000E+00 0.  1.
         21    1    1    2  505  502 -0.25998020267E+02 -0.45775444463E+02  0.50914420510E+02  0.73236374770E+02  0.00000000000E+00 0.  1.
          2    1    1    2  501    0 -0.20504589182E+02  0.44827494603E+02  0.28200628621E+03  0.28628218231E+03  0.00000000000E+00 0.  1.
<scales pt_clust_3="46.59880" pt_clust_4="34.08898" pt_clust_5="46.59880" pt_clust_6="187.63856"></scales>
<clustering>
<clus scale="   34.089">  4  6 -1 -1</clus>
<clus scale="   46.599">  3  5 -1 -1</clus>
<clus scale="  187.639">  1  4  2 -1</clus>
<clus scale="  194.623">  2  3  1 -1</clus>
</clustering>
</event>
<event>
 6    0  0.1849053E+002  0.1081684E+03  0.7546771E-02  0.1264000E+00
         21   -1    0    0  504  502  0.00000000000E+00  0.00000000000E+00  0.14414008947E+02  0.14414008947E+02  0.00000000000E+00 0.  1.
          2   -1    0    0  503    0 -0.00000000000E+00 -0.00000000000E+00 -0.20178859927E+04  0.20178859927E+04  0.00000000000E+00 0.  1.
         21    1    1    2  503  505 -0.72600750957E+02  0.32332486877E+02 -0.37693710046E+03  0.38522439753E+03  0.00000000000E+00 0.  1.
         21    1    1    2  504  501  0.38465617319E+02 -0.52480118010E+02 -0.27945681670E+03  0.28693183668E+03  0.00000000000E+00 0.  1.
         21    1    1    2  505  502 -0.28474331697E+02  0.70485923372E+02 -0.28284472565E+03  0.29288255631E+03  0.00000000000E+00 0.  1.
          2    1    1    2  501    0  0.62609465334E+02 -0.50338292239E+02 -0.10642333410E+04  0.10672612112E+04  0.00000000000E+00 0.  1.
<scales pt_clust_3="59.72500" pt_clust_4="65.06740" pt_clust_5="59.72500" pt_clust_6="89.28172"></scales>
<clustering>
<clus scale="   59.725">  3  5 -1 -1</clus>
<clus scale="   65.067">  1  4  2 -1</clus>
<clus scale="   89.282">  2  6  1 -1</clus>
<clus scale="   65.067">  1  3  2 -1</clus>
</clustering>
</event>
<event>
 6    0  0.1849053E+002  0.1087516E+03  0.7546771E-02  0.1262899E+00
          4   -1    0    0  504    0 -0.00000000000E+00  0.00000000000E+00  0.28348649493E+03  0.28348649493E+03  0.00000000000E+00 0. -1.
         21   -1    0    0  505  502  0.00000000000E+00 -0.00000000000E+00 -0.17873506901E+03  0.17873506901E+03  0.00000000000E+00 0. -1.
         21    1    1    2  503  502  0.96276745632E+02 -0.38387058088E+01 -0.84625659394E+02  0.12823981301E+03  0.00000000000E+00 0.  1.
         21    1    1    2  504  503 -0.42982792569E+02  0.22572941701E+02  0.39848650987E+02  0.62809021164E+02  0.00000000000E+00 0. -1.
         21    1    1    2  505  501  0.16375071204E+02 -0.40221003165E+02 -0.45538959329E+02  0.62925899829E+02  0.00000000000E+00 0. -1.
          4    1    1    2  501    0 -0.69669024268E+02  0.21486767273E+02  0.19506739366E+03  0.20824682994E+03  0.00000000000E+00 0. -1.
<scales pt_clust_3="14000.00000" pt_clust_4="45.56159" pt_clust_5="43.42663" pt_clust_6="108.75163"></scales>
<clustering>
<clus scale="   43.427">  2  5  1 -1</clus>
<clus scale="   45.562">  1  4  2 -1</clus>
<clus scale="  108.752">  1  6  2 -1</clus>
<clus scale="   43.427">  2  3  1 -1</clus>
</clustering>
</event>
<event>
 6    0  0.1849053E+002  0.1740143E+03  0.7546771E-02  0.1173725E+00
          4   -1    0    0  503    0 -0.00000000000E+00  0.00000000000E+00  0.24238434899E+03  0.24238434899E+03  0.00000000000E+00 0. -1.
         21   -1    0    0  504  502  0.00000000000E+00 -0.00000000000E+00 -0.21966244072E+04  0.21966244072E+04  0.00000000000E+00 0.  1.
         21    1    1    2  503  505  0.30496487677E+02 -0.60907992003E+01  0.14103666832E+02  0.34147430557E+02  0.00000000000E+00 0.  1.
         21    1    1    2  504  501 -0.50502259081E+02  0.34089488950E+02 -0.15835467090E+03  0.16967254706E+03  0.00000000000E+00 0. -1.
         21    1    1    2  505  502 -0.38218114011E+02  0.11789270734E+03 -0.19913822723E+04  0.19952349910E+04  0.00000000000E+00 0.  1.
          4    1    1    2  501    0  0.58223885415E+02 -0.14589139709E+03  0.18139321819E+03  0.23995378760E+03  0.00000000000E+00 0. -1.
<scales pt_clust_3="31.09877" pt_clust_4="60.18796" pt_clust_5="14000.00000" pt_clust_6="174.01430"></scales>
<clustering>
<clus scale="   31.099">  1  3  2 -1</clus>
<clus scale="   60.188">  2  4  1 -1</clus>
<clus scale="  174.014">  1  6  2 -1</clus>
<clus scale="   60.188">  2  3  1 -1</clus>
</clustering>
</event>
<event>
 6    0  0.1849053E+002  0.1181339E+03  0.7546771E-02  0.1246208E+00
         21   -1    0    0  505  502  0.00000000000E+00  0.00000000000E+00  0.21163922548E+03  0.21163922548E+03  0.00000000000E+00 0.  1.
          2   -1    0    0  504    0 -0.00000000000E+00 -0.00000000000E+00 -0.67408593487E+03  0.67408593487E+03  0.00000000000E+00 0. -1.
         21    1    1    2  503  502  0.77275362540E+02  0.36702109604E+02  0.16899930168E+03  0.18941829498E+03  0.00000000000E+00 0.  1.
         21    1    1    2  504  503 -0.41995790436E+02 -0.21497642827E+02 -0.43328407360E+03  0.43584502234E+03  0.00000000000E+00 0. -1.
         21    1    1    2  505  501  0.38720700196E+02  0.17852180045E+02  0.38367135029E+01  0.42810201197E+02  0.00000000000E+00 0.  1.
          2    1    1    2  501    0 -0.74000272299E+02 -0.33056646822E+02 -0.20199865097E+03  0.21765164183E+03  0.00000000000E+00 0. -1.
<scales pt_clust_3="118.13389" pt_clust_4="46.88866" pt_clust_5="42.63793" pt_clust_6="14000.00000"></scales>
<clustering>
<clus scale="   42.638">  1  5  2 -1</clus>
<clus scale="   46.889">  2  4  1 -1</clus>
<clus scale="  118.134">  1  3  2 -1</clus>
<clus scale="   42.638">  1  3  2 -1</clus>
</clustering>
</event>
<event>
 6    0  0.1849053E+002  0.2017475E+03  0.7546771E-02  0.1148273E+00
         21   -1    0    0  503  502  0.00000000000E+00  0.00000000000E+00  0.15040567422E+04  0.15040567422E+04  0.00000000000E+00 0. -1.
         -2   -1    0    0    0  501 -0.00000000000E+00 -0.00000000000E+00 -0.13185680046E+03  0.13185680046E+03  0.00000000000E+00 0. -1.
         21    1    1    2  503  505 -0.22897935668E+02  0.41773099180E+02  0.79137321185E+02  0.92368949747E+02  0.00000000000E+00 0.  1.
         21    1    1    2  504  502 -0.11812448591E+03 -0.26511852112E+01  0.93956619696E+03  0.94696624091E+03  0.00000000000E+00 0. -1.
         21    1    1    2  505  501 -0.53199924982E+02 -0.12339942478E+03  0.36051278541E+03  0.38474292521E+03  0.00000000000E+00 0. -1.
         -2    1    1    2    0  504  0.19422234656E+03  0.84277510811E+02 -0.70163617713E+01  0.21183542684E+03  0.00000000000E+00 0. -1.
<scales pt_clust_3="47.63725" pt_clust_4="201.74745" pt_clust_5="127.06604" pt_clust_6="14000.00000"></scales>
<clustering>
<clus scale="   47.637">  1  3  2 -1</clus>
<clus scale="  127.066">  1  5  2 -1</clus>
<clus scale="  201.747">  1  4  2 -1</clus>
<clus scale="   47.637">  1  3  2 -1</clus>
</clustering>
</event>
<event>
 6    0  0.1849053E+002  0.2255631E+03  0.7546771E-02  0.1129802E+00
          2   -1    0    0  504    0 -0.00000000000E+00  0.00000000000E+00  0.21163832205E+04  0.21163832205E+04  0.00000000000E+00 0.  1.
         21   -1    0    0  505  502  0.00000000000E+00 -0.00000000000E+00 -0.94460511673E+03  0.94460511673E+03  0.00000000000E+00 0. -1.
         21    1    1    2  503  501  0.50072967415E+02  0.89947601989E+00 -0.20728831704E+03  0.21325233294E+03  0.00000000000E+00 0.  1.
         21    1    1    2  504  502 -0.96986722919E+02  0.15895780248E+02  0.77036541258E+03  0.77660927702E+03  0.00000000000E+00 0.  1.
         21    1    1    2  505  503  0.12230900647E+03  0.12674404479E+03 -0.71558957892E+03  0.73694775352E+03  0.00000000000E+00 0. -1.
          2    1    1    2  501    0 -0.75395250966E+02 -0.14353930105E+03  0.13242905871E+04  0.13341789737E+04  0.00000000000E+00 0.  1.
<scales pt_clust_3="38.33387" pt_clust_4="98.28072" pt_clust_5="38.33387" pt_clust_6="213.80023"></scales>
<clustering>
<clus scale="   38.334">  3  5 -1 -1</clus>
<clus scale="   98.281">  1  4  2 -1</clus>
<clus scale="  213.800">  1  6  2 -1</clus>
<clus scale="  225.563">  2  3  1 -1</clus>
</clustering>
</event>
<event>
 6    0  0.1849053E+002  0.1675004E+03  0.7546771E-02  0.1180480E+00
          2   -1    0    0  503    0 -0.00000000000E+00  0.00000000000E+00  0.19777838092E+04  0.19777838092E+04  0.00000000000E+00 0. -1.
         21   -1    0    0  504  502  0.00000000000E+00 -0.00000000000E+00 -0.11892188875E+04  0.11892188875E+04  0.00000000000E+00 0.  1.
         21    1    1    2  503  502  0.34915895627E+01 -0.68681520438E+02 -0.67831501765E+02  0.96594280778E+02  0.00000000000E+00 0.  1.
         21    1    1    2  504  505  0.22222062298E+02 -0.89652815295E+02 -0.11014880594E+04  0.11053539669E+04  0.00000000000E+00 0.  1.
         21    1    1    2  505  501  0.80279300131E+01  0.85476043811E+02  0.87713841382E+03  0.88132990345E+03  0.00000000000E+00 0. -1.
          2    1    1    2  501    0 -0.33741581874E+02  0.72858291922E+02  0.10807460690E+04  0.10837245456E+04  0.00000000000E+00 0. -1.
<scales pt_clust_3="68.77021" pt_clust_4="160.18735" pt_clust_5="47.34118" pt_clust_6="47.34118"></scales>
<clustering>
<clus scale="   47.341">  5  6 -1 -1</clus>
<clus scale="   68.770">  2  3  1 -1</clus>
<clus scale="  160.187">  2  4  1 -1</clus>
<clus scale="   68.770">  2  3  1 -1</clus>
</clustering>
</event>
<event>
 6    0  0.1849053E+002  0.1102961E+03  0.7546771E-02  0.1260022E+00
         21   -1    0    0  505  502  0.00000000000E+00  0.00000000000E+00  0.56568310971E+02  0.56568310971E+02  0.00000000000E+00 0. -1.
          2   -1    0    0  503    0 -0.00000000000E+00 -0.00000000000E+00 -0.28757712089E+04  0.28757712089E+04  0.00000000000E+00 0.  1.
         21    1    1    2  503  504  0.21413475740E+02 -0.68301547075E+02 -0.27783758932E+03  0.28691002826E+03  0.00000000000E+00 0. -1.
         21    1    1    2  504  502  0.79800110564E+02  0.42666271877E+02 -0.53025980486E+01  0.90645385696E+02  0.00000000000E+00 0. -1.
         21    1    1    2  505  501  0.28698735703E+02 -0.98219712627E+01 -0.22875943034E+02  0.37992069174E+02  0.00000000000E+00 0.  1.
          2    1    1    2  501    0 -0.12991232201E+03  0.35457246461E+02 -0.25131867675E+04  0.25167920367E+04  0.00000000000E+00 0.  1.
<scales pt_clust_3="73.27663" pt_clust_4="110.29614" pt_clust_5="30.33296" pt_clust_6="14000.00000"></scales>
<clustering>
<clus scale="   30.333">  1  5  2 -1</clus>
<clus scale="   73.277">  2  3  1 -1</clus>
<clus scale="  110.296">  1  4  2 -1</clus>
<clus scale="   30.333">  1  3  2 -1</clus>
</clustering>
</event>
<event>
 6    0  0.1849053E+002  0.1967137E+03  0.7546771E-02  0.1152542E+00
          2   -1    0    0  505    0 -0.00000000000E+00  0.00000000000E+00  0.58326864798E+03  0.58326864798E+03  0.00000000000E+00 0.  1.
         21   -1    0    0  503  502  0.00000000000E+00 -0.00000000000E+00 -0.86948011006E+03  0.86948011006E+03  0.00000000000E+00 0. -1.
         21    1    1    2  503  501  0.96581534590E+02 -0.85648095740E+02  0.26280042515E+03  0.29279284927E+03  0.00000000000E+00 0.  1.
         21    1    1    2  504  502  0.25193785657E+02  0.18144459849E+03 -0.38868673083E+03  0.42969087014E+03  0.00000000000E+00 0. -1.
         21    1    1    2  505  504 -0.23762526651E+03 -0.13799610318E+03 -0.38557798543E+03  0.47347552695E+03  0.00000000000E+00 0. -1.
          2    1    1    2  501    0  0.11584994627E+03  0.42199600421E+02  0.22525282903E+03  0.25678951168E+03  0.00000000000E+00 0.  1.
<scales pt_clust_3="196.71369" pt_clust_4="186.75778" pt_clust_5="14000.00000" pt_clust_6="123.29646"></scales>
<clustering>
<clus scale="  123.296">  1  6  2 -1</clus>
<clus scale="  186.758">  2  4  1 -1</clus>
<clus scale="  196.714">  1  3  2 -1</clus>
<clus scale="  186.758">  2  3  1 -1</clus>
</clustering>
</event>
<event>
 6    0  0.1849053E+002  0.8194431E+02  0.7546771E-02  0.1323623E+00
          1   -1    0    0  505    0 -0.00000000000E+00  0.00000000000E+00  0.15959507460E+03  0.15959507460E+03  0.00000000000E+00 0.  1.
         21   -1    0    0  504  502  0.00000000000E+00 -0.00000000000E+00 -0.24832187415E+03  0.24832187415E+03  0.00000000000E+00 0. -1.
         21    1    1    2  503  502 -0.46133065607E+02 -0.34114357250E+02 -0.25279175535E+02  0.62698371818E+02  0.00000000000E+00 0. -1.
         21    1    1    2  504  501  0.58249784059E+02 -0.54356330962E+02 -0.16567444547E+03  0.18383598652E+03  0.00000000000E+00 0. -1.
         21    1    1    2  505  503 -0.37434144438E+02  0.11452673799E+02  0.14029843961E+02  0.41585038518E+02  0.00000000000E+00 0.  1.
          1    1    1    2  501    0  0.25317425986E+02  0.77018014414E+02  0.88196977491E+02  0.11979755190E+03  0.00000000000E+00 0.  1.
<scales pt_clust_3="60.84690" pt_clust_4="14000.00000" pt_clust_5="39.14689" pt_clust_6="81.94431"></scales>
<clustering>
<clus scale="   39.147">  1  5  2 -1</clus>
<clus scale="   60.847">  2  3  1 -1</clus>
<clus scale="   81.944">  1  6  2 -1</clus>
<clus scale="   60.847">  2  3  1 -1</clus>
</clustering>
</event>
<event>
 6    0  0.1849053E+002  0.9335134E+02  0.7546771E-02  0.1294933E+00
          2   -1    0    0  502    0 -0.00000000000E+00  0.00000000000E+00  0.11234379181E+04  0.11234379181E+04  0.00000000000E+00 0. -1.
         21   -1    0    0  503  502  0.00000000000E+00 -0.00000000000E+00 -0.42547902067E+02  0.42547902067E+02  0.00000000000E+00 0. -1.
         21    1    1    2  503  505 -0.37543639691E+02  0.29743347262E+02  0.43159230827E+01  0.48091774553E+02  0.00000000000E+00 0. -1.
         21    1    1    2  504  501  0.60451591997E+02  0.44617519701E+02  0.52289622951E+03  0.52826658505E+03  0.00000000000E+00 0. -1.
         21    1    1    2  505  504 -0.65625035557E+02 -0.58605177031E+02  0.98082137778E+02  0.13176235357E+03  0.00000000000E+00 0. -1.
          2    1    1    2  501    0  0.42717083250E+02 -0.15755689932E+02  0.45559572570E+03  0.45786510704E+03  0.00000000000E+00 0. -1.
<scales pt_clust_3="46.20055" pt_clust_4="14000.00000" pt_clust_5="93.35134" pt_clust_6="45.53011"></scales>
<clustering>
<clus scale="   45.530">  1  6  2 -1</clus>
<clus scale="   46.201">  2  3  1 -1</clus>
<clus scale="   93.351">  2  5  1 -1</clus>
<clus scale="   46.201">  2  3  1 -1</clus>
</clustering>
</event>
<event>
 6    0  0.1849053E+002  0.1324044E+03  0.7546771E-02  0.1223931E+00
         21   -1    0    0  503  502  0.00000000000E+00  0.00000000000E+00  0.53376639409E+02  0.53376639409E+02  0.00000000000E+00 0. -1.
          2   -1    0    0  504    0 -0.00000000000E+00 -0.00000000000E+00 -0.20018113850E+04  0.20018113850E+04  0.00000000000E+00 0.  1.
         21    1    1    2  503  505  0.99272759694E+01  0.30554139775E+02 -0.77264647871E+02  0.83677548220E+02  0.00000000000E+00 0. -1.
         21    1    1    2  504  502  0.10419251484E+03 -0.14661655418E+03 -0.21881883944E+03  0.28325638316E+03  0.00000000000E+00 0. -1.
         21    1    1    2  505  501 -0.72216230332E+01  0.43074855930E+02 -0.15578457051E+02  0.46371148107E+02  0.00000000000E+00 0. -1.
          2    1    1    2  501    0 -0.10689816778E+03  0.72987558476E+02 -0.16367728012E+04  0.16418829449E+04  0.00000000000E+00 0.  1.
<scales pt_clust_3="32.12641" pt_clust_4="132.40444" pt_clust_5="52.61729" pt_clust_6="14000.00000"></scales>
<clustering>
<clus scale="   32.126">  1  3  2 -1</clus>
<clus scale="   52.617">  1  5  2 -1</clus>
<clus scale="  132.404">  1  4  2 -1</clus>
<clus scale="   32.126">  1  3  2 -1</clus>
</clustering>
</event>
<event>
 6    0  0.1849053E+002  0.1848221E+03  0.7546771E-02  0.1163216E+00
         21   -1    0    0  505  502  0.00000000000E+00  0.00000000000E+00  0.33352909369E+03  0.33352909369E+03  0.00000000000E+00 0.  1.
          2   -1    0    0  503    0 -0.00000000000E+00 -0.00000000000E+00 -0.21695093008E+04  0.21695093008E+04  0.00000000000E+00 0.  1.
         21    1    1    2  503  504 -0.30640338414E+02 -0.10405893374E+02 -0.57197798151E+02  0.65716824850E+02  0.00000000000E+00 0.  1.
         21    1    1    2  504  502  0.64344067035E+02  0.10608688682E+03 -0.11553327929E+03  0.16953620599E+03  0.00000000000E+00 0.  1.
         21    1    1    2  505  501 -0.97924911159E+02 -0.17304277319E+03  0.26812134200E+03  0.33379955604E+03  0.00000000000E+00 0.  1.
          2    1    1    2  501    0  0.64221182538E+02  0.77361779746E+02 -0.19313704716E+04  0.19339858076E+04  0.00000000000E+00 0.  1.
<scales pt_clust_3="32.35912" pt_clust_4="14000.00000" pt_clust_5="184.82211" pt_clust_6="76.84488"></scales>
<clustering>
<clus scale="   32.359">  2  3  1 -1</clus>
<clus scale="   76.845">  2  6  1 -1</clus>
<clus scale="  184.822">  1  5  2 -1</clus>
<clus scale="  184.822">  1  3  2 -1</clus>
</clustering>
</event>
<event>
 6    0  0.1849053E+002  0.1120792E+03  0.7546771E-02  0.1256767E+00
          1   -1    0    0  503    0 -0.00000000000E+00  0.00000000000E+00  0.49147280561E+03  0.49147280561E+03  0.00000000000E+00 0.  1.
         21   -1    0    0  505  502  0.00000000000E+00 -0.00000000000E+00 -0.18416899846E+04  0.18416899846E+04  0.00000000000E+00 0.  1.
         21    1    1    2  503  504  0.26251102007E+02 -0.20714513204E+02  0.41004747099E+02  0.52911253043E+02  0.00000000000E+00 0. -1.
         21    1    1    2  504  502 -0.76759248888E+02  0.47739344232E+02 -0.12594071592E+04  0.12626469894E+04  0.00000000000E+00 0.  1.
         21    1    1    2  505  501 -0.34751626745E+02 -0.64438165829E+02 -0.56743844747E+03  0.57214189188E+03  0.00000000000E+00 0.  1.
          1    1    1    2  501    0  0.85259773626E+02  0.37413334801E+02  0.43562368061E+03  0.44546265582E+03  0.00000000000E+00 0.  1.
<scales pt_clust_3="33.43967" pt_clust_4="112.07919" pt_clust_5="73.24244" pt_clust_6="14000.00000"></scales>
<clustering>
<clus scale="   33.440">  1  3  2 -1</clus>
<clus scale="   73.242">  2  5  1 -1</clus>
<clus scale="  112.079">  2  4  1 -1</clus>
<clus scale="   73.242">  2  3  1 -1</clus>
</clustering>
</event>
<event>
 6    0  0.1849053E+002  0.1216013E+03  0.7546771E-02  0.1240479E+00
          1   -1    0    0  504    0 -0.00000000000E+00  0.00000000000E+00  0.38866375939E+03  0.38866375939E+03  0.00000000000E+00 0.  1.
         21   -1    0    0  501  502  0.00000000000E+00 -0.00000000000E+00 -0.64691507460E+03  0.64691507460E+03  0.00000000000E+00 0. -1.
         21    1    1    2  503  505 -0.14982791759E+03  0.51453100669E+02 -0.45068175253E+03  0.47771316553E+03  0.00000000000E+00 0. -1.
         21    1    1    2  504  503  0.24350080299E+02 -0.24929885015E+02  0.34109092124E+02  0.48763262226E+02  0.00000000000E+00 0. -1.
         21    1    1    2  505  502  0.28183282703E+02 -0.59792047243E+02 -0.16078287286E+03  0.17384049742E+03  0.00000000000E+00 0. -1.
          1    1    1    2  501    0  0.97294554590E+02  0.33268831589E+02  0.31910421806E+03  0.33526190880E+03  0.00000000000E+00 0.  1.
<scales pt_clust_3="14000.00000" pt_clust_4="34.84861" pt_clust_5="66.72090" pt_clust_6="121.60126"></scales>
<clustering>
<clus scale="   34.849">  1  4  2 -1</clus>
<clus scale="   66.721">  2  5  1 -1</clus>
<clus scale="  121.601">  1  6  2 -1</clus>
<clus scale="   66.721">  2  3  1 -1</clus>
</clustering>
</event>
<event>
 6    0  0.1849053E+002  0.1148446E+03  0.7546771E-02  0.1251853E+00
         21   -1    0    0  503  502  0.00000000000E+00  0.00000000000E+00  0.41820695095E+03  0.41820695095E+03  0.00000000000E+00 0.  1.
         -3   -1    0    0    0  501 -0.00000000000E+00 -0.00000000000E+00 -0.16232614145E+04  0.16232614145E+04  0.00000000000E+00 0. -1.
         21    1    1    2  503  505  0.44982163736E+02 -0.50874464275E+01  0.28162816686E+02  0.53314364004E+02  0.00000000000E+00 0.  1.
         21    1    1    2  504  502  0.66177367376E+02  0.38227696971E+02  0.37024707685E+03  0.37805250784E+03  0.00000000000E+00 0.  1.
         21    1    1    2  505  501 -0.51369938669E+02  0.20548865969E+02 -0.38068320933E+03  0.38468276847E+03  0.00000000000E+00 0. -1.
         -3    1    1    2    0  504 -0.59789592442E+02 -0.53689116513E+02 -0.12227811477E+04  0.12254187251E+04  0.00000000000E+00 0. -1.
<scales pt_clust_3="45.26894" pt_clust_4="14000.00000" pt_clust_5="55.09621" pt_clust_6="114.84459"></scales>
<clustering>
<clus scale="   45.269">  1  3  2 -1</clus>
<clus scale="   55.096">  2  5  1 -1</clus>
<clus scale="  114.845">  2  6  1 -1</clus>
<clus scale="   45.269">  1  3  2 -1</clus>
</clustering>
</event>
<event>
 6    0  0.1849053E+002  0.1358850E+03  0.7546771E-02  0.1218976E+00
         21   -1    0    0  503  502  0.00000000000E+00  0.00000000000E+00  0.12160045273E+03  0.12160045273E+03  0.00000000000E+00 0.  1.
          2   -1    0    0  505    0 -0.00000000000E+00 -0.00000000000E+00 -0.28241019759E+04  0.28241019759E+04  0.00000000000E+00 0.  1.
         21    1    1    2  503  504  0.18510100781E+02  0.38374504783E+02 -0.30452387222E+02  0.52369593619E+02  0.00000000000E+00 0.  1.
         21    1    1    2  504  501 -0.24973503798E+02 -0.58226524489E+02 -0.10382053579E+04  0.10401367070E+04  0.00000000000E+00 0. -1.
         21    1    1    2  505  502  0.54518707310E+02  0.71389295245E+02  0.90442934064E+02  0.12747017394E+03  0.00000000000E+00 0.  1.
          2    1    1    2  501    0 -0.48055304293E+02 -0.51537275538E+02 -0.17242867121E+04  0.17257259541E+04  0.00000000000E+00 0.  1.
<scales pt_clust_3="42.60547" pt_clust_4="33.55822" pt_clust_5="131.19535" pt_clust_6="33.55822"></scales>
<clustering>
<clus scale="   33.558">  4  6 -1 -1</clus>
<clus scale="   42.605">  1  3  2 -1</clus>
<clus scale="  131.195">  1  5  2 -1</clus>
<clus scale="   42.605">  1  3  2 -1</clus>
</clustering>
</event>
<event>
 6    0  0.1849053E+002  0.1145931E+03  0.7546771E-02  0.1252293E+00
          3   -1    0    0  505    0 -0.00000000000E+00  0.00000000000E+00  0.45709049722E+03  0.45709049722E+03  0.00000000000E+00 0.  1.
         21   -1    0    0  501  502  0.00000000000E+00 -0.00000000000E+00 -0.54249378955E+02  0.54249378955E+02  0.00000000000E+00 0. -1.
         21    1    1    2  503  504  0.67081946699E+02 -0.51472727932E+02  0.45648891044E+02  0.96089804596E+02  0.00000000000E+00 0. -1.
         21    1    1    2  504  502  0.45279460090E+02  0.71914327829E+01  0.20810367167E+02  0.50348958213E+02  0.00000000000E+00 0. -1.
         21    1    1    2  505  503 -0.49067838772E+02  0.38391246362E+02  0.83674629804E+02  0.10432154270E+03  0.00000000000E+00 0.  1.
          3    1    1    2  501    0 -0.63293568017E+02  0.58900487875E+01  0.25270723024E+03  0.26057957066E+03  0.00000000000E+00 0.  1.
<scales pt_clust_3="36.38490" pt_clust_4="36.38490" pt_clust_5="62.30201" pt_clust_6="103.39255"></scales>
<clustering>
<clus scale="   36.385">  3  4 -1 -1</clus>
<clus scale="   62.302">  1  5  2 -1</clus>
<clus scale="  103.393">  1  6  2 -1</clus>
<clus scale="  114.593">  2  3  1 -1</clus>
</clustering>
</event>
<event>
 6    0  0.1849053E+002  0.8868981E+02  0.7546771E-02  0.1306056E+00
         21   -1    0    0  504  502  0.00000000000E+00  0.00000000000E+00  0.77967282623E+03  0.77967282623E+03  0.00000000000E+00 0.  1.
          2   -1    0    0  505    0 -0.00000000000E+00 -0.00000000000E+00 -0.10089984985E+04  0.10089984985E+04  0.00000000000E+00 0. -1.
         21    1    1    2  503  502 -0.24707925301E+02  0.58318266265E+02  0.18007718173E+03  0.19089078850E+03  0.00000000000E+00 0. -1.
         21    1    1    2  504  501  0.67252529869E+02 -0.96524353762E+02  0.57332374304E+03  0.58526914149E+03  0.00000000000E+00 0.  1.
         21    1    1    2  505  503  0.41302900730E+02  0.13211259895E+02 -0.23538118512E+02  0.49340754147E+02  0.00000000000E+00 0.  1.
          2    1    1    2  501    0 -0.83847505298E+02  0.24994827602E+02 -0.95918847855E+03  0.96317064061E+03  0.00000000000E+00 0. -1.
<scales pt_clust_3="14000.00000" pt_clust_4="88.68981" pt_clust_5="43.36435" pt_clust_6="57.43966"></scales>
<clustering>
<clus scale="   43.364">  2  5  1 -1</clus>
<clus scale="   57.440">  2  6  1 -1</clus>
<clus scale="   88.690">  2  4  1 -1</clus>
<clus scale="   88.690">  1  3  2 -1</clus>
</clustering>
</event>
<event>
 6    0  0.1849053E+002  0.9972440E+02  0.7546771E-02  0.1280877E+00
          2   -1    0    0  505    0 -0.00000000000E+00  0.00000000000E+00  0.23611349003E+03  0.23611349003E+03  0.00000000000E+00 0. -1.
         21   -1    0    0  503  502  0.00000000000E+00 -0.00000000000E+00 -0.17879600167E+03  0.17879600167E+03  0.00000000000E+00 0. -1.
         21    1    1    2  503  504  0.15330724211E+02  0.39656553328E+02 -0.17117112375E+02  0.45833054260E+02  0.00000000000E+00 0.  1.
         21    1    1    2  504  501 -0.42731065491E+02  0.58461192922E+02 -0.92932569207E+02  0.11781391028E+03  0.00000000000E+00 0. -1.
         21    1    1    2  505  502 -0.32014346167E+02  0.17489655683E+02  0.96614429469E+02  0.10327223440E+03  0.00000000000E+00 0. -1.
          2    1    1    2  501    0  0.59414687446E+02 -0.11560740193E+03  0.70752740477E+02  0.14799029276E+03  0.00000000000E+00 0. -1.
<scales pt_clust_3="43.18832" pt_clust_4="99.72440" pt_clust_5="36.48022" pt_clust_6="14000.00000"></scales>
<clustering>
<clus scale="   36.480">  1  5  2 -1</clus>
<clus scale="   43.188">  2  3  1 -1</clus>
<clus scale="   99.724">  2  4  1 -1</clus>
<clus scale="   43.188">  2  3  1 -1</clus>
</clustering>
</event>
<event>
 6    0  0.1849053E+002  0.7261895E+02  0.7546771E-02  0.1351407E+00
         21   -1    0    0  504  502  0.00000000000E+00  0.00000000000E+00  0.10760402728E+03  0.10760402728E+03  0.00000000000E+00 0.  1.
         -2   -1    0    0    0  501 -0.00000000000E+00 -0.00000000000E+00 -0.59425341937E+03  0.59425341937E+03  0.00000000000E+00 0.  1.
         21    1    1    2  503  501 -0.53946410476E+02  0.10389791036E+02 -0.11730186381E+03  0.12952949554E+03  0.00000000000E+00 0.  1.
         21    1    1    2  504  503 -0.70550136272E+02  0.27474797141E+02  0.43430216969E+02  0.87283274182E+02  0.00000000000E+00 0.  1.
         21    1    1    2  505  502  0.39419393506E+02 -0.34088705372E+02  0.10604490243E+02  0.53182550067E+02  0.00000000000E+00 0. -1.
         -2    1    1    2    0  505  0.85077153242E+02 -0.37758828043E+01 -0.42338223548E+03  0.43186212686E+03  0.00000000000E+00 0.  1.
<scales pt_clust_3="14000.00000" pt_clust_4="36.57366" pt_clust_5="52.11457" pt_clust_6="72.61895"></scales>
<clustering>
<clus scale="   52.115">  1  5  2 -1</clus>
<clus scale="   36.574">  1  4  2 -1</clus>
<clus scale="   72.619">  2  6  1 -1</clus>
<clus scale="   52.115">  1  3  2 -1</clus>
</clustering>
</event>
<event>
 6    0  0.1849053E+002  0.8186834E+02  0.7546771E-02  0.1323831E+00
          2   -1    0    0  503    0 -0.00000000000E+00  0.00000000000E+00  0.31706255357E+04  0.31706255357E+04  0.00000000000E+00 0. -1.
         21   -1    0    0  505  502  0.00000000000E+00 -0.00000000000E+00 -0.83649538066E+02  0.83649538066E+02  0.00000000000E+00 0. -1.
         21    1    1    2  503  504  0.26743135999E+02 -0.25540875573E+02  0.28722505812E+03  0.28959586609E+03  0.00000000000E+00 0. -1.
         21    1    1    2  504  502  0.52520057528E+02  0.83941841743E+02  0.54160072817E+02  0.11286231756E+03  0.00000000000E+00 0. -1.
         21    1    1    2  505  501  0.23658114773E+02 -0.55153216557E+02 -0.34897765440E+02  0.69422170262E+02  0.00000000000E+00 0. -1.
          2    1    1    2  501    0 -0.10292130830E+03 -0.32477496139E+01  0.27804886322E+04  0.27823947199E+04  0.00000000000E+00 0. -1.
<scales pt_clust_3="36.98015" pt_clust_4="14000.00000" pt_clust_5="60.21698" pt_clust_6="81.86834"></scales>
<clustering>
<clus scale="   36.980">  1  3  2 -1</clus>
<clus scale="   60.217">  2  5  1 -1</clus>
<clus scale="   81.868">  1  6  2 -1</clus>
<clus scale="   60.217">  2  3  1 -1</clus>
</clustering>
</event>
<event>
 6    0  0.1849053E+002  0.3282634E+03  0.7546771E-02  0.1071908E+00
          1   -1    0    0  504    0 -0.00000000000E+00  0.00000000000E+00  0.33097759575E+03  0.33097759575E+03  0.00000000000E+00 0. -1.
         21   -1    0    0  503  502  0.00000000000E+00 -0.00000000000E+00 -0.64290823926E+03  0.64290823926E+03  0.00000000000E+00 0. -1.
         21    1    1    2  503  501  0.10834332112E+03  0.65942757694E+02  0.20987207381E+01  0.12685080667E+03  0.00000000000E+00 0. -1.
         21    1    1    2  504  505 -0.45881246600E+02  0.10297621220E+02 -0.15194092526E+02  0.49416497651E+02  0.00000000000E+00 0. -1.
         21    1    1    2  505  502 -0.26001277750E+03 -0.16071794473E+03 -0.44347363810E+03  0.53861467666E+03  0.00000000000E+00 0. -1.
          1    1    1    2  501    0  0.19755070298E+03  0.84477565812E+02  0.14463836638E+03  0.25900385403E+03  0.00000000000E+00 0. -1.
<scales pt_clust_3="83.70553" pt_clust_4="47.02265" pt_clust_5="310.80898" pt_clust_6="83.70553"></scales>
<clustering>
<clus scale="   47.023">  1  4  2 -1</clus>
<clus scale="   83.706">  3  6 -1 -1</clus>
<clus scale="  310.809">  2  5  1 -1</clus>
<clus scale="  310.809">  2  3  1 -1</clus>
</clustering>
</event>
<event>
 6    0  0.1849053E+002  0.8430312E+02  0.7546771E-02  0.1317265E+00
         21   -1    0    0  503  502  0.00000000000E+00  0.00000000000E+00  0.78809635561E+03  0.78809635561E+03  0.00000000000E+00 0.  1.
          1   -1    0    0  504    0 -0.00000000000E+00 -0.00000000000E+00 -0.10590251113E+03  0.10590251113E+03  0.00000000000E+00 0.  1.
         21    1    1    2  503  501  0.88391108537E+02 -0.99718599663E+02  0.61569314312E+03  0.62994827857E+03  0.00000000000E+00 0.  1.
         21    1    1    2  504  505 -0.39909531597E+02 -0.29547808456E+02  0.37938893713E+02  0.62491626263E+02  0.00000000000E+00 0.  1.
         21    1    1    2  505  502 -0.36070499277E+02  0.40279891310E+02  0.81104424320E+02  0.97475526192E+02  0.00000000000E+00 0.  1.
          1    1    1    2  501    0 -0.12411077663E+02  0.88986516809E+02 -0.52542616677E+02  0.10408343571E+03  0.00000000000E+00 0.  1.
<scales pt_clust_3="84.30312" pt_clust_4="49.65726" pt_clust_5="54.64433" pt_clust_6="14000.00000"></scales>
<clustering>
<clus scale="   49.657">  2  4  1 -1</clus>
<clus scale="   54.644">  1  5  2 -1</clus>
<clus scale="   84.303">  1  3  2 -1</clus>
<clus scale="   54.644">  1  3  2 -1</clus>
</clustering>
</event>
<event>
 6    0  0.1849053E+002  0.8674172E+02  0.7546771E-02  0.1310940E+00
         -2   -1    0    0    0  501 -0.00000000000E+00  0.00000000000E+00  0.15953655519E+04  0.15953655519E+04  0.00000000000E+00 0. -1.
         21   -1    0    0  504  502  0.00000000000E+00 -0.00000000000E+00 -0.14846239152E+03  0.14846239152E+03  0.00000000000E+00 0.  1.
         21    1    1    2  503  505  0.53565800654E+02 -0.36461093053E+02 -0.65906210377E+02  0.92424752489E+02  0.00000000000E+00 0.  1.
         21    1    1    2  504  503  0.32869684912E+02  0.22080056096E+02 -0.58385290948E+02  0.70546348329E+02  0.00000000000E+00 0.  1.
         21    1    1    2  505  501  0.24364387964E+02 -0.35201860742E+02  0.21372429250E+03  0.21796987775E+03  0.00000000000E+00 0.  1.
         -2    1    1    2    0  502 -0.11079987353E+03  0.49582897699E+02  0.13574703692E+04  0.13628869648E+04  0.00000000000E+00 0. -1.
<scales pt_clust_3="14000.00000" pt_clust_4="39.59729" pt_clust_5="42.83676" pt_clust_6="86.74172"></scales>
<clustering>
<clus scale="   39.597">  2  4  1 -1</clus>
<clus scale="   42.837">  1  5  2 -1</clus>
<clus scale="   86.742">  1  6  2 -1</clus>
<clus scale="   39.597">  2  3  1 -1</clus>
</clustering>
</event>
<event>
 6    0  0.1849053E+002  0.1432047E+03  0.7546771E-02  0.1209081E+00
          2   -1    0    0  502    0 -0.00000000000E+00  0.00000000000E+00  0.14767329924E+04  0.14767329924E+04  0.00000000000E+00 0.  1.
         21   -1    0    0  505  502  0.00000000000E+00 -0.00000000000E+00 -0.20935917775E+02  0.20935917775E+02  0.00000000000E+00 0.  1.
         21    1    1    2  503  501 -0.35952692913E+01  0.53176826869E+02  0.36082291989E+03  0.36473809836E+03  0.00000000000E+00 0.  1.
         21    1    1    2  504  503 -0.50246768630E+02 -0.77688752598E+02  0.23528693651E+03  0.25282448958E+03  0.00000000000E+00 0.  1.
         21    1    1    2  505  504  0.20474519063E+01 -0.44799827561E+02  0.55856897662E+02  0.71632462091E+02  0.00000000000E+00 0.  1.
          2    1    1    2  501    0  0.51794586015E+02  0.69311753290E+02  0.80383032060E+03  0.80847386018E+03  0.00000000000E+00 0.  1.
<scales pt_clust_3="40.64924" pt_clust_4="39.26644" pt_clust_5="39.26644" pt_clust_6="141.45363"></scales>
<clustering>
<clus scale="   39.266">  4  5 -1 -1</clus>
<clus scale="   40.649">  3  6 -1 -1</clus>
<clus scale="  141.454">  1  3  2 -1</clus>
<clus scale="  143.205">  2  3  1 -1</clus>
</clustering>
</event>
<event>
 6    0  0.1849053E+002  0.2460481E+03  0.7546771E-02  0.1115828E+00
         21   -1    0    0  503  502  0.00000000000E+00  0.00000000000E+00  0.14854076794E+03  0.14854076794E+03  0.00000000000E+00 0.  1.
          1   -1    0    0  502    0 -0.00000000000E+00 -0.00000000000E+00 -0.57182461787E+03  0.57182461787E+03  0.00000000000E+00 0. -1.
         21    1    1    2  503  504  0.13581878422E+03  0.28194018898E+02  0.84575234058E+01  0.13897184805E+03  0.00000000000E+00 0.  1.
         21    1    1    2  504  505  0.84406701172E+02  0.42764554626E+02 -0.12719756644E+02  0.95472983321E+02  0.00000000000E+00 0.  1.
         21    1    1    2  505  501 -0.49512513764E+02 -0.14934154489E+02 -0.17761386194E+03  0.18498973470E+03  0.00000000000E+00 0. -1.
          1    1    1    2  501    0 -0.17071297163E+03 -0.56024419035E+02 -0.24140775475E+03  0.30093081973E+03  0.00000000000E+00 0. -1.
<scales pt_clust_3="234.40608" pt_clust_4="31.03318" pt_clust_5="44.90404" pt_clust_6="44.90404"></scales>
<clustering>
<clus scale="   31.033">  3  4 -1 -1</clus>
<clus scale="   44.904">  5  6 -1 -1</clus>
<clus scale="  234.406">  1  3  2 -1</clus>
<clus scale="  234.406">  1  3  2 -1</clus>
</clustering>
</event>
<event>
 6    0  0.1849053E+002  0.1619421E+03  0.7546771E-02  0.1186521E+00
          1   -1    0    0  503    0 -0.00000000000E+00  0.00000000000E+00  0.73374918079E+03  0.73374918079E+03  0.00000000000E+00 0. -1.
         21   -1    0    0  505  502  0.00000000000E+00 -0.00000000000E+00 -0.12980347145E+03  0.12980347145E+03  0.00000000000E+00 0. -1.
         21    1    1    2  503  504  0.32074951065E+02 -0.30053110827E+01  0.25383136957E+03  0.25586754104E+03  0.00000000000E+00 0.  1.
         21    1    1    2  504  502 -0.12852091416E+03 -0.55480251197E+02 -0.71572020892E+01  0.14016743271E+03  0.00000000000E+00 0. -1.
         21    1    1    2  505  501 -0.44689248604E+02  0.27173450519E+02 -0.25622312455E+02  0.58241121636E+02  0.00000000000E+00 0. -1.
          1    1    1    2  501    0  0.14113521170E+03  0.31312111761E+02  0.38289385431E+03  0.40927655686E+03  0.00000000000E+00 0. -1.
<scales pt_clust_3="32.21544" pt_clust_4="14000.00000" pt_clust_5="51.31798" pt_clust_6="161.94214"></scales>
<clustering>
<clus scale="   32.215">  1  3  2 -1</clus>
<clus scale="   51.318">  2  5  1 -1</clus>
<clus scale="  161.942">  1  6  2 -1</clus>
<clus scale="   51.318">  2  3  1 -1</clus>
</clustering>
</event>
<event>
 6    0  0.1849053E+002  0.1218590E+03  0.7546771E-02  0.1240061E+00
          2   -1    0    0  503    0 -0.00000000000E+00  0.00000000000E+00  0.16191607002E+04  0.16191607002E+04  0.00000000000E+00 0.  1.
         21   -1    0    0  504  502  0.00000000000E+00 -0.00000000000E+00 -0.46912665044E+03  0.46912665044E+03  0.00000000000E+00 0.  1.
         21    1    1    2  503  505 -0.16198384487E+02 -0.27403647784E+02  0.29064351207E+03  0.29238159771E+03  0.00000000000E+00 0. -1.
         21    1    1    2  504  501  0.23071625285E+02 -0.73885574453E+02 -0.38728528518E+03  0.39494464185E+03  0.00000000000E+00 0.  1.
         21    1    1    2  505  502  0.21219710907E+02 -0.39941624491E+02 -0.66220251347E+02  0.80191839899E+02  0.00000000000E+00 0.  1.
          2    1    1    2  501    0 -0.28092951705E+02  0.14123084673E+03  0.13128960743E+04  0.13207692712E+04  0.00000000000E+00 0.  1.
<scales pt_clust_3="31.83312" pt_clust_4="121.85903" pt_clust_5="45.31599" pt_clust_6="14000.00000"></scales>
<clustering>
<clus scale="   31.833">  1  3  2 -1</clus>
<clus scale="   45.316">  2  5  1 -1</clus>
<clus scale="  121.859">  2  4  1 -1</clus>
<clus scale="   45.316">  2  3  1 -1</clus>
</clustering>
</event>
<event>
 6    0  0.1849053E+002  0.1602146E+03  0.7546771E-02  0.1188455E+00
         21   -1    0    0  503  502  0.00000000000E+00  0.00000000000E+00  0.11428952921E+04  0.11428952921E+04  0.00000000000E+00 0. -1.
          2   -1    0    0  504    0 -0.00000000000E+00 -0.00000000000E+00 -0.44492741872E+03  0.44492741872E+03  0.00000000000E+00 0.  1.
         21    1    1    2  503  505  0.13486975570E+03  0.29013543862E+02  0.94576367701E+03  0.95577223724E+03  0.00000000000E+00 0. -1.
         21    1    1    2  504  502 -0.30689487686E+01  0.53606328106E+02  0.17326947657E+03  0.18139836926E+03  0.00000000000E+00 0. -1.
         21    1    1    2  505  501 -0.67947028796E+02 -0.35974909821E+02 -0.15398703866E+03  0.17211333746E+03  0.00000000000E+00 0.  1.
          2    1    1    2  501    0 -0.63853778137E+02 -0.46644962147E+02 -0.26707824159E+03  0.27853876680E+03  0.00000000000E+00 0.  1.
<scales pt_clust_3="155.16074" pt_clust_4="53.69410" pt_clust_5="39.36553" pt_clust_6="39.36553"></scales>
<clustering>
<clus scale="   39.366">  5  6 -1 -1</clus>
<clus scale="   53.694">  1  4  2 -1</clus>
<clus scale="  155.161">  1  3  2 -1</clus>
<clus scale="   53.694">  1  3  2 -1</clus>
</clustering>
</event>
<event>
 6    0  0.1849053E+002  0.1162056E+03  0.7546771E-02  0.1249491E+00
         21   -1    0    0  505  502  0.00000000000E+00  0.00000000000E+00  0.49505654729E+03  0.49505654729E+03  0.00000000000E+00 0. -1.
          1   -1    0    0  504    0 -0.00000000000E+00 -0.00000000000E+00 -0.63702469191E+03  0.63702469191E+03  0.00000000000E+00 0.  1.
         21    1    1    2  503  501 -0.33735316840E+02  0.28562496801E+02 -0.54370473940E+01  0.44535932798E+02  0.00000000000E+00 0. -1.
         21    1    1    2  504  502  0.93853540062E+02 -0.87873465935E+02  0.44134372471E+03  0.45968958694E+03  0.00000000000E+00 0. -1.
         21    1    1    2  505  503  0.30574392306E+02 -0.13099603275E+02  0.49144969432E+01  0.33623583257E+02  0.00000000000E+00 0. -1.
          1    1    1    2  501    0 -0.90692615527E+02  0.72410572409E+02 -0.58278931887E+03  0.59423213621E+03  0.00000000000E+00 0.  1.
<scales pt_clust_3="42.89811" pt_clust_4="14000.00000" pt_clust_5="33.26249" pt_clust_6="116.20565"></scales>
<clustering>
<clus scale="   33.262">  1  5  2 -1</clus>
<clus scale="   42.898">  1  3  2 -1</clus>
<clus scale="  116.206">  2  6  1 -1</clus>
<clus scale="   33.262">  1  3  2 -1</clus>
</clustering>
</event>
<event>
 6    0  0.1849053E+002  0.1618482E+03  0.7546771E-02  0.1186626E+00
          2   -1    0    0  503    0 -0.00000000000E+00  0.00000000000E+00  0.29542463582E+03  0.29542463582E+03  0.00000000000E+00 0.  1.
         21   -1    0    0  505  502  0.00000000000E+00 -0.00000000000E+00 -0.37837642164E+03  0.37837642164E+03  0.00000000000E+00 0. -1.
         21    1    1    2  503  504 -0.72073071692E+02  0.26881528999E+02  0.18967606510E+02  0.79226980008E+02  0.00000000000E+00 0. -1.
         21    1    1    2  504  502  0.81722643981E+02 -0.11536081227E+03 -0.29220369266E+03  0.32460700169E+03  0.00000000000E+00 0. -1.
         21    1    1    2  505  501  0.39884674154E+02 -0.12985613460E+02 -0.71272434597E+01  0.42546574347E+02  0.00000000000E+00 0.  1.
          2    1    1    2  501    0 -0.49534246443E+02  0.10146489673E+03  0.19741154379E+03  0.22742050141E+03  0.00000000000E+00 0.  1.
<scales pt_clust_3="73.35161" pt_clust_4="14000.00000" pt_clust_5="41.94536" pt_clust_6="161.84823"></scales>
<clustering>
<clus scale="   41.945">  2  5  1 -1</clus>
<clus scale="   73.352">  1  3  2 -1</clus>
<clus scale="  161.848">  1  6  2 -1</clus>
<clus scale="   41.945">  2  3  1 -1</clus>
</clustering>
</event>
<event>
 6    0  0.1849053E+002  0.1308857E+03  0.7546771E-02  0.1226147E+00
          2   -1    0    0  504    0 -0.00000000000E+00  0.00000000000E+00  0.36182343791E+03  0.36182343791E+03  0.00000000000E+00 0. -1.
         21   -1    0    0  503  502  0.00000000000E+00 -0.00000000000E+00 -0.62593470653E+02  0.62593470653E+02  0.00000000000E+00 0. -1.
         21    1    1    2  503  501 -0.37030263038E+02 -0.12380534032E+02  0.56570264640E+02  0.68736546648E+02  0.00000000000E+00 0. -1.
         21    1    1    2  504  505  0.81528306799E+02 -0.69364863932E+01  0.62663507607E+01  0.82062456732E+02  0.00000000000E+00 0. -1.
         21    1    1    2  505  502  0.37189306382E+02 -0.17554965705E+02  0.38315287643E+02  0.56207495917E+02  0.00000000000E+00 0.  1.
          2    1    1    2  501    0 -0.81687350143E+02  0.36871986130E+02  0.19807806422E+03  0.21741040927E+03  0.00000000000E+00 0. -1.
<scales pt_clust_3="31.93276" pt_clust_4="35.00033" pt_clust_5="35.00033" pt_clust_6="130.51555"></scales>
<clustering>
<clus scale="   31.933">  3  6 -1 -1</clus>
<clus scale="   35.000">  4  5 -1 -1</clus>
<clus scale="  130.516">  1  3  2 -1</clus>
<clus scale="  130.886">  2  3  1 -1</clus>
</clustering>
</event>
<event>
 6    0  0.1849053E+002  0.2486719E+03  0.7546771E-02  0.1114147E+00
         21   -1    0    0  505  502  0.00000000000E+00  0.00000000000E+00  0.37087019365E+03  0.37087019365E+03  0.00000000000E+00 0. -1.
          2   -1    0    0  504    0 -0.00000000000E+00 -0.00000000000E+00 -0.82878421188E+03  0.82878421188E+03  0.00000000000E+00 0.  1.
         21    1    1    2  503  502 -0.14806640491E+03  0.15725143683E+03  0.14250637835E+03  0.25876580631E+03  0.00000000000E+00 0. -1.
         21    1    1    2  504  503  0.23441087879E+02  0.38586116024E+02 -0.16885518151E+03  0.17478685670E+03  0.00000000000E+00 0. -1.
         21    1    1    2  505  501 -0.73152696500E+02 -0.30798283041E+02  0.12770473882E+03  0.15036073810E+03  0.00000000000E+00 0. -1.
          2    1    1    2  501    0  0.19777801353E+03 -0.16503926981E+03 -0.55926995388E+03  0.61574100442E+03  0.00000000000E+00 0.  1.
<scales pt_clust_3="14000.00000" pt_clust_4="45.14834" pt_clust_5="78.74223" pt_clust_6="248.67188"></scales>
<clustering>
<clus scale="   45.148">  2  4  1 -1</clus>
<clus scale="   78.742">  1  5  2 -1</clus>
<clus scale="  248.672">  2  6  1 -1</clus>
<clus scale="   78.742">  1  3  2 -1</clus>
</clustering>
</event>
<event>
 6    0  0.1849053E+002  0.1150437E+03  0.7546771E-02  0.1251505E+00
         21   -1    0    0  503  502  0.00000000000E+00  0.00000000000E+00  0.86600996119E+03  0.86600996119E+03  0.00000000000E+00 0. -1.
          2   -1    0    0  505    0 -0.00000000000E+00 -0.00000000000E+00 -0.30772192831E+04  0.30772192831E+04  0.00000000000E+00 0. -1.
         21    1    1    2  503  501 -0.78455471278E+02 -0.21899676931E+02  0.42749665070E+02  0.91991253316E+02  0.00000000000E+00 0.  1.
         21    1    1    2  504  502  0.87616882662E+02 -0.22059049104E+02  0.78493019653E+03  0.79011311418E+03  0.00000000000E+00 0. -1.
         21    1    1    2  505  504 -0.79293341324E+02 -0.51342159316E+02 -0.21595206595E+03  0.23570902844E+03  0.00000000000E+00 0.  1.
          2    1    1    2  501    0  0.70131929940E+02  0.95300885350E+02 -0.28229371176E+04  0.28254158484E+04  0.00000000000E+00 0. -1.
<scales pt_clust_3="81.45463" pt_clust_4="44.84190" pt_clust_5="14000.00000" pt_clust_6="115.04365"></scales>
<clustering>
<clus scale="   81.455">  1  3  2 -1</clus>
<clus scale="   44.842">  1  4  2 -1</clus>
<clus scale="  115.044">  2  6  1 -1</clus>
<clus scale="   81.455">  1  3  2 -1</clus>
</clustering>
</event>
<event>
 6    0  0.1849053E+002  0.2041252E+03  0.7546771E-02  0.1146304E+00
         -2   -1    0    0    0  501 -0.00000000000E+00  0.00000000000E+00  0.20674583791E+03  0.20674583791E+03  0.00000000000E+00 0. -1.
         21   -1    0    0  505  502  0.00000000000E+00 -0.00000000000E+00 -0.68621881953E+03  0.68621881953E+03  0.00000000000E+00 0. -1.
         21    1    1    2  503  502 -0.14667267885E+03 -0.13855109508E+03 -0.48301444663E+03  0.52346178115E+03  0.00000000000E+00 0. -1.
         21    1    1    2  504  501 -0.32018677346E+02 -0.84988552360E+01  0.92825512575E+01  0.34403371886E+02  0.00000000000E+00 0.  1.
         21    1    1    2  505  504  0.13153294678E+03  0.16911164679E+03 -0.92946021257E+02  0.23353506811E+03  0.00000000000E+00 0. -1.
         -2    1    1    2    0  503  0.47158409417E+02 -0.22061696477E+02  0.87204935013E+02  0.10156443630E+03  0.00000000000E+00 0. -1.
<scales pt_clust_3="204.12523" pt_clust_4="33.12742" pt_clust_5="14000.00000" pt_clust_6="40.57684"></scales>
<clustering>
<clus scale="   33.127">  1  4  2 -1</clus>
<clus scale="   40.577">  1  6  2 -1</clus>
<clus scale="  204.125">  2  3  1 -1</clus>
<clus scale="  204.125">  2  3  1 -1</clus>
</clustering>
</event>
<event>
 6    0  0.1849053E+002  0.1269843E+03  0.7546771E-02  0.1232000E+00
         21   -1    0    0  504  502  0.00000000000E+00  0.00000000000E+00  0.62469039954E+02  0.62469039954E+02  0.00000000000E+00 0.  1.
          2   -1    0    0  502    0 -0.00000000000E+00 -0.00000000000E+00 -0.16351457545E+04  0.16351457545E+04  0.00000000000E+00 0. -1.
         21    1    1    2  503  505 -0.25204394288E+02  0.51635960728E+02 -0.28204124237E+02  0.64007863234E+02  0.00000000000E+00 0.  1.
         21    1    1    2  504  503  0.45692790692E+01  0.63180532478E+02  0.17642042944E+02  0.65756366039E+02  0.00000000000E+00 0.  1.
         21    1    1    2  505  501 -0.16817421357E+02 -0.78559346545E+02 -0.10588615253E+04  0.10619049516E+04  0.00000000000E+00 0. -1.
          2    1    1    2  501    0  0.37452536576E+02 -0.36257146662E+02 -0.50325310797E+03  0.50594561354E+03  0.00000000000E+00 0. -1.
<scales pt_clust_3="52.54882" pt_clust_4="52.54882" pt_clust_5="114.04588" pt_clust_6="52.12747"></scales>
<clustering>
<clus scale="   52.127">  2  6  1 -1</clus>
<clus scale="   52.549">  3  4 -1 -1</clus>
<clus scale="  114.046">  2  5  1 -1</clus>
<clus scale="  126.984">  1  3  2 -1</clus>
</clustering>
</event>
<event>
 6    0  0.1849053E+002  0.1018066E+03  0.7546771E-02  0.1276542E+00
         21   -1    0    0  505  502  0.00000000000E+00  0.00000000000E+00  0.35464223321E+03  0.35464223321E+03  0.00000000000E+00 0. -1.
          2   -1    0    0  503    0 -0.00000000000E+00 -0.00000000000E+00 -0.81947358854E+03  0.81947358854E+03  0.00000000000E+00 0.  1.
         21    1    1    2  503  502  0.37051576446E+02  0.77085319050E+02  0.26529710157E+03  0.27874274490E+03  0.00000000000E+00 0. -1.
         21    1    1    2  504  501 -0.60733451531E+02 -0.32138643892E+02 -0.13641601497E+03  0.15274414459E+03  0.00000000000E+00 0.  1.
         21    1    1    2  505  504  0.60743166364E+02 -0.26767836699E+02  0.58881030554E+02  0.88731195758E+02  0.00000000000E+00 0. -1.
          2    1    1    2  501    0 -0.37061291279E+02 -0.18178838459E+02 -0.65259347248E+03  0.65389773651E+03  0.00000000000E+00 0.  1.
<scales pt_clust_3="14000.00000" pt_clust_4="101.80660" pt_clust_5="64.05551" pt_clust_6="41.27965"></scales>
<clustering>
<clus scale="   41.280">  2  6  1 -1</clus>
<clus scale="   64.056">  1  5  2 -1</clus>
<clus scale="  101.807">  2  4  1 -1</clus>
<clus scale="   64.056">  1  3  2 -1</clus>
</clustering>
</event>
<event>
 6    0  0.1849053E+002  0.1184922E+03  0.7546771E-02  0.1245605E+00
         21   -1    0    0  504  502  0.00000000000E+00  0.00000000000E+00  0.15440455018E+04  0.15440455018E+04  0.00000000000E+00 0. -1.
         -3   -1    0    0    0  501 -0.00000000000E+00 -0.00000000000E+00 -0.40095705058E+03  0.40095705058E+03  0.00000000000E+00 0.  1.
         21    1    1    2  503  505  0.68652511692E+02  0.72245009338E+02  0.35964115268E+03  0.37319467767E+03  0.00000000000E+00 0.  1.
         21    1    1    2  504  501 -0.46719787864E+02 -0.35579595273E+01 -0.59908482976E+02  0.76055400772E+02  0.00000000000E+00 0. -1.
         21    1    1    2  505  502  0.52379856737E+02 -0.57095413516E+02  0.11639135090E+04  0.11664896879E+04  0.00000000000E+00 0. -1.
         -3    1    1    2    0  503 -0.74312580565E+02 -0.11591636295E+02 -0.32055772743E+03  0.32926278605E+03  0.00000000000E+00 0.  1.
<scales pt_clust_3="118.49225" pt_clust_4="46.85507" pt_clust_5="77.37058" pt_clust_6="14000.00000"></scales>
<clustering>
<clus scale="   46.855">  2  4  1 -1</clus>
<clus scale="   77.371">  1  5  2 -1</clus>
<clus scale="  118.492">  1  3  2 -1</clus>
<clus scale="   77.371">  1  3  2 -1</clus>
</clustering>
</event>
<event>
 6    0  0.1849053E+002  0.1650660E+03  0.7546771E-02  0.1183093E+00
          2   -1    0    0  505    0 -0.00000000000E+00  0.00000000000E+00  0.21066915999E+04  0.21066915999E+04  0.00000000000E+00 0.  1.
         21   -1    0    0  501  502  0.00000000000E+00 -0.00000000000E+00 -0.81078080401E+02  0.81078080401E+02  0.00000000000E+00 0. -1.
         21    1    1    2  503  504 -0.46834301900E+02  0.12608451566E+03  0.55694712972E+02  0.14557698299E+03  0.00000000000E+00 0. -1.
         21    1    1    2  504  502  0.61382985534E+01  0.38242946419E+02 -0.18611671422E+02  0.42972037106E+02  0.00000000000E+00 0. -1.
         21    1    1    2  505  503  0.35998371959E+02  0.39401558311E+01  0.46856584342E+03  0.46996314455E+03  0.00000000000E+00 0.  1.
          2    1    1    2  501    0  0.46976313876E+01 -0.16826761791E+03  0.15199646346E+04  0.15292575157E+04  0.00000000000E+00 0.  1.
<scales pt_clust_3="165.06600" pt_clust_4="38.80468" pt_clust_5="36.21336" pt_clust_6="14000.00000"></scales>
<clustering>
<clus scale="   36.213">  1  5  2 -1</clus>
<clus scale="   38.805">  2  4  1 -1</clus>
<clus scale="  165.066">  2  3  1 -1</clus>
<clus scale="   38.805">  2  3  1 -1</clus>
</clustering>
</event>
<event>
 6    0  0.1849053E+002  0.1714258E+03  0.7546771E-02  0.1176369E+00
          2   -1    0    0  504    0 -0.00000000000E+00  0.00000000000E+00  0.31487738790E+03  0.31487738790E+03  0.00000000000E+00 0. -1.
         21   -1    0    0  505  502  0.00000000000E+00 -0.00000000000E+00 -0.11999886490E+04  0.11999886490E+04  0.00000000000E+00 0.  1.
         21    1    1    2  503  502 -0.46317908007E+02 -0.21561602680E+01 -0.12382559450E+03  0.13222244697E+03  0.00000000000E+00 0.  1.
         21    1    1    2  504  503 -0.66670163432E+02 -0.23815973045E+02 -0.39215401744E+02  0.80931816971E+02  0.00000000000E+00 0. -1.
         21    1    1    2  505  501 -0.38097759436E+02 -0.24976712977E+02 -0.98939750269E+03  0.99044570462E+03  0.00000000000E+00 0.  1.
          2    1    1    2  501    0  0.15108583087E+03  0.50948846290E+02  0.26732723782E+03  0.31126606836E+03  0.00000000000E+00 0. -1.
<scales pt_clust_3="68.14917" pt_clust_4="68.14917" pt_clust_5="45.55519" pt_clust_6="154.83952"></scales>
<clustering>
<clus scale="   45.555">  2  5  1 -1</clus>
<clus scale="   68.149">  3  4 -1 -1</clus>
<clus scale="  154.840">  1  6  2 -1</clus>
<clus scale="   45.555">  2  3  1 -1</clus>
</clustering>
</event>
<event>
 6    0  0.1849053E+002  0.2271217E+03  0.7546771E-02  0.1128682E+00
          1   -1    0    0  502    0 -0.00000000000E+00  0.00000000000E+00  0.14531313609E+04  0.14531313609E+04  0.00000000000E+00 0. -1.
         21   -1    0    0  503  502  0.00000000000E+00 -0.00000000000E+00 -0.35611077618E+02  0.35611077618E+02  0.00000000000E+00 0. -1.
         21    1    1    2  503  505 -0.77677951647E+01  0.13049904464E+03  0.27175369084E+03  0.30156327326E+03  0.00000000000E+00 0. -1.
         21    1    1    2  504  501 -0.37773351359E+01 -0.84967120985E+02  0.20437268435E+03  0.22136366915E+03  0.00000000000E+00 0. -1.
         21    1    1    2  505  504  0.17797660292E+02  0.78098450987E+02  0.22563767641E+03  0.23943367720E+03  0.00000000000E+00 0. -1.
          1    1    1    2  501    0 -0.62525299912E+01 -0.12363037464E+03  0.71575623167E+03  0.72638181891E+03  0.00000000000E+00 0. -1.
<scales pt_clust_3="212.78987" pt_clust_4="74.00314" pt_clust_5="31.94993" pt_clust_6="74.00314"></scales>
<clustering>
<clus scale="   31.950">  3  5 -1 -1</clus>
<clus scale="   74.003">  4  6 -1 -1</clus>
<clus scale="  212.790">  2  3  1 -1</clus>
<clus scale="  212.790">  2  3  1 -1</clus>
</clustering>
</event>
<event>
 6    0  0.1849053E+002  0.1437617E+03  0.7546771E-02  0.1208355E+00
         21   -1    0    0  504  502  0.00000000000E+00  0.00000000000E+00  0.91143852333E+02  0.91143852333E+02  0.00000000000E+00 0. -1.
          2   -1    0    0  505    0 -0.00000000000E+00 -0.00000000000E+00 -0.91636238001E+03  0.91636238001E+03  0.00000000000E+00 0. -1.
         21    1    1    2  503  502  0.43057521094E+01 -0.29878631194E+02 -0.94486472529E+01  0.31631456466E+02  0.00000000000E+00 0.  1.
         21    1    1    2  504  501  0.36245180298E+02  0.16309998012E+02 -0.13921666077E+03  0.14477916896E+03  0.00000000000E+00 0. -1.
         21    1    1    2  505  503 -0.13767726585E+03  0.69722503660E+01  0.94898328646E+01  0.13817995056E+03  0.00000000000E+00 0. -1.
          2    1    1    2  501    0  0.97126333445E+02  0.65963828154E+01 -0.68604305252E+03  0.69291565636E+03  0.00000000000E+00 0. -1.
<scales pt_clust_3="30.18728" pt_clust_4="30.95742" pt_clust_5="135.28137" pt_clust_6="30.95742"></scales>
<clustering>
<clus scale="   30.187">  1  3  2 -1</clus>
<clus scale="   30.957">  4  6 -1 -1</clus>
<clus scale="  135.281">  1  5  2 -1</clus>
<clus scale="   30.187">  1  3  2 -1</clus>
</clustering>
</event>
<event>
 6    0  0.1849053E+002  0.9694075E+02  0.7546771E-02  0.1286864E+00
         21   -1    0    0  505  502  0.00000000000E+00  0.00000000000E+00  0.46422932119E+02  0.46422932119E+02  0.00000000000E+00 0. -1.
          2   -1    0    0  503    0 -0.00000000000E+00 -0.00000000000E+00 -0.24516279700E+04  0.24516279700E+04  0.00000000000E+00 0. -1.
         21    1    1    2  503  504  0.13148433544E+02  0.39055581695E+02 -0.23481296009E+03  0.23840164847E+03  0.00000000000E+00 0. -1.
         21    1    1    2  504  502  0.10957305599E+03  0.57580460395E+02 -0.63296991710E+02  0.13902616005E+03  0.00000000000E+00 0. -1.
         21    1    1    2  505  501 -0.20676754289E+02 -0.30129528619E+02 -0.62467453514E+02  0.72370570063E+02  0.00000000000E+00 0. -1.
          2    1    1    2  501    0 -0.10204473525E+03 -0.66506513471E+02 -0.20446276326E+04  0.20482525236E+04  0.00000000000E+00 0. -1.
<scales pt_clust_3="39.69089" pt_clust_4="14000.00000" pt_clust_5="36.54198" pt_clust_6="96.94075"></scales>
<clustering>
<clus scale="   36.542">  1  5  2 -1</clus>
<clus scale="   39.691">  2  3  1 -1</clus>
<clus scale="   96.941">  2  6  1 -1</clus>
<clus scale="   36.542">  1  3  2 -1</clus>
</clustering>
</event>
<event>
 6    0  0.1849053E+002  0.2080349E+03  0.7546771E-02  0.1143132E+00
         21   -1    0    0  504  502  0.00000000000E+00  0.00000000000E+00  0.33659865674E+03  0.33659865674E+03  0.00000000000E+00 0. -1.
         -2   -1    0    0    0  501 -0.00000000000E+00 -0.00000000000E+00 -0.96645570765E+03  0.96645570765E+03  0.00000000000E+00 0. -1.
         21    1    1    2  503  502  0.10626224007E+03  0.43795737299E+02  0.22404136471E+03  0.25180203211E+03  0.00000000000E+00 0. -1.
         21    1    1    2  504  505  0.49042855438E+02 -0.21075216313E+03 -0.73855037884E+02  0.22863998459E+03  0.00000000000E+00 0. -1.
         21    1    1    2  505  501 -0.80263515969E+02  0.12398965173E+02 -0.16324896400E+03  0.18233537940E+03  0.00000000000E+00 0. -1.
         -2    1    1    2    0  503 -0.75041579542E+02  0.15455746065E+03 -0.61679441374E+03  0.64027696830E+03  0.00000000000E+00 0. -1.
<scales pt_clust_3="113.72078" pt_clust_4="208.03495" pt_clust_5="81.21555" pt_clust_6="14000.00000"></scales>
<clustering>
<clus scale="   81.216">  2  5  1 -1</clus>
<clus scale="  113.721">  1  3  2 -1</clus>
<clus scale="  208.035">  1  4  2 -1</clus>
<clus scale="  113.721">  1  3  2 -1</clus>
</clustering>
</event>
<event>
 6    0  0.1849053E+002  0.6829522E+02  0.7546771E-02  0.1365988E+00
         21   -1    0    0  505  502  0.00000000000E+00  0.00000000000E+00  0.18842025421E+03  0.18842025421E+03  0.00000000000E+00 0. -1.
          2   -1    0    0  504    0 -0.00000000000E+00 -0.00000000000E+00 -0.65453507994E+03  0.65453507994E+03  0.00000000000E+00 0.  1.
         21    1    1    2  503  501  0.22101625570E+01  0.51210834102E+02 -0.90624030620E+02  0.10411603754E+03  0.00000000000E+00 0. -1.
         21    1    1    2  504  502  0.19375402710E+02  0.56145143282E+02  0.20731436445E+02  0.62908471619E+02  0.00000000000E+00 0. -1.
         21    1    1    2  505  503  0.12841715506E+02 -0.12091476460E+03  0.11262517578E+03  0.16573991727E+03  0.00000000000E+00 0. -1.
          2    1    1    2  501    0 -0.34427280773E+02  0.13558787215E+02 -0.50884740733E+03  0.51019090772E+03  0.00000000000E+00 0.  1.
<scales pt_clust_3="68.29522" pt_clust_4="59.86684" pt_clust_5="14000.00000" pt_clust_6="37.00106"></scales>
<clustering>
<clus scale="   37.001">  2  6  1 -1</clus>
<clus scale="   59.867">  1  4  2 -1</clus>
<clus scale="   68.295">  2  3  1 -1</clus>
<clus scale="   59.867">  1  3  2 -1</clus>
</clustering>
</event>
<event>
 6    0  0.1849053E+002  0.7416446E+02  0.7546771E-02  0.1346478E+00
         21   -1    0    0  504  502  0.00000000000E+00  0.00000000000E+00  0.14983731197E+03  0.14983731197E+03  0.00000000000E+00 0.  1.
          1   -1    0    0  503    0 -0.00000000000E+00 -0.00000000000E+00 -0.57673547228E+03  0.57673547228E+03  0.00000000000E+00 0. -1.
         21    1    1    2  503  505  0.27132573341E+02  0.48574715669E+02 -0.47638660282E+02  0.73246989644E+02  0.00000000000E+00 0. -1.
         21    1    1    2  504  501  0.26582510069E+02  0.24463240003E+02  0.19174448110E+02  0.40899137074E+02  0.00000000000E+00 0.  1.
         21    1    1    2  505  502 -0.24886017941E+02  0.51488230233E+02  0.90503836216E+02  0.10705744304E+03  0.00000000000E+00 0.  1.
          1    1    1    2  501    0 -0.28829065470E+02 -0.12452618591E+03 -0.48893778435E+03  0.50536921450E+03  0.00000000000E+00 0. -1.
<scales pt_clust_3="59.31921" pt_clust_4="36.12589" pt_clust_5="74.16446" pt_clust_6="14000.00000"></scales>
<clustering>
<clus scale="   36.126">  1  4  2 -1</clus>
<clus scale="   59.319">  2  3  1 -1</clus>
<clus scale="   74.164">  1  5  2 -1</clus>
<clus scale="   36.126">  1  3  2 -1</clus>
</clustering>
</event>
<event>
 6    0  0.1849053E+002  0.4948904E+03  0.7546771E-02  0.1015121E+00
         21   -1    0    0  505  502  0.00000000000E+00  0.00000000000E+00  0.14166108466E+03  0.14166108466E+03  0.00000000000E+00 0. -1.
          2   -1    0    0  502    0 -0.00000000000E+00 -0.00000000000E+00 -0.17597710412E+04  0.17597710412E+04  0.00000000000E+00 0. -1.
         21    1    1    2  503  501  0.88553611968E+02  0.14808110154E+03 -0.20399937598E+03  0.26718065092E+03  0.00000000000E+00 0. -1.
         21    1    1    2  504  503 -0.14971546340E+03 -0.15795816920E+03 -0.39753356923E+03  0.45320904874E+03  0.00000000000E+00 0. -1.
         21    1    1    2  505  504 -0.13473800849E+03 -0.20966201754E+03 -0.22208920446E+03  0.33382047162E+03  0.00000000000E+00 0. -1.
          2    1    1    2  501    0  0.19589985993E+03  0.21953908520E+03 -0.79448780689E+03  0.84722195460E+03  0.00000000000E+00 0. -1.
<scales pt_clust_3="130.08609" pt_clust_4="130.24109" pt_clust_5="485.26599" pt_clust_6="130.08609"></scales>
<clustering>
<clus scale="  130.086">  3  6 -1 -1</clus>
<clus scale="  130.241">  4  5 -1 -1</clus>
<clus scale="  485.266">  1  4  2 -1</clus>
<clus scale="  485.266">  1  3  2 -1</clus>
</clustering>
</event>
<event>
 6    0  0.1849053E+002  0.8501717E+02  0.7546771E-02  0.1315388E+00
          2   -1    0    0  504    0 -0.00000000000E+00  0.00000000000E+00  0.22806391709E+04  0.22806391709E+04  0.00000000000E+00 0.  1.
         21   -1    0    0  505  502  0.00000000000E+00 -0.00000000000E+00 -0.34629557901E+03  0.34629557901E+03  0.00000000000E+00 0.  1.
         21    1    1    2  503  502 -0.28378245564E+02 -0.30520273166E+02 -0.14821165567E+02  0.44232101964E+02  0.00000000000E+00 0.  1.
         21    1    1    2  504  503 -0.11664149680E+02  0.65639774724E+02  0.63470759296E+03  0.63819931132E+03  0.00000000000E+00 0.  1.
         21    1    1    2  505  501 -0.52665241625E+02  0.32177611700E+01 -0.31125661438E+03  0.31569710429E+03  0.00000000000E+00 0.  1.
          2    1    1    2  501    0  0.92707636869E+02 -0.38337262729E+02  0.16257137789E+04  0.16288062324E+04  0.00000000000E+00 0.  1.
<scales pt_clust_3="41.67508" pt_clust_4="66.53008" pt_clust_5="14000.00000" pt_clust_6="85.01717"></scales>
<clustering>
<clus scale="   41.675">  2  3  1 -1</clus>
<clus scale="   66.530">  1  4  2 -1</clus>
<clus scale="   85.017">  1  6  2 -1</clus>
<clus scale="   41.675">  2  3  1 -1</clus>
</clustering>
</event>
<event>
 6    0  0.1849053E+002  0.8921913E+02  0.7546771E-02  0.1304754E+00
         21   -1    0    0  505  502  0.00000000000E+00  0.00000000000E+00  0.44421157099E+03  0.44421157099E+03  0.00000000000E+00 0. -1.
          1   -1    0    0  503    0 -0.00000000000E+00 -0.00000000000E+00 -0.23332904236E+03  0.23332904236E+03  0.00000000000E+00 0. -1.
         21    1    1    2  503  504 -0.31877175409E+02  0.56886873782E+02  0.75944345005E+01  0.65650180168E+02  0.00000000000E+00 0.  1.
         21    1    1    2  504  502 -0.23374654400E+02  0.11836287767E+03  0.30690792100E+03  0.32977055243E+03  0.00000000000E+00 0. -1.
         21    1    1    2  505  501 -0.27573708615E+01 -0.44618557715E+02  0.53497081912E+02  0.69716257500E+02  0.00000000000E+00 0.  1.
          1    1    1    2  501    0  0.58009200671E+02 -0.13063119374E+03 -0.15711690879E+03  0.21240362324E+03  0.00000000000E+00 0. -1.
<scales pt_clust_3="61.65631" pt_clust_4="14000.00000" pt_clust_5="44.70368" pt_clust_6="89.21913"></scales>
<clustering>
<clus scale="   44.704">  1  5  2 -1</clus>
<clus scale="   61.656">  2  3  1 -1</clus>
<clus scale="   89.219">  2  6  1 -1</clus>
<clus scale="   44.704">  1  3  2 -1</clus>
</clustering>
</event>
<event>
 6    0  0.1849053E+002  0.1038066E+03  0.7546771E-02  0.1272489E+00
          1   -1    0    0  503    0 -0.00000000000E+00  0.00000000000E+00  0.41476042809E+03  0.41476042809E+03  0.00000000000E+00 0.  1.
         21   -1    0    0  504  502  0.00000000000E+00 -0.00000000000E+00 -0.11531335303E+03  0.11531335303E+03  0.00000000000E+00 0.  1.
         21    1    1    2  503  505 -0.29266350936E+02 -0.14968645912E+02  0.30474533537E+02  0.44824957913E+02  0.00000000000E+00 0. -1.
         21    1    1    2  504  501 -0.24554710857E+02  0.17280154750E+02  0.18265268968E+02  0.35144809346E+02  0.00000000000E+00 0. -1.
         21    1    1    2  505  502 -0.65472572617E+02 -0.64362750805E+02 -0.61272825803E+02  0.11037925819E+03  0.00000000000E+00 0.  1.
          1    1    1    2  501    0  0.11929363441E+03  0.62051241967E+02  0.31198009836E+03  0.33972475567E+03  0.00000000000E+00 0.  1.
<scales pt_clust_3="33.85860" pt_clust_4="30.02562" pt_clust_5="103.80663" pt_clust_6="14000.00000"></scales>
<clustering>
<clus scale="   30.026">  2  4  1 -1</clus>
<clus scale="   33.859">  1  3  2 -1</clus>
<clus scale="  103.807">  2  5  1 -1</clus>
<clus scale="   30.026">  2  3  1 -1</clus>
</clustering>
</event>
<event>
 6    0  0.1849053E+002  0.9341559E+02  0.7546771E-02  0.1294785E+00
          1   -1    0    0  505    0 -0.00000000000E+00  0.00000000000E+00  0.36029870476E+03  0.36029870476E+03  0.00000000000E+00 0.  1.
         21   -1    0    0  504  502  0.00000000000E+00 -0.00000000000E+00 -0.16969502430E+03  0.16969502430E+03  0.00000000000E+00 0.  1.
         21    1    1    2  503  502 -0.94816001043E+01  0.82370402970E+02 -0.63162759034E+02  0.10423203996E+03  0.00000000000E+00 0.  1.
         21    1    1    2  504  501 -0.74792599405E+02 -0.12339870008E+02 -0.45885586760E+02  0.88609775928E+02  0.00000000000E+00 0.  1.
         21    1    1    2  505  503  0.64002052270E+02 -0.35908877314E+01  0.60603156254E+02  0.88215076475E+02  0.00000000000E+00 0.  1.
          1    1    1    2  501    0  0.20272147239E+02 -0.66439645230E+02  0.23904887000E+03  0.24893683669E+03  0.00000000000E+00 0.  1.
<scales pt_clust_3="14000.00000" pt_clust_4="71.13652" pt_clust_5="64.10271" pt_clust_6="93.41559"></scales>
<clustering>
<clus scale="   64.103">  1  5  2 -1</clus>
<clus scale="   71.137">  2  4  1 -1</clus>
<clus scale="   93.416">  1  6  2 -1</clus>
<clus scale="   71.137">  2  3  1 -1</clus>
</clustering>
</event>
<event>
 6    0  0.1849053E+002  0.2098762E+03  0.7546771E-02  0.1141664E+00
          1   -1    0    0  505    0 -0.00000000000E+00  0.00000000000E+00  0.30551878027E+04  0.30551878027E+04  0.00000000000E+00 0. -1.
         21   -1    0    0  503  502  0.00000000000E+00 -0.00000000000E+00 -0.22393473981E+03  0.22393473981E+03  0.00000000000E+00 0.  1.
         21    1    1    2  503  504 -0.20749265405E+03 -0.78636774073E+02 -0.10480067769E+03  0.24539789275E+03  0.00000000000E+00 0.  1.
         21    1    1    2  504  501  0.78678659250E+02 -0.29076723379E+01  0.12588162293E+04  0.12612759751E+04  0.00000000000E+00 0. -1.
         21    1    1    2  505  502  0.90311046678E+01  0.31201574109E+02 -0.39308180955E+02  0.50992471684E+02  0.00000000000E+00 0.  1.
          1    1    1    2  501    0  0.11978289013E+03  0.50342872302E+02  0.17165456922E+04  0.17214562030E+04  0.00000000000E+00 0. -1.
<scales pt_clust_3="204.38306" pt_clust_4="37.10629" pt_clust_5="32.48229" pt_clust_6="37.10629"></scales>
<clustering>
<clus scale="   32.482">  2  5  1 -1</clus>
<clus scale="   37.106">  4  6 -1 -1</clus>
<clus scale="  204.383">  2  3  1 -1</clus>
<clus scale="   32.482">  2  3  1 -1</clus>
</clustering>
</event>
<event>
 6    0  0.1849053E+002  0.2450940E+03  0.7546771E-02  0.1116445E+00
         21   -1    0    0  505  502  0.00000000000E+00  0.00000000000E+00  0.56227932282E+02  0.56227932282E+02  0.00000000000E+00 0. -1.
          1   -1    0    0  503    0 -0.00000000000E+00 -0.00000000000E+00 -0.42036585580E+04  0.42036585580E+04  0.00000000000E+00 0. -1.
         21    1    1    2  503  504  0.10933462186E+03 -0.62928229737E+02 -0.56154460554E+03  0.57554006433E+03  0.00000000000E+00 0.  1.
         21    1    1    2  504  502 -0.20225041965E+02  0.24357369394E+03 -0.27936140379E+03  0.37118727164E+03  0.00000000000E+00 0. -1.
         21    1    1    2  505  501 -0.69165409890E+02 -0.12875190693E+03 -0.19367392673E+04  0.19422460959E+04  0.00000000000E+00 0. -1.
          1    1    1    2  501    0 -0.19944170006E+02 -0.51893557272E+02 -0.13697853491E+04  0.13709130585E+04  0.00000000000E+00 0. -1.
<scales pt_clust_3="126.15079" pt_clust_4="238.17180" pt_clust_5="35.67167" pt_clust_6="35.67167"></scales>
<clustering>
<clus scale="   35.672">  5  6 -1 -1</clus>
<clus scale="  126.151">  2  3  1 -1</clus>
<clus scale="  238.172">  1  4  2 -1</clus>
<clus scale="  238.172">  1  3  2 -1</clus>
</clustering>
</event>
<event>
 6    0  0.1849053E+002  0.1161952E+03  0.7546771E-02  0.1249509E+00
          2   -1    0    0  505    0 -0.00000000000E+00  0.00000000000E+00  0.31721324490E+04  0.31721324490E+04  0.00000000000E+00 0. -1.
         21   -1    0    0  504  502  0.00000000000E+00 -0.00000000000E+00 -0.22919301720E+03  0.22919301720E+03  0.00000000000E+00 0. -1.
         21    1    1    2  503  502  0.12070150092E+03  0.74085288845E+02  0.15245770962E+03  0.20808852820E+03  0.00000000000E+00 0. -1.
         21    1    1    2  504  501 -0.81759162097E+02 -0.14785191823E+02 -0.18669020389E+03  0.20434381496E+03  0.00000000000E+00 0. -1.
         21    1    1    2  505  503  0.40720503972E+02 -0.55044369950E+01  0.78292909495E+02  0.88420800424E+02  0.00000000000E+00 0.  1.
          2    1    1    2  501    0 -0.79662842793E+02 -0.53795660027E+02  0.28988790166E+04  0.29004723227E+04  0.00000000000E+00 0. -1.
<scales pt_clust_3="33.68815" pt_clust_4="83.08527" pt_clust_5="33.68815" pt_clust_6="97.92749"></scales>
<clustering>
<clus scale="   33.688">  3  5 -1 -1</clus>
<clus scale="   83.085">  2  4  1 -1</clus>
<clus scale="   97.927">  1  6  2 -1</clus>
<clus scale="   83.085">  2  3  1 -1</clus>
</clustering>
</event>
<event>
 6    0  0.1849053E+002  0.1292075E+03  0.7546771E-02  0.1228636E+00
          2   -1    0    0  505    0 -0.00000000000E+00  0.00000000000E+00  0.22435875847E+03  0.22435875847E+03  0.00000000000E+00 0. -1.
         21   -1    0    0  503  502  0.00000000000E+00 -0.00000000000E+00 -0.68219224461E+03  0.68219224461E+03  0.00000000000E+00 0. -1.
         21    1    1    2  503  504 -0.10529115163E+03  0.26958129172E+02 -0.19077445651E+03  0.21956288529E+03  0.00000000000E+00 0.  1.
         21    1    1    2  504  501  0.14614511374E+02 -0.58712920738E+02  0.45494714620E+02  0.75700462764E+02  0.00000000000E+00 0.  1.
         21    1    1    2  505  502  0.60398968806E+02  0.87245096949E+02 -0.44875616076E+03  0.46113103799E+03  0.00000000000E+00 0. -1.
          2    1    1    2  501    0  0.30277671452E+02 -0.55490305382E+02  0.13620241651E+03  0.15015661705E+03  0.00000000000E+00 0. -1.
<scales pt_clust_3="117.28042" pt_clust_4="53.04631" pt_clust_5="106.11193" pt_clust_6="53.04631"></scales>
<clustering>
<clus scale="   53.046">  4  6 -1 -1</clus>
<clus scale="  106.112">  2  5  1 -1</clus>
<clus scale="  117.280">  2  3  1 -1</clus>
<clus scale="  106.112">  2  3  1 -1</clus>
</clustering>
</event>
<event>
 6    0  0.1849053E+002  0.6673412E+02  0.7546771E-02  0.1371565E+00
          1   -1    0    0  505    0 -0.00000000000E+00  0.00000000000E+00  0.64624937573E+03  0.64624937573E+03  0.00000000000E+00 0. -1.
         21   -1    0    0  504  502  0.00000000000E+00 -0.00000000000E+00 -0.62931982046E+02  0.62931982046E+02  0.00000000000E+00 0. -1.
         21    1    1    2  503  501  0.38734140286E+02 -0.43079715017E+02  0.14647890295E+02  0.59755804402E+02  0.00000000000E+00 0. -1.
         21    1    1    2  504  503 -0.34854587106E+02 -0.14086133872E+02 -0.14705875209E+02  0.40367365228E+02  0.00000000000E+00 0.  1.
         21    1    1    2  505  502  0.64756515573E+02 -0.79969106761E+00  0.39598314587E+03  0.40124393781E+03  0.00000000000E+00 0. -1.
          1    1    1    2  501    0 -0.68636068752E+02  0.57965539957E+02  0.18739223273E+03  0.20781425034E+03  0.00000000000E+00 0. -1.
<scales pt_clust_3="54.61533" pt_clust_4="37.59337" pt_clust_5="14000.00000" pt_clust_6="66.73412"></scales>
<clustering>
<clus scale="   37.593">  2  4  1 -1</clus>
<clus scale="   54.615">  2  3  1 -1</clus>
<clus scale="   66.734">  2  6  1 -1</clus>
<clus scale="   37.593">  2  3  1 -1</clus>
</clustering>
</event>
<event>
 6    0  0.1849053E+002  0.1726482E+03  0.7546771E-02  0.1175114E+00
          1   -1    0    0  502    0 -0.00000000000E+00  0.00000000000E+00  0.22418952809E+04  0.22418952809E+04  0.00000000000E+00 0. -1.
         21   -1    0    0  505  502  0.00000000000E+00 -0.00000000000E+00 -0.37378867631E+03  0.37378867631E+03  0.00000000000E+00 0.  1.
         21    1    1    2  503  501  0.45847726637E+02  0.19849328612E+02  0.82499406983E+03  0.82650542958E+03  0.00000000000E+00 0. -1.
         21    1    1    2  504  503 -0.77735285609E+02  0.36859693763E+02 -0.16957780900E+03  0.19015268853E+03  0.00000000000E+00 0.  1.
         21    1    1    2  505  504 -0.73262203466E+02  0.20982891099E+01 -0.18352679973E+03  0.19762044300E+03  0.00000000000E+00 0.  1.
          1    1    1    2  501    0  0.10514976244E+03 -0.58807311485E+02  0.13962171435E+04  0.14014053961E+04  0.00000000000E+00 0. -1.
<scales pt_clust_3="47.71144" pt_clust_4="160.26583" pt_clust_5="34.12807" pt_clust_6="47.71144"></scales>
<clustering>
<clus scale="   34.128">  4  5 -1 -1</clus>
<clus scale="   47.711">  3  6 -1 -1</clus>
<clus scale="  160.266">  2  4  1 -1</clus>
<clus scale="  160.266">  2  3  1 -1</clus>
</clustering>
</event>
<event>
 6    0  0.1849053E+002  0.1562008E+03  0.7546771E-02  0.1193054E+00
         21   -1    0    0  504  502  0.00000000000E+00  0.00000000000E+00  0.39079362992E+03  0.39079362992E+03  0.00000000000E+00 0.  1.
          2   -1    0    0  502    0 -0.00000000000E+00 -0.00000000000E+00 -0.16847873505E+03  0.16847873505E+03  0.00000000000E+00 0.  1.
         21    1    1    2  503  501  0.91123559746E+02 -0.19976763627E+02 -0.84419012772E+02  0.12581392587E+03  0.00000000000E+00 0. -1.
         21    1    1    2  504  505 -0.19962611920E+02  0.24373329557E+02  0.28481673544E+02  0.42470822882E+02  0.00000000000E+00 0.  1.
         21    1    1    2  505  503 -0.12655067533E+03 -0.29688434611E+02  0.29950357895E+03  0.32649482443E+03  0.00000000000E+00 0.  1.
          2    1    1    2  501    0  0.55389727501E+02  0.25291868681E+02 -0.21251344853E+02  0.64492791784E+02  0.00000000000E+00 0.  1.
<scales pt_clust_3="48.36815" pt_clust_4="31.50500" pt_clust_5="144.36983" pt_clust_6="48.36815"></scales>
<clustering>
<clus scale="   31.505">  1  4  2 -1</clus>
<clus scale="   48.368">  3  6 -1 -1</clus>
<clus scale="  144.370">  1  5  2 -1</clus>
<clus scale="   31.505">  1  3  2 -1</clus>
</clustering>
</event>
<event>
 6    0  0.1849053E+002  0.1915691E+03  0.7546771E-02  0.1157054E+00
         21   -1    0    0  501  502  0.00000000000E+00  0.00000000000E+00  0.21374929109E+03  0.21374929109E+03  0.00000000000E+00 0. -1.
          2   -1    0    0  505    0 -0.00000000000E+00 -0.00000000000E+00 -0.10956811699E+04  0.10956811699E+04  0.00000000000E+00 0. -1.
         21    1    1    2  503  504  0.83772310456E+02 -0.97408554550E+02  0.11103301294E+03  0.16980740991E+03  0.00000000000E+00 0. -1.
         21    1    1    2  504  502  0.95572852030E+02 -0.27995001991E+02 -0.83715411062E+01  0.99939846319E+02  0.00000000000E+00 0. -1.
         21    1    1    2  505  503 -0.13863220560E+03 -0.28776676002E+02 -0.24389579920E+03  0.28201444357E+03  0.00000000000E+00 0. -1.
          2    1    1    2  501    0 -0.40712956882E+02  0.15418023254E+03 -0.74069755146E+03  0.75766876120E+03  0.00000000000E+00 0. -1.
<scales pt_clust_3="14000.00000" pt_clust_4="99.58860" pt_clust_5="131.72178" pt_clust_6="191.56911"></scales>
<clustering>
<clus scale="   99.589">  1  4  2 -1</clus>
<clus scale="  131.722">  2  5  1 -1</clus>
<clus scale="  191.569">  2  6  1 -1</clus>
<clus scale="   99.589">  1  3  2 -1</clus>
</clustering>
</event>
<event>
 6    0  0.1849053E+002  0.1511564E+03  0.7546771E-02  0.1199059E+00
          2   -1    0    0  504    0 -0.00000000000E+00  0.00000000000E+00  0.65602127658E+03  0.65602127658E+03  0.00000000000E+00 0. -1.
         21   -1    0    0  503  502  0.00000000000E+00 -0.00000000000E+00 -0.52642252708E+03  0.52642252708E+03  0.00000000000E+00 0. -1.
         21    1    1    2  503  501 -0.27981773444E+02  0.11124256617E+03 -0.94846167930E+02  0.14884113592E+03  0.00000000000E+00 0.  1.
         21    1    1    2  504  505 -0.13850278352E+03  0.60015415157E+02  0.53517875188E+03  0.55605860084E+03  0.00000000000E+00 0. -1.
         21    1    1    2  505  502  0.15240702180E+03 -0.45123844441E+02 -0.31251608464E+03  0.35061426780E+03  0.00000000000E+00 0. -1.
          2    1    1    2  501    0  0.14077535162E+02 -0.12613413688E+03  0.17822501884E+01  0.12692979910E+03  0.00000000000E+00 0. -1.
<scales pt_clust_3="114.70784" pt_clust_4="151.15643" pt_clust_5="14000.00000" pt_clust_6="109.36438"></scales>
<clustering>
<clus scale="  114.708">  2  3  1 -1</clus>
<clus scale="  109.364">  2  6  1 -1</clus>
<clus scale="  151.156">  1  4  2 -1</clus>
<clus scale="  114.708">  2  3  1 -1</clus>
</clustering>
</event>
<event>
 6    0  0.1849053E+002  0.1542167E+03  0.7546771E-02  0.1195385E+00
          2   -1    0    0  504    0 -0.00000000000E+00  0.00000000000E+00  0.84817240747E+03  0.84817240747E+03  0.00000000000E+00 0. -1.
         21   -1    0    0  505  502  0.00000000000E+00 -0.00000000000E+00 -0.42429874013E+03  0.42429874013E+03  0.00000000000E+00 0.  1.
         21    1    1    2  503  501 -0.89857275048E+02 -0.22606652061E+02  0.36214881926E+03  0.37381433612E+03  0.00000000000E+00 0. -1.
         21    1    1    2  504  502  0.68853363326E+02  0.31751917623E+02 -0.32121821999E+03  0.33004562529E+03  0.00000000000E+00 0.  1.
         21    1    1    2  505  503  0.78326588770E+02  0.36547764571E+01 -0.74054949991E+02  0.10785428836E+03  0.00000000000E+00 0.  1.
          2    1    1    2  501    0 -0.57322677048E+02 -0.12800042019E+02  0.45699801807E+03  0.46075689783E+03  0.00000000000E+00 0. -1.
<scales pt_clust_3="40.53465" pt_clust_4="75.82196" pt_clust_5="145.57041" pt_clust_6="40.53465"></scales>
<clustering>
<clus scale="   40.535">  3  6 -1 -1</clus>
<clus scale="   75.822">  2  4  1 -1</clus>
<clus scale="  145.570">  2  5  1 -1</clus>
<clus scale="   75.822">  2  3  1 -1</clus>
</clustering>
</event>
<event>
 6    0  0.1849053E+002  0.1195996E+03  0.7546771E-02  0.1243759E+00
         21   -1    0    0  504  502  0.00000000000E+00  0.00000000000E+00  0.80096719319E+02  0.80096719319E+02  0.00000000000E+00 0. -1.
          2   -1    0    0  505    0 -0.00000000000E+00 -0.00000000000E+00 -0.15040023613E+04  0.15040023613E+04  0.00000000000E+00 0. -1.
         21    1    1    2  503  501 -0.86766050314E+02 -0.19104568717E+02  0.17863329869E+02  0.90622461824E+02  0.00000000000E+00 0. -1.
         21    1    1    2  504  503 -0.14671714672E+02 -0.50849617438E+02 -0.15669626360E+02  0.55194927261E+02  0.00000000000E+00 0. -1.
         21    1    1    2  505  502 -0.22169768770E+02  0.27218131972E+02 -0.10475501401E+03  0.11048048840E+03  0.00000000000E+00 0. -1.
          2    1    1    2  501    0  0.12360753376E+03  0.42736054183E+02 -0.13213443315E+04  0.13278012031E+04  0.00000000000E+00 0. -1.
<scales pt_clust_3="119.59956" pt_clust_4="52.42142" pt_clust_5="35.10449" pt_clust_6="14000.00000"></scales>
<clustering>
<clus scale="   35.104">  2  5  1 -1</clus>
<clus scale="   52.421">  1  4  2 -1</clus>
<clus scale="  119.600">  1  3  2 -1</clus>
<clus scale="   52.421">  1  3  2 -1</clus>
</clustering>
</event>
<event>
 6    0  0.1849053E+002  0.1458674E+03  0.7546771E-02  0.1205645E+00
         -4   -1    0    0    0  501 -0.00000000000E+00  0.00000000000E+00  0.11030812656E+04  0.11030812656E+04  0.00000000000E+00 0.  1.
         21   -1    0    0  505  502  0.00000000000E+00 -0.00000000000E+00 -0.11015627173E+03  0.11015627173E+03  0.00000000000E+00 0.  1.
         21    1    1    2  503  502 -0.24003679855E+01 -0.30877665431E+02  0.71502670947E+01  0.31785504691E+02  0.00000000000E+00 0. -1.
         21    1    1    2  504  503  0.38900231459E+02  0.41246678105E+02  0.28000894571E+03  0.28569131268E+03  0.00000000000E+00 0. -1.
         21    1    1    2  505  501 -0.11068089322E+03 -0.50015485814E+02 -0.52878012088E+02  0.13246846080E+03  0.00000000000E+00 0.  1.
         -4    1    1    2    0  504  0.74181029747E+02  0.39646473141E+02  0.75864379313E+03  0.76329225914E+03  0.00000000000E+00 0.  1.
<scales pt_clust_3="30.97082" pt_clust_4="38.67363" pt_clust_5="137.99037" pt_clust_6="38.67363"></scales>
<clustering>
<clus scale="   30.971">  2  3  1 -1</clus>
<clus scale="   38.674">  4  6 -1 -1</clus>
<clus scale="  137.990">  2  5  1 -1</clus>
<clus scale="   30.971">  2  3  1 -1</clus>
</clustering>
</event>
<event>
 6    0  0.1849053E+002  0.1658717E+03  0.7546771E-02  0.1182223E+00
          2   -1    0    0  504    0 -0.00000000000E+00  0.00000000000E+00  0.23267884415E+04  0.23267884415E+04  0.00000000000E+00 0.  1.
         21   -1    0    0  501  502  0.00000000000E+00 -0.00000000000E+00 -0.63217254782E+03  0.63217254782E+03  0.00000000000E+00 0. -1.
         21    1    1    2  503  505 -0.71425232450E+00 -0.10104836196E+03 -0.31053606283E+03  0.32656381908E+03  0.00000000000E+00 0. -1.
         21    1    1    2  504  503 -0.21431267900E+02  0.25575044589E+02  0.12618120337E+03  0.13051849767E+03  0.00000000000E+00 0. -1.
         21    1    1    2  505  502 -0.32512987747E+02 -0.50969688741E+02 -0.30633092004E+03  0.31223970938E+03  0.00000000000E+00 0. -1.
          2    1    1    2  501    0  0.54658507972E+02  0.12644300611E+03  0.21853016732E+04  0.21896389632E+04  0.00000000000E+00 0.  1.
<scales pt_clust_3="44.66064" pt_clust_4="33.36738" pt_clust_5="44.66064" pt_clust_6="155.50523"></scales>
<clustering>
<clus scale="   33.367">  1  4  2 -1</clus>
<clus scale="   44.661">  3  5 -1 -1</clus>
<clus scale="  155.505">  1  6  2 -1</clus>
<clus scale="  165.872">  2  3  1 -1</clus>
</clustering>
</event>
<event>
 6    0  0.1849053E+002  0.1194264E+03  0.7546771E-02  0.1244046E+00
         21   -1    0    0  505  502  0.00000000000E+00  0.00000000000E+00  0.91492127005E+03  0.91492127005E+03  0.00000000000E+00 0. -1.
         -2   -1    0    0    0  501 -0.00000000000E+00 -0.00000000000E+00 -0.13966162892E+03  0.13966162892E+03  0.00000000000E+00 0.  1.
         21    1    1    2  503  502 -0.14462715030E+02 -0.38728078883E+02  0.53638565308E+02  0.67720970964E+02  0.00000000000E+00 0.  1.
         21    1    1    2  504  501  0.85337967019E+02  0.89456638786E+02  0.47058965947E+03  0.48655902667E+03  0.00000000000E+00 0. -1.
         21    1    1    2  505  504 -0.14874215628E+02  0.54762958836E+02  0.34418781393E+03  0.34883445244E+03  0.00000000000E+00 0. -1.
         -2    1    1    2    0  503 -0.56001036361E+02 -0.10549151874E+03 -0.93156397579E+02  0.15146844889E+03  0.00000000000E+00 0.  1.
<scales pt_clust_3="41.34047" pt_clust_4="119.42644" pt_clust_5="44.21938" pt_clust_6="14000.00000"></scales>
<clustering>
<clus scale="   41.340">  1  3  2 -1</clus>
<clus scale="   44.219">  1  5  2 -1</clus>
<clus scale="  119.426">  1  4  2 -1</clus>
<clus scale="   41.340">  1  3  2 -1</clus>
</clustering>
</event>
<event>
 6    0  0.1849053E+002  0.2571796E+03  0.7546771E-02  0.1108850E+00
          1   -1    0    0  502    0 -0.00000000000E+00  0.00000000000E+00  0.45944170073E+03  0.45944170073E+03  0.00000000000E+00 0. -1.
         21   -1    0    0  504  502  0.00000000000E+00 -0.00000000000E+00 -0.14079364324E+04  0.14079364324E+04  0.00000000000E+00 0. -1.
         21    1    1    2  503  505 -0.24720632024E+02  0.42699791598E+02 -0.28232235935E+03  0.28660128478E+03  0.00000000000E+00 0.  1.
         21    1    1    2  504  503  0.50752532662E+02  0.20136408478E+03 -0.10792552933E+04  0.10990520016E+04  0.00000000000E+00 0. -1.
         21    1    1    2  505  501 -0.50284155500E+01 -0.10666392066E+03  0.14922779859E+03  0.18349771880E+03  0.00000000000E+00 0.  1.
          1    1    1    2  501    0 -0.21003485088E+02 -0.13739995572E+03  0.26385512238E+03  0.29822712792E+03  0.00000000000E+00 0. -1.
<scales pt_clust_3="37.42967" pt_clust_4="37.42967" pt_clust_5="30.06376" pt_clust_6="247.83327"></scales>
<clustering>
<clus scale="   30.064">  5  6 -1 -1</clus>
<clus scale="   37.430">  3  4 -1 -1</clus>
<clus scale="  247.833">  1  5  2 -1</clus>
<clus scale="  257.180">  2  3  1 -1</clus>
</clustering>
</event>
<event>
 6    0  0.1849053E+002  0.1451262E+03  0.7546771E-02  0.1206593E+00
          2   -1    0    0  503    0 -0.00000000000E+00  0.00000000000E+00  0.19455381550E+04  0.19455381550E+04  0.00000000000E+00 0. -1.
         21   -1    0    0  505  502  0.00000000000E+00 -0.00000000000E+00 -0.23095034289E+02  0.23095034289E+02  0.00000000000E+00 0. -1.
         21    1    1    2  503  504  0.82439544410E+02 -0.89882417047E+02  0.20938879687E+03  0.24231961462E+03  0.00000000000E+00 0. -1.
         21    1    1    2  504  502  0.35423191335E+02  0.77934957211E+01  0.99922493306E+02  0.10630167322E+03  0.00000000000E+00 0. -1.
         21    1    1    2  505  501 -0.55451426840E+02  0.28053819361E+02  0.50498464173E+03  0.50879403092E+03  0.00000000000E+00 0. -1.
          2    1    1    2  501    0 -0.62411308906E+02  0.54035101965E+02  0.11081471889E+04  0.11112178706E+04  0.00000000000E+00 0. -1.
<scales pt_clust_3="139.45454" pt_clust_4="36.27039" pt_clust_5="34.85710" pt_clust_6="34.85710"></scales>
<clustering>
<clus scale="   34.857">  5  6 -1 -1</clus>
<clus scale="   36.270">  2  4  1 -1</clus>
<clus scale="  139.455">  2  3  1 -1</clus>
<clus scale="   36.270">  2  3  1 -1</clus>
</clustering>
</event>
<event>
 6    0  0.1849053E+002  0.6939891E+02  0.7546771E-02  0.1362149E+00
          1   -1    0    0  504    0 -0.00000000000E+00  0.00000000000E+00  0.76194854279E+03  0.76194854279E+03  0.00000000000E+00 0. -1.
         21   -1    0    0  505  502  0.00000000000E+00 -0.00000000000E+00 -0.65789103122E+03  0.65789103122E+03  0.00000000000E+00 0. -1.
         21    1    1    2  503  502 -0.25650003422E+02  0.16884935944E+02 -0.27558294868E+02  0.41261160350E+02  0.00000000000E+00 0. -1.
         21    1    1    2  504  503  0.13864165423E+02 -0.26824746360E+02  0.28218908885E+03  0.28380004222E+03  0.00000000000E+00 0. -1.
         21    1    1    2  505  501  0.77429993446E+02 -0.61853278904E+02 -0.61364654106E+03  0.62159738525E+03  0.00000000000E+00 0. -1.
          1    1    1    2  501    0 -0.65644155447E+02  0.71793089321E+02  0.46307325865E+03  0.47318098619E+03  0.00000000000E+00 0. -1.
<scales pt_clust_3="30.33278" pt_clust_4="30.19573" pt_clust_5="14000.00000" pt_clust_6="69.39891"></scales>
<clustering>
<clus scale="   30.196">  1  4  2 -1</clus>
<clus scale="   30.333">  2  3  1 -1</clus>
<clus scale="   69.399">  1  6  2 -1</clus>
<clus scale="   30.333">  2  3  1 -1</clus>
</clustering>
</event>
<event>
 6    0  0.1849053E+002  0.1173368E+03  0.7546771E-02  0.1247556E+00
          2   -1    0    0  503    0 -0.00000000000E+00  0.00000000000E+00  0.32332615623E+03  0.32332615623E+03  0.00000000000E+00 0.  1.
         21   -1    0    0  504  502  0.00000000000E+00 -0.00000000000E+00 -0.79208403781E+03  0.79208403781E+03  0.00000000000E+00 0.  1.
         21    1    1    2  503  502  0.43905585670E+02  0.62092919432E+02  0.23340240863E+03  0.24547895113E+03  0.00000000000E+00 0.  1.
         21    1    1    2  504  505  0.30521304014E+02 -0.49588091830E+02 -0.53120512042E+03  0.53438694670E+03  0.00000000000E+00 0.  1.
         21    1    1    2  505  501 -0.21476401280E+01 -0.53489198495E+02 -0.22836127862E+03  0.23455187121E+03  0.00000000000E+00 0.  1.
          2    1    1    2  501    0 -0.72279249556E+02  0.40984370894E+02  0.57406108835E+02  0.10099242499E+03  0.00000000000E+00 0.  1.
<scales pt_clust_3="76.04756" pt_clust_4="51.59709" pt_clust_5="51.59709" pt_clust_6="104.26947"></scales>
<clustering>
<clus scale="   51.597">  4  5 -1 -1</clus>
<clus scale="   76.048">  1  3  2 -1</clus>
<clus scale="  104.269">  1  6  2 -1</clus>
<clus scale="  117.337">  2  3  1 -1</clus>
</clustering>
</event>
<event>
 6    0  0.1849053E+002  0.3529789E+03  0.7546771E-02  0.1061399E+00
         21   -1    0    0  505  502  0.00000000000E+00  0.00000000000E+00  0.10083285703E+03  0.10083285703E+03  0.00000000000E+00 0.  1.
          1   -1    0    0  504    0 -0.00000000000E+00 -0.00000000000E+00 -0.12585554569E+04  0.12585554569E+04  0.00000000000E+00 0.  1.
         21    1    1    2  503  502 -0.26059327458E+03  0.11037026241E+03 -0.36151164079E+03  0.45910904588E+03  0.00000000000E+00 0.  1.
         21    1    1    2  504  503 -0.28806667673E+02  0.61764179935E+02 -0.11873096322E+03  0.13690025439E+03  0.00000000000E+00 0. -1.
         21    1    1    2  505  501  0.14867401662E+03 -0.10389570321E+03 -0.25538551528E+03  0.31324118787E+03  0.00000000000E+00 0.  1.
          1    1    1    2  501    0  0.14072592564E+03 -0.68238739135E+02 -0.42209448054E+03  0.45013782575E+03  0.00000000000E+00 0.  1.
<scales pt_clust_3="51.96074" pt_clust_4="51.96074" pt_clust_5="94.63282" pt_clust_6="351.80730"></scales>
<clustering>
<clus scale="   51.961">  3  4 -1 -1</clus>
<clus scale="   94.633">  5  6 -1 -1</clus>
<clus scale="  351.807">  2  5  1 -1</clus>
<clus scale="  352.979">  1  3  2 -1</clus>
</clustering>
</event>
<event>
 6    0  0.1849053E+002  0.1790915E+03  0.7546771E-02  0.1168685E+00
          3   -1    0    0  504    0 -0.00000000000E+00  0.00000000000E+00  0.29598634800E+03  0.29598634800E+03  0.00000000000E+00 0. -1.
         21   -1    0    0  501  502  0.00000000000E+00 -0.00000000000E+00 -0.16078165255E+04  0.16078165255E+04  0.00000000000E+00 0.  1.
         21    1    1    2  503  505 -0.39442440884E+02 -0.31683695724E+02 -0.37335173628E+03  0.37676396020E+03  0.00000000000E+00 0.  1.
         21    1    1    2  504  503  0.23122530995E+02 -0.21975475394E+02 -0.37830662336E+00  0.31901662563E+02  0.00000000000E+00 0. -1.
         21    1    1    2  505  502 -0.12765102430E+03 -0.68364019451E+01 -0.11910360153E+04  0.11978765839E+04  0.00000000000E+00 0.  1.
          3    1    1    2  501    0  0.14397093419E+03  0.60495573063E+02  0.25293588078E+03  0.29726066682E+03  0.00000000000E+00 0. -1.
<scales pt_clust_3="33.19465" pt_clust_4="31.89942" pt_clust_5="33.19465" pt_clust_6="171.15483"></scales>
<clustering>
<clus scale="   31.899">  1  4  2 -1</clus>
<clus scale="   33.195">  3  5 -1 -1</clus>
<clus scale="  171.155">  1  6  2 -1</clus>
<clus scale="  179.091">  2  3  1 -1</clus>
</clustering>
</event>
<event>
 6    0  0.1849053E+002  0.1161121E+03  0.7546771E-02  0.1249652E+00
         21   -1    0    0  505  502  0.00000000000E+00  0.00000000000E+00  0.89400562155E+03  0.89400562155E+03  0.00000000000E+00 0. -1.
          2   -1    0    0  503    0 -0.00000000000E+00 -0.00000000000E+00 -0.69581547487E+03  0.69581547487E+03  0.00000000000E+00 0.  1.
         21    1    1    2  503  504 -0.29575421013E+02  0.27734579678E+02 -0.59399978472E+02  0.71918494704E+02  0.00000000000E+00 0. -1.
         21    1    1    2  504  502 -0.20627378546E+02 -0.81655352273E+02  0.64615595148E+03  0.65162151509E+03  0.00000000000E+00 0. -1.
         21    1    1    2  505  501 -0.58600138628E+02 -0.43195027747E+01  0.22904460201E+03  0.23646154880E+03  0.00000000000E+00 0. -1.
          2    1    1    2  501    0  0.10880293819E+03  0.58240275370E+02 -0.61761042833E+03  0.62981953782E+03  0.00000000000E+00 0.  1.
<scales pt_clust_3="40.54519" pt_clust_4="116.11210" pt_clust_5="58.92097" pt_clust_6="14000.00000"></scales>
<clustering>
<clus scale="   40.545">  2  3  1 -1</clus>
<clus scale="   58.921">  1  5  2 -1</clus>
<clus scale="  116.112">  1  4  2 -1</clus>
<clus scale="   58.921">  1  3  2 -1</clus>
</clustering>
</event>
<event>
 6    0  0.1849053E+002  0.2474955E+03  0.7546771E-02  0.1114898E+00
         21   -1    0    0  503  502  0.00000000000E+00  0.00000000000E+00  0.77811810043E+02  0.77811810043E+02  0.00000000000E+00 0.  1.
          2   -1    0    0  504    0 -0.00000000000E+00 -0.00000000000E+00 -0.13669843147E+04  0.13669843147E+04  0.00000000000E+00 0.  1.
         21    1    1    2  503  501 -0.12733722643E+03  0.41727848705E+02 -0.23934897953E+03  0.27430624600E+03  0.00000000000E+00 0.  1.
         21    1    1    2  504  505  0.43803807582E+01  0.11081013779E+03 -0.24102651789E+03  0.26531463717E+03  0.00000000000E+00 0.  1.
         21    1    1    2  505  502  0.20794991938E+03 -0.17657042114E+03 -0.75252793621E+03  0.80044898487E+03  0.00000000000E+00 0.  1.
          2    1    1    2  501    0 -0.84993073707E+02  0.24032434640E+02 -0.56269071064E+02  0.10472625674E+03  0.00000000000E+00 0.  1.
<scales pt_clust_3="67.27833" pt_clust_4="110.89668" pt_clust_5="233.21015" pt_clust_6="67.27833"></scales>
<clustering>
<clus scale="   67.278">  3  6 -1 -1</clus>
<clus scale="  110.897">  2  4  1 -1</clus>
<clus scale="  233.210">  2  5  1 -1</clus>
<clus scale="  247.495">  1  3  2 -1</clus>
</clustering>
</event>
<event>
 6    0  0.1849053E+002  0.2938382E+03  0.7546771E-02  0.1088362E+00
         -4   -1    0    0    0  501 -0.00000000000E+00  0.00000000000E+00  0.14805130601E+04  0.14805130601E+04  0.00000000000E+00 0.  1.
         21   -1    0    0  501  502  0.00000000000E+00 -0.00000000000E+00 -0.20233153703E+03  0.20233153703E+03  0.00000000000E+00 0.  1.
         21    1    1    2  503  504  0.31314203536E+02 -0.15313819478E+03 -0.94288896699E+02  0.18254391824E+03  0.00000000000E+00 0.  1.
         21    1    1    2  504  502  0.11532868776E+02 -0.11770327730E+03  0.21429190703E+02  0.12019267350E+03  0.00000000000E+00 0. -1.
         21    1    1    2  505  503 -0.42124190055E+02  0.16792149494E+03  0.70658971474E+03  0.72748958812E+03  0.00000000000E+00 0.  1.
         -4    1    1    2    0  505 -0.72288225718E+00  0.10291997714E+03  0.64445151428E+03  0.65261841724E+03  0.00000000000E+00 0.  1.
<scales pt_clust_3="91.84987" pt_clust_4="91.84987" pt_clust_5="49.93763" pt_clust_6="281.75469"></scales>
<clustering>
<clus scale="   49.938">  5  6 -1 -1</clus>
<clus scale="   91.850">  3  4 -1 -1</clus>
<clus scale="  281.755">  1  5  2 -1</clus>
<clus scale="  293.838">  2  3  1 -1</clus>
</clustering>
</event>
<event>
 6    0  0.1849053E+002  0.6765861E+02  0.7546771E-02  0.1368241E+00
         21   -1    0    0  504  502  0.00000000000E+00  0.00000000000E+00  0.27096275820E+03  0.27096275820E+03  0.00000000000E+00 0.  1.
          1   -1    0    0  503    0 -0.00000000000E+00 -0.00000000000E+00 -0.48144738736E+03  0.48144738736E+03  0.00000000000E+00 0. -1.
         21    1    1    2  503  505  0.45562661418E+02  0.75133140589E+02 -0.17910645072E+03  0.19949953790E+03  0.00000000000E+00 0. -1.
         21    1    1    2  504  501 -0.56612471052E+02 -0.22858778232E+02  0.78219485207E+02  0.99225921446E+02  0.00000000000E+00 0.  1.
         21    1    1    2  505  502  0.74897805670E+02 -0.43750679735E+02  0.15702587928E+03  0.17939044020E+03  0.00000000000E+00 0.  1.
          1    1    1    2  501    0 -0.63847996036E+02 -0.85236826217E+01 -0.26662354292E+03  0.27429424602E+03  0.00000000000E+00 0. -1.
<scales pt_clust_3="67.65861" pt_clust_4="61.05322" pt_clust_5="14000.00000" pt_clust_6="65.65984"></scales>
<clustering>
<clus scale="   61.053">  1  4  2 -1</clus>
<clus scale="   65.660">  2  6  1 -1</clus>
<clus scale="   67.659">  2  3  1 -1</clus>
<clus scale="   61.053">  1  3  2 -1</clus>
</clustering>
</event>
<event>
 6    0  0.1849053E+002  0.2348056E+03  0.7546771E-02  0.1123302E+00
         21   -1    0    0  504  502  0.00000000000E+00  0.00000000000E+00  0.93319001156E+03  0.93319001156E+03  0.00000000000E+00 0.  1.
         -2   -1    0    0    0  501 -0.00000000000E+00 -0.00000000000E+00 -0.18104140702E+03  0.18104140702E+03  0.00000000000E+00 0. -1.
         21    1    1    2  503  505  0.73158533222E+02 -0.55647035336E+02 -0.13334201721E+01  0.91926827065E+02  0.00000000000E+00 0. -1.
         21    1    1    2  504  501 -0.96800145007E+01  0.58088730412E+02  0.46863706257E+03  0.47232266481E+03  0.00000000000E+00 0.  1.
         21    1    1    2  505  502 -0.19190726770E+03  0.70987405642E+02  0.33604127978E+03  0.39343532235E+03  0.00000000000E+00 0.  1.
         -2    1    1    2    0  503  0.12842874898E+03 -0.73429100718E+02 -0.51196317632E+02  0.15654660436E+03  0.00000000000E+00 0. -1.
<scales pt_clust_3="32.32348" pt_clust_4="58.88976" pt_clust_5="231.19709" pt_clust_6="32.32348"></scales>
<clustering>
<clus scale="   32.323">  3  6 -1 -1</clus>
<clus scale="   58.890">  1  4  2 -1</clus>
<clus scale="  231.197">  1  5  2 -1</clus>
<clus scale="   58.890">  1  3  2 -1</clus>
</clustering>
</event>
<event>
 6    0  0.1849053E+002  0.1181208E+03  0.7546771E-02  0.1246230E+00
          2   -1    0    0  504    0 -0.00000000000E+00  0.00000000000E+00  0.20284658571E+04  0.20284658571E+04  0.00000000000E+00 0. -1.
         21   -1    0    0  503  502  0.00000000000E+00 -0.00000000000E+00 -0.18094492910E+02  0.18094492910E+02  0.00000000000E+00 0. -1.
         21    1    1    2  503  505  0.49086618019E+02 -0.80609231735E+02  0.29003629663E+03  0.30500556990E+03  0.00000000000E+00 0. -1.
         21    1    1    2  504  502 -0.72997099277E+02  0.35058401874E+02  0.24165785137E+03  0.25486503325E+03  0.00000000000E+00 0. -1.
         21    1    1    2  505  501  0.17719097814E+02 -0.50336767758E+02  0.36578964368E+03  0.36966176438E+03  0.00000000000E+00 0.  1.
          2    1    1    2  501    0  0.61913834446E+01  0.95887597619E+02  0.11128875725E+04  0.11170279825E+04  0.00000000000E+00 0. -1.
<scales pt_clust_3="44.22134" pt_clust_4="80.97943" pt_clust_5="44.22134" pt_clust_6="102.44043"></scales>
<clustering>
<clus scale="   44.221">  3  5 -1 -1</clus>
<clus scale="   80.979">  2  4  1 -1</clus>
<clus scale="  102.440">  1  6  2 -1</clus>
<clus scale="   80.979">  2  3  1 -1</clus>
</clustering>
</event>
<event>
 6    0  0.1849053E+002  0.1782502E+03  0.7546771E-02  0.1169507E+00
          2   -1    0    0  503    0 -0.00000000000E+00  0.00000000000E+00  0.20899671324E+04  0.20899671324E+04  0.00000000000E+00 0. -1.
         21   -1    0    0  504  502  0.00000000000E+00 -0.00000000000E+00 -0.65340756411E+03  0.65340756411E+03  0.00000000000E+00 0.  1.
         21    1    1    2  503  502  0.13037817559E+03 -0.14652270467E+03 -0.49671916281E+03  0.53403866747E+03  0.00000000000E+00 0.  1.
         21    1    1    2  504  505  0.15132650668E+02  0.57307381132E+02 -0.12764159260E+03  0.14073204756E+03  0.00000000000E+00 0. -1.
         21    1    1    2  505  501 -0.42952994150E+02  0.27495469935E+02  0.92240044347E+03  0.92380925449E+03  0.00000000000E+00 0.  1.
          2    1    1    2  501    0 -0.10255783211E+03  0.61719853603E+02  0.11385198803E+04  0.11447947270E+04  0.00000000000E+00 0. -1.
<scales pt_clust_3="170.80996" pt_clust_4="59.27169" pt_clust_5="33.26470" pt_clust_6="33.26470"></scales>
<clustering>
<clus scale="   33.265">  5  6 -1 -1</clus>
<clus scale="   59.272">  2  4  1 -1</clus>
<clus scale="  170.810">  2  3  1 -1</clus>
<clus scale="   59.272">  2  3  1 -1</clus>
</clustering>
</event>
<event>
 6    0  0.1849053E+002  0.2678406E+03  0.7546771E-02  0.1102522E+00
         21   -1    0    0  503  502  0.00000000000E+00  0.00000000000E+00  0.10837610196E+04  0.10837610196E+04  0.00000000000E+00 0.  1.
         -3   -1    0    0    0  501 -0.00000000000E+00 -0.00000000000E+00 -0.17199411836E+03  0.17199411836E+03  0.00000000000E+00 0. -1.
         21    1    1    2  503  504 -0.15252941157E+02  0.27463941284E+02  0.12738181345E+03  0.13119850107E+03  0.00000000000E+00 0.  1.
         21    1    1    2  504  505 -0.22187305084E+02  0.33605535229E+02  0.42810118090E+02  0.58773418445E+02  0.00000000000E+00 0. -1.
         21    1    1    2  505  501  0.27089236027E+03  0.68932153668E+02  0.74797401184E+03  0.79849823735E+03  0.00000000000E+00 0.  1.
         -3    1    1    2    0  502 -0.23345211403E+03 -0.13000163018E+03 -0.63990421141E+01  0.26728498113E+03  0.00000000000E+00 0. -1.
<scales pt_clust_3="31.41529" pt_clust_4="41.93625" pt_clust_5="14000.00000" pt_clust_6="267.84058"></scales>
<clustering>
<clus scale="   31.415">  1  3  2 -1</clus>
<clus scale="   41.936">  1  4  2 -1</clus>
<clus scale="  267.841">  2  6  1 -1</clus>
<clus scale="   31.415">  1  3  2 -1</clus>
</clustering>
</event>
<event>
 6    0  0.1849053E+002  0.1909017E+03  0.7546771E-02  0.1157651E+00
          2   -1    0    0  505    0 -0.00000000000E+00  0.00000000000E+00  0.11497072105E+04  0.11497072105E+04  0.00000000000E+00 0.  1.
         21   -1    0    0  503  502  0.00000000000E+00 -0.00000000000E+00 -0.24460524708E+03  0.24460524708E+03  0.00000000000E+00 0. -1.
         21    1    1    2  503  504  0.20181293209E+02 -0.59881850716E+02 -0.35709264411E+02  0.72582864407E+02  0.00000000000E+00 0. -1.
         21    1    1    2  504  501  0.17321985874E+03  0.54020833411E+02 -0.13404571338E+03  0.22559171789E+03  0.00000000000E+00 0. -1.
         21    1    1    2  505  502 -0.18972703427E+02  0.32257912711E+02  0.14934849812E+03  0.15396593876E+03  0.00000000000E+00 0.  1.
          2    1    1    2  501    0 -0.17442844852E+03 -0.26396895406E+02  0.92550844306E+03  0.94217193649E+03  0.00000000000E+00 0.  1.
<scales pt_clust_3="62.51468" pt_clust_4="190.90170" pt_clust_5="37.42374" pt_clust_6="14000.00000"></scales>
<clustering>
<clus scale="   37.424">  1  5  2 -1</clus>
<clus scale="   62.515">  2  3  1 -1</clus>
<clus scale="  190.902">  2  4  1 -1</clus>
<clus scale="   62.515">  2  3  1 -1</clus>
</clustering>
</event>
<event>
 6    0  0.1849053E+002  0.1280857E+03  0.7546771E-02  0.1230324E+00
          2   -1    0    0  505    0 -0.00000000000E+00  0.00000000000E+00  0.22446838207E+03  0.22446838207E+03  0.00000000000E+00 0. -1.
         21   -1    0    0  504  502  0.00000000000E+00 -0.00000000000E+00 -0.11127561706E+04  0.11127561706E+04  0.00000000000E+00 0.  1.
         21    1    1    2  503  502  0.60074871256E+02  0.33000243309E+02 -0.12340467469E+02  0.69644047500E+02  0.00000000000E+00 0. -1.
         21    1    1    2  504  501 -0.12806866171E+03 -0.13364853852E+02 -0.10252578384E+04  0.10333120713E+04  0.00000000000E+00 0.  1.
         21    1    1    2  505  503 -0.32265394973E+02  0.39432242487E+01 -0.18478231241E+02  0.37390503608E+02  0.00000000000E+00 0. -1.
          2    1    1    2  501    0  0.10025918542E+03 -0.23578613706E+02  0.16778874858E+03  0.19687793029E+03  0.00000000000E+00 0. -1.
<scales pt_clust_3="65.07577" pt_clust_4="128.08566" pt_clust_5="32.50546" pt_clust_6="14000.00000"></scales>
<clustering>
<clus scale="   32.505">  1  5  2 -1</clus>
<clus scale="   65.076">  1  3  2 -1</clus>
<clus scale="  128.086">  2  4  1 -1</clus>
<clus scale="  128.086">  2  3  1 -1</clus>
</clustering>
</event>
<event>
 6    0  0.1849053E+002  0.1299651E+03  0.7546771E-02  0.1227508E+00
         21   -1    0    0  505  502  0.00000000000E+00  0.00000000000E+00  0.22900760598E+03  0.22900760598E+03  0.00000000000E+00 0. -1.
          1   -1    0    0  504    0 -0.00000000000E+00 -0.00000000000E+00 -0.60897634480E+03  0.60897634480E+03  0.00000000000E+00 0.  1.
         21    1    1    2  503  501 -0.91423483641E+02  0.65838456961E+02 -0.39683570926E+03  0.41251852797E+03  0.00000000000E+00 0.  1.
         21    1    1    2  504  502  0.92899607313E+01 -0.36171617482E+02  0.17248926347E+02  0.41136537795E+02  0.00000000000E+00 0.  1.
         21    1    1    2  505  503  0.69257670472E+02 -0.72330536293E+02  0.17595050009E+03  0.20245224099E+03  0.00000000000E+00 0. -1.
          1    1    1    2  501    0  0.12875852438E+02  0.42663696814E+02 -0.17633245600E+03  0.18187664403E+03  0.00000000000E+00 0.  1.
<scales pt_clust_3="129.96511" pt_clust_4="37.34554" pt_clust_5="14000.00000" pt_clust_6="44.12196"></scales>
<clustering>
<clus scale="   37.346">  1  4  2 -1</clus>
<clus scale="   44.122">  2  6  1 -1</clus>
<clus scale="  129.965">  2  3  1 -1</clus>
<clus scale="   37.346">  1  3  2 -1</clus>
</clustering>
</event>
<event>
 6    0  0.1849053E+002  0.1375043E+03  0.7546771E-02  0.1216727E+00
         21   -1    0    0  505  502  0.00000000000E+00  0.00000000000E+00  0.20788246249E+03  0.20788246249E+03  0.00000000000E+00 0. -1.
          4   -1    0    0  503    0 -0.00000000000E+00 -0.00000000000E+00 -0.13816286668E+03  0.13816286668E+03  0.00000000000E+00 0. -1.
         21    1    1    2  503  502 -0.34201054308E+02 -0.11359925356E+01  0.51661058033E+01  0.34607676085E+02  0.00000000000E+00 0. -1.
         21    1    1    2  504  501  0.45666900051E+02 -0.14547085805E+02  0.28614547559E+02  0.55820030434E+02  0.00000000000E+00 0. -1.
         21    1    1    2  505  504  0.54926992863E+02 -0.77056975650E+02  0.88924656452E+02  0.12985509835E+03  0.00000000000E+00 0. -1.
          4    1    1    2  501    0 -0.66392838606E+02  0.92740053991E+02 -0.52985714002E+02  0.12576252431E+03  0.00000000000E+00 0. -1.
<scales pt_clust_3="34.21992" pt_clust_4="32.99398" pt_clust_5="32.99398" pt_clust_6="129.45296"></scales>
<clustering>
<clus scale="   32.994">  4  5 -1 -1</clus>
<clus scale="   34.220">  2  3  1 -1</clus>
<clus scale="  129.453">  2  6  1 -1</clus>
<clus scale="  137.504">  1  3  2 -1</clus>
</clustering>
</event>
<event>
 6    0  0.1849053E+002  0.8279719E+02  0.7546771E-02  0.1321296E+00
          1   -1    0    0  503    0 -0.00000000000E+00  0.00000000000E+00  0.19213274372E+04  0.19213274372E+04  0.00000000000E+00 0.  1.
         21   -1    0    0  504  502  0.00000000000E+00 -0.00000000000E+00 -0.17480896380E+02  0.17480896380E+02  0.00000000000E+00 0. -1.
         21    1    1    2  503  505 -0.43210235264E+02  0.21303372015E+02  0.77613734517E+03  0.77763110577E+03  0.00000000000E+00 0.  1.
         21    1    1    2  504  501 -0.38024756493E+02  0.60957030038E+02  0.21025056171E+03  0.22218672399E+03  0.00000000000E+00 0. -1.
         21    1    1    2  505  502  0.96814928048E+02 -0.42344716177E+02  0.26741312014E+03  0.28753431466E+03  0.00000000000E+00 0. -1.
          1    1    1    2  501    0 -0.15579936290E+02 -0.39915685876E+02  0.65004551375E+03  0.65145618912E+03  0.00000000000E+00 0.  1.
<scales pt_clust_3="52.82766" pt_clust_4="14000.00000" pt_clust_5="82.79719" pt_clust_6="42.84853"></scales>
<clustering>
<clus scale="   42.849">  1  6  2 -1</clus>
<clus scale="   52.828">  1  3  2 -1</clus>
<clus scale="   82.797">  1  5  2 -1</clus>
<clus scale="   82.797">  2  3  1 -1</clus>
</clustering>
</event>
<event>
 6    0  0.1849053E+002  0.1386534E+03  0.7546771E-02  0.1215152E+00
         21   -1    0    0  504  502  0.00000000000E+00  0.00000000000E+00  0.91964172186E+03  0.91964172186E+03  0.00000000000E+00 0.  1.
          1   -1    0    0  503    0 -0.00000000000E+00 -0.00000000000E+00 -0.23795658813E+03  0.23795658813E+03  0.00000000000E+00 0.  1.
         21    1    1    2  503  505  0.34643220614E+02  0.37675976562E+00  0.14933440643E+02  0.37726679311E+02  0.00000000000E+00 0.  1.
         21    1    1    2  504  501  0.11297597585E+03 -0.10489577052E+03  0.75123332413E+03  0.76688864973E+03  0.00000000000E+00 0.  1.
         21    1    1    2  505  502 -0.30336427883E+02 -0.41600640462E+01  0.10248927980E+03  0.10696568358E+03  0.00000000000E+00 0. -1.
          1    1    1    2  501    0 -0.11728276858E+03  0.10867907480E+03 -0.18697091084E+03  0.24601729737E+03  0.00000000000E+00 0.  1.
<scales pt_clust_3="33.66392" pt_clust_4="14000.00000" pt_clust_5="30.62034" pt_clust_6="138.65343"></scales>
<clustering>
<clus scale="   30.620">  1  5  2 -1</clus>
<clus scale="   33.664">  2  3  1 -1</clus>
<clus scale="  138.653">  2  6  1 -1</clus>
<clus scale="   30.620">  1  3  2 -1</clus>
</clustering>
</event>
<event>
 6    0  0.1849053E+002  0.1746805E+03  0.7546771E-02  0.1173053E+00
         -1   -1    0    0    0  501 -0.00000000000E+00  0.00000000000E+00  0.53843918656E+03  0.53843918656E+03  0.00000000000E+00 0.  1.
         21   -1    0    0  501  502  0.00000000000E+00 -0.00000000000E+00 -0.48766543441E+03  0.48766543441E+03  0.00000000000E+00 0.  1.
         21    1    1    2  503  504  0.11676464854E+03 -0.18140281401E+02 -0.23910810372E+03  0.26671283850E+03  0.00000000000E+00 0.  1.
         21    1    1    2  504  502  0.30197381853E+02 -0.61024433770E+02 -0.21429032330E+03  0.22484707258E+03  0.00000000000E+00 0.  1.
         21    1    1    2  505  503 -0.85902367525E+02  0.22392264226E+02  0.19371741070E+03  0.21308933678E+03  0.00000000000E+00 0. -1.
         -1    1    1    2    0  505 -0.61059662868E+02  0.56772450945E+02  0.31045476848E+03  0.32145537309E+03  0.00000000000E+00 0.  1.
<scales pt_clust_3="163.79775" pt_clust_4="68.08717" pt_clust_5="58.81826" pt_clust_6="58.81826"></scales>
<clustering>
<clus scale="   58.818">  5  6 -1 -1</clus>
<clus scale="   68.087">  2  4  1 -1</clus>
<clus scale="  163.798">  2  3  1 -1</clus>
<clus scale="   68.087">  2  3  1 -1</clus>
</clustering>
</event>
<event>
 6    0  0.1849053E+002  0.1451960E+03  0.7546771E-02  0.1206504E+00
          2   -1    0    0  504    0 -0.00000000000E+00  0.00000000000E+00  0.13242385963E+04  0.13242385963E+04  0.00000000000E+00 0. -1.
         21   -1    0    0  503  502  0.00000000000E+00 -0.00000000000E+00 -0.89634534524E+02  0.89634534524E+02  0.00000000000E+00 0.  1.
         21    1    1    2  503  501  0.41649074393E+02  0.22048715556E+02  0.65479653009E+02  0.80674507830E+02  0.00000000000E+00 0.  1.
         21    1    1    2  504  505  0.34915159326E+02 -0.27428558980E+02  0.19856433516E+03  0.20346790753E+03  0.00000000000E+00 0.  1.
         21    1    1    2  505  502 -0.18851935153E+03 -0.13066239360E+02  0.41124154391E+02  0.19339459296E+03  0.00000000000E+00 0.  1.
          2    1    1    2  501    0  0.11195511781E+03  0.18446082784E+02  0.92943591923E+03  0.93633612251E+03  0.00000000000E+00 0. -1.
<scales pt_clust_3="48.37006" pt_clust_4="44.40039" pt_clust_5="145.19597" pt_clust_6="14000.00000"></scales>
<clustering>
<clus scale="   44.400">  1  4  2 -1</clus>
<clus scale="   48.370">  2  3  1 -1</clus>
<clus scale="  145.196">  2  5  1 -1</clus>
<clus scale="   48.370">  2  3  1 -1</clus>
</clustering>
</event>
<event>
 6    0  0.1849053E+002  0.1470057E+03  0.7546771E-02  0.1204201E+00
         21   -1    0    0  501  502  0.00000000000E+00  0.00000000000E+00  0.22787532833E+03  0.22787532833E+03  0.00000000000E+00 0. -1.
          2   -1    0    0  503    0 -0.00000000000E+00 -0.00000000000E+00 -0.81141564695E+03  0.81141564695E+03  0.00000000000E+00 0.  1.
         21    1    1    2  503  505 -0.27281427749E+02 -0.17515105838E+02 -0.12243981319E+03  0.12665924003E+03  0.00000000000E+00 0.  1.
         21    1    1    2  504  502 -0.14438213994E+03  0.31420659073E+02  0.17308681785E+03  0.22757967102E+03  0.00000000000E+00 0. -1.
         21    1    1    2  505  504  0.28666979679E+02 -0.60558041588E+02 -0.55094809959E+02  0.86743934712E+02  0.00000000000E+00 0. -1.
          2    1    1    2  501    0  0.14299658801E+03  0.46652488353E+02 -0.57909251332E+03  0.59830812951E+03  0.00000000000E+00 0.  1.
<scales pt_clust_3="32.41998" pt_clust_4="147.00567" pt_clust_5="67.51155" pt_clust_6="14000.00000"></scales>
<clustering>
<clus scale="   32.420">  2  3  1 -1</clus>
<clus scale="   67.512">  2  5  1 -1</clus>
<clus scale="  147.006">  1  4  2 -1</clus>
<clus scale="  147.006">  1  3  2 -1</clus>
</clustering>
</event>
<event>
 6    0  0.1849053E+002  0.8601096E+02  0.7546771E-02  0.1312810E+00
         -1   -1    0    0    0  501 -0.00000000000E+00  0.00000000000E+00  0.10385741359E+04  0.10385741359E+04  0.00000000000E+00 0.  1.
         21   -1    0    0  504  502  0.00000000000E+00 -0.00000000000E+00 -0.12598675701E+03  0.12598675701E+03  0.00000000000E+00 0.  1.
         21    1    1    2  503  505  0.25505610568E+02  0.33034528490E+02 -0.62689927015E+02  0.75311640483E+02  0.00000000000E+00 0.  1.
         21    1    1    2  504  501  0.65230296273E+02 -0.34686022208E+02  0.25372312675E+03  0.26426035786E+03  0.00000000000E+00 0.  1.
         21    1    1    2  505  502 -0.70635577550E+01  0.42505049222E+02 -0.39383787605E+02  0.58375129838E+02  0.00000000000E+00 0.  1.
         -1    1    1    2    0  503 -0.83672349086E+02 -0.40853555504E+02  0.76093796675E+03  0.76661376471E+03  0.00000000000E+00 0.  1.
<scales pt_clust_3="36.91344" pt_clust_4="73.87903" pt_clust_5="36.91344" pt_clust_6="77.40228"></scales>
<clustering>
<clus scale="   36.913">  3  5 -1 -1</clus>
<clus scale="   73.879">  1  4  2 -1</clus>
<clus scale="   77.402">  1  6  2 -1</clus>
<clus scale="   86.011">  2  3  1 -1</clus>
</clustering>
</event>
<event>
 6    0  0.1849053E+002  0.2176791E+03  0.7546771E-02  0.1135625E+00
         21   -1    0    0  503  502  0.00000000000E+00  0.00000000000E+00  0.49844381766E+03  0.49844381766E+03  0.00000000000E+00 0.  1.
          1   -1    0    0  504    0 -0.00000000000E+00 -0.00000000000E+00 -0.65900604723E+03  0.65900604723E+03  0.00000000000E+00 0. -1.
         21    1    1    2  503  505 -0.51374505479E+02 -0.91893976837E+02  0.62589526789E+02  0.12247976019E+03  0.00000000000E+00 0.  1.
         21    1    1    2  504  502 -0.93584677119E+02 -0.71284333135E+02  0.37696037421E+03  0.39489070851E+03  0.00000000000E+00 0.  1.
         21    1    1    2  505  501  0.10428873884E+03  0.10321262957E+03 -0.45152772742E+03  0.47476970900E+03  0.00000000000E+00 0. -1.
          1    1    1    2  501    0  0.40670443755E+02  0.59965680406E+02 -0.14858440315E+03  0.16530968720E+03  0.00000000000E+00 0. -1.
<scales pt_clust_3="105.27983" pt_clust_4="213.20751" pt_clust_5="30.84570" pt_clust_6="30.84570"></scales>
<clustering>
<clus scale="   30.846">  5  6 -1 -1</clus>
<clus scale="  105.280">  1  3  2 -1</clus>
<clus scale="  213.208">  1  4  2 -1</clus>
<clus scale="  105.280">  1  3  2 -1</clus>
</clustering>
</event>
<event>
 6    0  0.1849053E+002  0.1112963E+03  0.7546771E-02  0.1258188E+00
          2   -1    0    0  502    0 -0.00000000000E+00  0.00000000000E+00  0.26289784154E+04  0.26289784154E+04  0.00000000000E+00 0.  1.
         21   -1    0    0  505  502  0.00000000000E+00 -0.00000000000E+00 -0.22966912574E+02  0.22966912574E+02  0.00000000000E+00 0.  1.
         21    1    1    2  503  501 -0.58525001824E+02  0.47254987787E+02  0.75473082765E+03  0.75847006000E+03  0.00000000000E+00 0.  1.
         21    1    1    2  504  503  0.69341318841E+02 -0.18387312202E+02  0.12479833715E+03  0.14394768739E+03  0.00000000000E+00 0.  1.
         21    1    1    2  505  504  0.40331840990E+02  0.79179512384E+01  0.27670851639E+02  0.49548232863E+02  0.00000000000E+00 0.  1.
          2    1    1    2  501    0 -0.51148158007E+02 -0.36785626823E+02  0.16988114864E+04  0.16999793477E+04  0.00000000000E+00 0.  1.
<scales pt_clust_3="101.64084" pt_clust_4="34.32167" pt_clust_5="34.32167" pt_clust_6="63.00251"></scales>
<clustering>
<clus scale="   34.322">  4  5 -1 -1</clus>
<clus scale="   63.003">  1  6  2 -1</clus>
<clus scale="  101.641">  1  3  2 -1</clus>
<clus scale="  111.296">  2  3  1 -1</clus>
</clustering>
</event>
<event>
 6    0  0.1849053E+002  0.1512110E+03  0.7546771E-02  0.1198993E+00
         21   -1    0    0  504  502  0.00000000000E+00  0.00000000000E+00  0.29357178041E+03  0.29357178041E+03  0.00000000000E+00 0.  1.
          2   -1    0    0  505    0 -0.00000000000E+00 -0.00000000000E+00 -0.12981180508E+04  0.12981180508E+04  0.00000000000E+00 0. -1.
         21    1    1    2  503  502 -0.12720436137E+03  0.13532506712E+03  0.18626038502E+03  0.26303375139E+03  0.00000000000E+00 0.  1.
         21    1    1    2  504  501  0.96071850012E+02 -0.55102741122E+02  0.14387942999E+02  0.11168314711E+03  0.00000000000E+00 0.  1.
         21    1    1    2  505  503  0.74079241464E+02  0.22772312253E+01 -0.44827936466E+03  0.45436473078E+03  0.00000000000E+00 0.  1.
          2    1    1    2  501    0 -0.42946730106E+02 -0.82499557222E+02 -0.75691523371E+03  0.76260820189E+03  0.00000000000E+00 0. -1.
<scales pt_clust_3="14000.00000" pt_clust_4="151.21096" pt_clust_5="74.11423" pt_clust_6="83.82335"></scales>
<clustering>
<clus scale="   74.114">  2  5  1 -1</clus>
<clus scale="   83.823">  2  6  1 -1</clus>
<clus scale="  151.211">  2  4  1 -1</clus>
<clus scale="  151.211">  1  3  2 -1</clus>
</clustering>
</event>
<event>
 6    0  0.1849053E+002  0.1755564E+03  0.7546771E-02  0.1172174E+00
         21   -1    0    0  504  502  0.00000000000E+00  0.00000000000E+00  0.14632964828E+03  0.14632964828E+03  0.00000000000E+00 0. -1.
          1   -1    0    0  505    0 -0.00000000000E+00 -0.00000000000E+00 -0.15505196594E+04  0.15505196594E+04  0.00000000000E+00 0.  1.
         21    1    1    2  503  501  0.33494224881E+02  0.57100234621E+02  0.39804103774E+02  0.77244200892E+02  0.00000000000E+00 0. -1.
         21    1    1    2  504  503  0.94584270886E+02  0.52890791982E+02  0.41638105019E+02  0.11609199785E+03  0.00000000000E+00 0. -1.
         21    1    1    2  505  502 -0.28357601166E+02  0.39199347252E+02 -0.43299162918E+03  0.43568623264E+03  0.00000000000E+00 0. -1.
          1    1    1    2  501    0 -0.99720894601E+02 -0.14919037386E+03 -0.10526405908E+04  0.10678268763E+04  0.00000000000E+00 0.  1.
<scales pt_clust_3="37.02365" pt_clust_4="37.02365" pt_clust_5="48.38122" pt_clust_6="169.04477"></scales>
<clustering>
<clus scale="   37.024">  3  4 -1 -1</clus>
<clus scale="   48.381">  2  5  1 -1</clus>
<clus scale="  169.045">  2  6  1 -1</clus>
<clus scale="  175.556">  1  3  2 -1</clus>
</clustering>
</event>
<event>
 6    0  0.1849053E+002  0.1604218E+03  0.7546771E-02  0.1188221E+00
          2   -1    0    0  502    0 -0.00000000000E+00  0.00000000000E+00  0.14809472102E+04  0.14809472102E+04  0.00000000000E+00 0. -1.
         21   -1    0    0  505  502  0.00000000000E+00 -0.00000000000E+00 -0.11365280588E+03  0.11365280588E+03  0.00000000000E+00 0. -1.
         21    1    1    2  503  501  0.35114826045E+02 -0.66706162931E+02  0.85815261910E+03  0.86145730065E+03  0.00000000000E+00 0. -1.
         21    1    1    2  504  503 -0.88296609607E+02  0.88053666695E+02 -0.67152101626E+01  0.12487927584E+03  0.00000000000E+00 0. -1.
         21    1    1    2  505  504  0.12606858200E+02  0.49683981743E+02 -0.27919080250E+02  0.58368707006E+02  0.00000000000E+00 0. -1.
          2    1    1    2  501    0  0.40574925362E+02 -0.71031485506E+02  0.54377607558E+03  0.54989473254E+03  0.00000000000E+00 0. -1.
<scales pt_clust_3="40.83958" pt_clust_4="154.67793" pt_clust_5="51.25847" pt_clust_6="40.83958"></scales>
<clustering>
<clus scale="   40.840">  3  6 -1 -1</clus>
<clus scale="   51.258">  2  5  1 -1</clus>
<clus scale="  154.678">  2  4  1 -1</clus>
<clus scale="   51.258">  2  3  1 -1</clus>
</clustering>
</event>
<event>
 6    0  0.1849053E+002  0.1276657E+03  0.7546771E-02  0.1230961E+00
          2   -1    0    0  505    0 -0.00000000000E+00  0.00000000000E+00  0.11909407240E+04  0.11909407240E+04  0.00000000000E+00 0.  1.
         21   -1    0    0  503  502  0.00000000000E+00 -0.00000000000E+00 -0.13862249445E+03  0.13862249445E+03  0.00000000000E+00 0. -1.
         21    1    1    2  503  504 -0.75748116213E+02 -0.89480465002E+02 -0.10543781951E+03  0.15767582094E+03  0.00000000000E+00 0. -1.
         21    1    1    2  504  501  0.39188251298E+02  0.30357881302E+02  0.36837322055E+03  0.37169362331E+03  0.00000000000E+00 0. -1.
         21    1    1    2  505  502  0.31357699868E+02  0.18297795688E+01  0.53306224053E+02  0.61872505663E+02  0.00000000000E+00 0.  1.
          2    1    1    2  501    0  0.52021650472E+01  0.57292804131E+02  0.73607660451E+03  0.73832126858E+03  0.00000000000E+00 0.  1.
<scales pt_clust_3="116.73914" pt_clust_4="49.39198" pt_clust_5="31.41104" pt_clust_6="49.39198"></scales>
<clustering>
<clus scale="   31.411">  1  5  2 -1</clus>
<clus scale="   49.392">  4  6 -1 -1</clus>
<clus scale="  116.739">  2  3  1 -1</clus>
<clus scale="  116.739">  2  3  1 -1</clus>
</clustering>
</event>
<event>
 6    0  0.1849053E+002  0.1366232E+03  0.7546771E-02  0.1217946E+00
          4   -1    0    0  505    0 -0.00000000000E+00  0.00000000000E+00  0.95797671623E+03  0.95797671623E+03  0.00000000000E+00 0.  1.
         21   -1    0    0  504  502  0.00000000000E+00 -0.00000000000E+00 -0.12671532073E+03  0.12671532073E+03  0.00000000000E+00 0. -1.
         21    1    1    2  503  502 -0.52186537049E+02  0.48890426970E+02  0.80436269397E+01  0.71961159196E+02  0.00000000000E+00 0.  1.
         21    1    1    2  504  501 -0.41595780122E+02  0.59596852564E+02 -0.70931254234E+02  0.10155410670E+03  0.00000000000E+00 0. -1.
         21    1    1    2  505  503 -0.20130359825E+02 -0.24122904581E+02  0.11379840993E+03  0.11805602066E+03  0.00000000000E+00 0.  1.
          4    1    1    2  501    0  0.11391267700E+03 -0.84364374953E+02  0.78035061286E+03  0.79312075041E+03  0.00000000000E+00 0.  1.
<scales pt_clust_3="71.44015" pt_clust_4="136.62324" pt_clust_5="31.41888" pt_clust_6="14000.00000"></scales>
<clustering>
<clus scale="   31.419">  1  5  2 -1</clus>
<clus scale="   71.440">  2  3  1 -1</clus>
<clus scale="  136.623">  2  4  1 -1</clus>
<clus scale="   71.440">  2  3  1 -1</clus>
</clustering>
</event>
<event>
 6    0  0.1849053E+002  0.1445149E+03  0.7546771E-02  0.1207380E+00
         21   -1    0    0  504  502  0.00000000000E+00  0.00000000000E+00  0.46470290592E+02  0.46470290592E+02  0.00000000000E+00 0. -1.
          1   -1    0    0  505    0 -0.00000000000E+00 -0.00000000000E+00 -0.24012551131E+04  0.24012551131E+04  0.00000000000E+00 0. -1.
         21    1    1    2  503  502 -0.31798881224E+02 -0.76904251998E+01 -0.69938823457E+02  0.77212372800E+02  0.00000000000E+00 0. -1.
         21    1    1    2  504  501  0.31295000707E+02  0.54941682290E+02 -0.88996005304E+02  0.10917075837E+03  0.00000000000E+00 0. -1.
         21    1    1    2  505  503  0.14164495188E+03 -0.74420325584E+02 -0.18185496517E+03  0.24222490708E+03  0.00000000000E+00 0. -1.
          1    1    1    2  501    0 -0.14114107137E+03  0.27169068494E+02 -0.20139950286E+04  0.20191173655E+04  0.00000000000E+00 0. -1.
<scales pt_clust_3="32.71562" pt_clust_4="58.22025" pt_clust_5="14000.00000" pt_clust_6="144.51491"></scales>
<clustering>
<clus scale="   32.716">  1  3  2 -1</clus>
<clus scale="   58.220">  1  4  2 -1</clus>
<clus scale="  144.515">  2  6  1 -1</clus>
<clus scale="   32.716">  1  3  2 -1</clus>
</clustering>
</event>
<event>
 6    0  0.1849053E+002  0.1135402E+03  0.7546771E-02  0.1254151E+00
         21   -1    0    0  504  502  0.00000000000E+00  0.00000000000E+00  0.10866196402E+03  0.10866196402E+03  0.00000000000E+00 0.  1.
          2   -1    0    0  505    0 -0.00000000000E+00 -0.00000000000E+00 -0.12120660212E+04  0.12120660212E+04  0.00000000000E+00 0.  1.
         21    1    1    2  503  502 -0.36107026744E+02  0.12177218218E+02 -0.17329166150E+02  0.41860506725E+02  0.00000000000E+00 0.  1.
         21    1    1    2  504  501 -0.63598472030E+02 -0.41145561165E+02  0.65516283073E+02  0.10015041785E+03  0.00000000000E+00 0.  1.
         21    1    1    2  505  503 -0.10354567408E+02  0.65818671139E+02 -0.96534306308E+02  0.11729529757E+03  0.00000000000E+00 0.  1.
          2    1    1    2  501    0  0.11006006618E+03 -0.36850328192E+02 -0.10550568678E+04  0.10614217631E+04  0.00000000000E+00 0.  1.
<scales pt_clust_3="38.10514" pt_clust_4="113.54021" pt_clust_5="68.62428" pt_clust_6="14000.00000"></scales>
<clustering>
<clus scale="   38.105">  1  3  2 -1</clus>
<clus scale="   68.624">  1  5  2 -1</clus>
<clus scale="  113.540">  1  4  2 -1</clus>
<clus scale="   38.105">  1  3  2 -1</clus>
</clustering>
</event>
<event>
 6    0  0.1849053E+002  0.8602817E+02  0.7546771E-02  0.1312765E+00
         21   -1    0    0  503  502  0.00000000000E+00  0.00000000000E+00  0.26607197930E+04  0.26607197930E+04  0.00000000000E+00 0. -1.
          2   -1    0    0  504    0 -0.00000000000E+00 -0.00000000000E+00 -0.13254019812E+04  0.13254019812E+04  0.00000000000E+00 0. -1.
         21    1    1    2  503  501  0.43796654633E+02 -0.25389243043E+02  0.25522564742E+04  0.25527584826E+04  0.00000000000E+00 0. -1.
         21    1    1    2  504  505  0.78465130756E+01 -0.45146196882E+02 -0.51998003358E+03  0.52199519364E+03  0.00000000000E+00 0. -1.
         21    1    1    2  505  502  0.30840116791E+02 -0.17261277193E+02  0.99634890952E+02  0.10571743465E+03  0.00000000000E+00 0.  1.
          2    1    1    2  501    0 -0.82483284499E+02  0.87796717117E+02 -0.79659351965E+03  0.80565066332E+03  0.00000000000E+00 0. -1.
<scales pt_clust_3="86.02817" pt_clust_4="45.83177" pt_clust_5="35.34211" pt_clust_6="14000.00000"></scales>
<clustering>
<clus scale="   35.342">  1  5  2 -1</clus>
<clus scale="   45.832">  2  4  1 -1</clus>
<clus scale="   86.028">  1  3  2 -1</clus>
<clus scale="   35.342">  1  3  2 -1</clus>
</clustering>
</event>
<event>
 6    0  0.1849053E+002  0.5189727E+03  0.7546771E-02  0.1008942E+00
         21   -1    0    0  501  502  0.00000000000E+00  0.00000000000E+00  0.30231885244E+04  0.30231885244E+04  0.00000000000E+00 0. -1.
          1   -1    0    0  504    0 -0.00000000000E+00 -0.00000000000E+00 -0.88471577389E+03  0.88471577389E+03  0.00000000000E+00 0.  1.
         21    1    1    2  503  505  0.36091738086E+03 -0.15021084153E+03  0.20649236439E+04  0.21016027949E+04  0.00000000000E+00 0. -1.
         21    1    1    2  504  503  0.12695528785E+03 -0.87460702475E+02  0.78124197296E+03  0.79630775452E+03  0.00000000000E+00 0.  1.
         21    1    1    2  505  502 -0.44256759845E+02 -0.25249426776E+02  0.64033517984E+02  0.81832058326E+02  0.00000000000E+00 0. -1.
          1    1    1    2  501    0 -0.44361590887E+03  0.26292097078E+03 -0.77172638431E+03  0.92816169050E+03  0.00000000000E+00 0.  1.
<scales pt_clust_3="32.74736" pt_clust_4="32.74736" pt_clust_5="50.95286" pt_clust_6="516.34616"></scales>
<clustering>
<clus scale="   32.747">  3  4 -1 -1</clus>
<clus scale="   50.953">  1  5  2 -1</clus>
<clus scale="  516.346">  2  6  1 -1</clus>
<clus scale="   50.953">  1  3  2 -1</clus>
</clustering>
</event>
<event>
 6    0  0.1849053E+002  0.1307059E+03  0.7546771E-02  0.1226412E+00
          1   -1    0    0  505    0 -0.00000000000E+00  0.00000000000E+00  0.81095346199E+03  0.81095346199E+03  0.00000000000E+00 0. -1.
         21   -1    0    0  504  502  0.00000000000E+00 -0.00000000000E+00 -0.41458329127E+03  0.41458329127E+03  0.00000000000E+00 0.  1.
         21    1    1    2  503  501  0.20843613234E+02 -0.45214208507E+02  0.37526308420E+03  0.37855140104E+03  0.00000000000E+00 0. -1.
         21    1    1    2  504  503 -0.34286695269E+00  0.15833113055E+03 -0.31427620553E+03  0.35190680275E+03  0.00000000000E+00 0.  1.
         21    1    1    2  505  502 -0.89423524853E+01 -0.35637988298E+02 -0.71678769497E+02  0.80547364168E+02  0.00000000000E+00 0.  1.
          1    1    1    2  501    0 -0.11558393796E+02 -0.77478933747E+02  0.40706206154E+03  0.41453118530E+03  0.00000000000E+00 0. -1.
<scales pt_clust_3="33.89386" pt_clust_4="123.59812" pt_clust_5="36.74278" pt_clust_6="33.89386"></scales>
<clustering>
<clus scale="   33.894">  3  6 -1 -1</clus>
<clus scale="   36.743">  2  5  1 -1</clus>
<clus scale="  123.598">  2  4  1 -1</clus>
<clus scale="   36.743">  2  3  1 -1</clus>
</clustering>
</event>
<event>
 6    0  0.1849053E+002  0.1232526E+03  0.7546771E-02  0.1237826E+00
         21   -1    0    0  503  502  0.00000000000E+00  0.00000000000E+00  0.70002393705E+03  0.70002393705E+03  0.00000000000E+00 0.  1.
          2   -1    0    0  504    0 -0.00000000000E+00 -0.00000000000E+00 -0.83376496403E+03  0.83376496403E+03  0.00000000000E+00 0. -1.
         21    1    1    2  503  501  0.13395967208E+02 -0.11583144259E+03  0.33542222051E+03  0.35511187116E+03  0.00000000000E+00 0.  1.
         21    1    1    2  504  505 -0.30099079894E+02  0.47796730889E+01 -0.19896989208E+02  0.36396291911E+02  0.00000000000E+00 0.  1.
         21    1    1    2  505  502 -0.41856390877E+02  0.12670316527E+03  0.33244378756E+03  0.35822412179E+03  0.00000000000E+00 0.  1.
          2    1    1    2  501    0  0.58559503563E+02 -0.15651395770E+02 -0.78171004585E+03  0.78405661622E+03  0.00000000000E+00 0. -1.
<scales pt_clust_3="14000.00000" pt_clust_4="30.47622" pt_clust_5="123.25264" pt_clust_6="31.30834"></scales>
<clustering>
<clus scale="   30.476">  2  4  1 -1</clus>
<clus scale="   31.308">  2  6  1 -1</clus>
<clus scale="  123.253">  2  5  1 -1</clus>
<clus scale="  123.253">  1  3  2 -1</clus>
</clustering>
</event>
<event>
 6    0  0.1849053E+002  0.1771007E+03  0.7546771E-02  0.1170639E+00
         21   -1    0    0  504  502  0.00000000000E+00  0.00000000000E+00  0.20681900074E+03  0.20681900074E+03  0.00000000000E+00 0.  1.
          2   -1    0    0  503    0 -0.00000000000E+00 -0.00000000000E+00 -0.39323248036E+03  0.39323248036E+03  0.00000000000E+00 0. -1.
         21    1    1    2  503  505 -0.97143659959E+02 -0.27694249789E+01  0.55372262041E+02  0.11185100710E+03  0.00000000000E+00 0. -1.
         21    1    1    2  504  501  0.77528822844E+02 -0.13876350341E+02 -0.12238133989E+03  0.14553509482E+03  0.00000000000E+00 0. -1.
         21    1    1    2  505  502 -0.50555468921E+02  0.55442049475E+02  0.90740476594E+02  0.11774340907E+03  0.00000000000E+00 0.  1.
          2    1    1    2  501    0  0.70170306036E+02 -0.38796274155E+02 -0.21014487837E+03  0.22492197012E+03  0.00000000000E+00 0. -1.
<scales pt_clust_3="72.32481" pt_clust_4="45.15031" pt_clust_5="72.32481" pt_clust_6="163.29345"></scales>
<clustering>
<clus scale="   45.150">  4  6 -1 -1</clus>
<clus scale="   72.325">  3  5 -1 -1</clus>
<clus scale="  163.293">  2  4  1 -1</clus>
<clus scale="  177.101">  1  3  2 -1</clus>
</clustering>
</event>
<event>
 6    0  0.1849053E+002  0.1677276E+03  0.7546771E-02  0.1180239E+00
         -4   -1    0    0    0  501 -0.00000000000E+00  0.00000000000E+00  0.23711607051E+03  0.23711607051E+03  0.00000000000E+00 0.  1.
         21   -1    0    0  503  502  0.00000000000E+00 -0.00000000000E+00 -0.36140191257E+04  0.36140191257E+04  0.00000000000E+00 0.  1.
         21    1    1    2  503  501  0.41406528841E+02 -0.67261840813E+02  0.55176446467E+02  0.96348825136E+02  0.00000000000E+00 0. -1.
         21    1    1    2  504  505 -0.55430181923E+02  0.20724149422E+01 -0.10118043426E+04  0.10133236540E+04  0.00000000000E+00 0.  1.
         21    1    1    2  505  502 -0.94348367375E+02  0.60493734437E+02 -0.25611853169E+04  0.25636363498E+04  0.00000000000E+00 0.  1.
         -4    1    1    2    0  504  0.10837202046E+03  0.46956914348E+01  0.14091015785E+03  0.17782636734E+03  0.00000000000E+00 0.  1.
<scales pt_clust_3="78.98516" pt_clust_4="31.77188" pt_clust_5="31.77188" pt_clust_6="161.53304"></scales>
<clustering>
<clus scale="   31.772">  4  5 -1 -1</clus>
<clus scale="   78.985">  1  3  2 -1</clus>
<clus scale="  161.533">  1  6  2 -1</clus>
<clus scale="  167.728">  2  3  1 -1</clus>
</clustering>
</event>
<event>
 6    0  0.1849053E+002  0.2394990E+03  0.7546771E-02  0.1120127E+00
         21   -1    0    0  505  502  0.00000000000E+00  0.00000000000E+00  0.23244572254E+04  0.23244572254E+04  0.00000000000E+00 0.  1.
          4   -1    0    0  503    0 -0.00000000000E+00 -0.00000000000E+00 -0.51107350956E+03  0.51107350956E+03  0.00000000000E+00 0. -1.
         21    1    1    2  503  504  0.89592681664E+02 -0.19625119198E+03 -0.19255841866E+03  0.28917144320E+03  0.00000000000E+00 0. -1.
         21    1    1    2  504  502 -0.41386398354E+02 -0.11480047084E+02  0.10872934561E+04  0.10881413902E+04  0.00000000000E+00 0.  1.
         21    1    1    2  505  501  0.15297536083E+01 -0.67909996809E+02  0.11144209037E+04  0.11164891663E+04  0.00000000000E+00 0.  1.
          4    1    1    2  501    0 -0.49736036918E+02  0.27564123587E+03 -0.19577222531E+03  0.34172873523E+03  0.00000000000E+00 0. -1.
<scales pt_clust_3="14000.00000" pt_clust_4="42.94910" pt_clust_5="86.06266" pt_clust_6="239.49900"></scales>
<clustering>
<clus scale="   42.949">  1  4  2 -1</clus>
<clus scale="   86.063">  1  5  2 -1</clus>
<clus scale="  239.499">  1  6  2 -1</clus>
<clus scale="   42.949">  1  3  2 -1</clus>
</clustering>
</event>
<event>
 6    0  0.1849053E+002  0.6114522E+02  0.7546771E-02  0.1393088E+00
         -2   -1    0    0    0  501 -0.00000000000E+00  0.00000000000E+00  0.58600305846E+03  0.58600305846E+03  0.00000000000E+00 0.  1.
         21   -1    0    0  504  502  0.00000000000E+00 -0.00000000000E+00 -0.16801986479E+03  0.16801986479E+03  0.00000000000E+00 0.  1.
         21    1    1    2  503  502 -0.55460027743E+02 -0.94727750283E+02 -0.78456107563E+02  0.13492413485E+03  0.00000000000E+00 0.  1.
         21    1    1    2  504  505  0.34789615273E+02  0.40656389002E+02 -0.42889069491E+02  0.68576465200E+02  0.00000000000E+00 0.  1.
         21    1    1    2  505  501 -0.49515246083E+01  0.76093255344E+02  0.35101105183E+03  0.35919835692E+03  0.00000000000E+00 0.  1.
         -2    1    1    2    0  503  0.25621937078E+02 -0.22021894063E+02  0.18831731889E+03  0.19132396628E+03  0.00000000000E+00 0.  1.
<scales pt_clust_3="61.14522" pt_clust_4="53.51825" pt_clust_5="14000.00000" pt_clust_6="33.78531"></scales>
<clustering>
<clus scale="   33.785">  1  6  2 -1</clus>
<clus scale="   53.518">  2  4  1 -1</clus>
<clus scale="   61.145">  2  3  1 -1</clus>
<clus scale="   53.518">  2  3  1 -1</clus>
</clustering>
</event>
<event>
 6    0  0.1849053E+002  0.1322223E+03  0.7546771E-02  0.1224195E+00
         21   -1    0    0  503  502  0.00000000000E+00  0.00000000000E+00  0.34614857819E+02  0.34614857819E+02  0.00000000000E+00 0. -1.
          2   -1    0    0  505    0 -0.00000000000E+00 -0.00000000000E+00 -0.22553595136E+04  0.22553595136E+04  0.00000000000E+00 0. -1.
         21    1    1    2  503  501 -0.43920965571E+02  0.12655950169E+03 -0.13942434221E+03  0.19335331879E+03  0.00000000000E+00 0. -1.
         21    1    1    2  504  502  0.64623532820E+02 -0.21748635376E+01 -0.33285617117E+03  0.33907840054E+03  0.00000000000E+00 0. -1.
         21    1    1    2  505  504 -0.50434696464E+02 -0.10779147495E+02 -0.30689008835E+03  0.31119346869E+03  0.00000000000E+00 0. -1.
          2    1    1    2  501    0  0.29732129214E+02 -0.11360549066E+03 -0.14415740540E+04  0.14463491834E+04  0.00000000000E+00 0. -1.
<scales pt_clust_3="132.22226" pt_clust_4="56.06308" pt_clust_5="51.57372" pt_clust_6="14000.00000"></scales>
<clustering>
<clus scale="   51.574">  2  5  1 -1</clus>
<clus scale="   56.063">  2  4  1 -1</clus>
<clus scale="  132.222">  1  3  2 -1</clus>
<clus scale="  132.222">  1  3  2 -1</clus>
</clustering>
</event>
<event>
 6    0  0.1849053E+002  0.2346053E+03  0.7546771E-02  0.1123440E+00
         21   -1    0    0  505  502  0.00000000000E+00  0.00000000000E+00  0.22765812333E+03  0.22765812333E+03  0.00000000000E+00 0. -1.
          2   -1    0    0  503    0 -0.00000000000E+00 -0.00000000000E+00 -0.16192183634E+04  0.16192183634E+04  0.00000000000E+00 0. -1.
         21    1    1    2  503  504  0.33792961183E+02  0.37148721226E+02 -0.77547284089E+02  0.92388164739E+02  0.00000000000E+00 0. -1.
         21    1    1    2  504  502 -0.17316805776E+03  0.10251256060E+03  0.14832878249E+03  0.24999485800E+03  0.00000000000E+00 0. -1.
         21    1    1    2  505  501 -0.25121479138E+02  0.28950189513E+02 -0.20367904086E+02  0.43405687459E+02  0.00000000000E+00 0.  1.
          2    1    1    2  501    0  0.16449657572E+03 -0.16861147134E+03 -0.14419738343E+04  0.14610877765E+04  0.00000000000E+00 0. -1.
<scales pt_clust_3="50.39125" pt_clust_4="234.60531" pt_clust_5="38.33017" pt_clust_6="14000.00000"></scales>
<clustering>
<clus scale="   38.330">  1  5  2 -1</clus>
<clus scale="   50.391">  2  3  1 -1</clus>
<clus scale="  234.605">  1  4  2 -1</clus>
<clus scale="   38.330">  1  3  2 -1</clus>
</clustering>
</event>
<event>
 6    0  0.1849053E+002  0.1245872E+03  0.7546771E-02  0.1235716E+00
         21   -1    0    0  504  502  0.00000000000E+00  0.00000000000E+00  0.15086286187E+03  0.15086286187E+03  0.00000000000E+00 0. -1.
          2   -1    0    0  505    0 -0.00000000000E+00 -0.00000000000E+00 -0.65842550261E+03  0.65842550261E+03  0.00000000000E+00 0. -1.
         21    1    1    2  503  501 -0.32255733518E+02 -0.41348860952E+02 -0.19995329636E+03  0.20671594368E+03  0.00000000000E+00 0. -1.
         21    1    1    2  504  503  0.72616106523E+02  0.10409402862E+03  0.82995601749E+02  0.15164740562E+03  0.00000000000E+00 0. -1.
         21    1    1    2  505  502  0.30172835567E+02 -0.58563432562E+02 -0.13487825248E+02  0.67245795924E+02  0.00000000000E+00 0. -1.
          2    1    1    2  501    0 -0.70533208573E+02 -0.41817351082E+01 -0.37711712089E+03  0.38367921925E+03  0.00000000000E+00 0. -1.
<scales pt_clust_3="46.53429" pt_clust_4="112.26924" pt_clust_5="65.87925" pt_clust_6="46.53429"></scales>
<clustering>
<clus scale="   46.534">  3  6 -1 -1</clus>
<clus scale="   65.879">  1  5  2 -1</clus>
<clus scale="  112.269">  1  4  2 -1</clus>
<clus scale="   65.879">  1  3  2 -1</clus>
</clustering>
</event>
<event>
 6    0  0.1849053E+002  0.8627955E+02  0.7546771E-02  0.1312120E+00
          1   -1    0    0  503    0 -0.00000000000E+00  0.00000000000E+00  0.95524252641E+03  0.95524252641E+03  0.00000000000E+00 0. -1.
         21   -1    0    0  505  502  0.00000000000E+00 -0.00000000000E+00 -0.49402196980E+02  0.49402196980E+02  0.00000000000E+00 0.  1.
         21    1    1    2  503  502  0.31713072050E+02 -0.10675751243E+03  0.99075637905E+02  0.14905994575E+03  0.00000000000E+00 0.  1.
         21    1    1    2  504  501  0.19169952876E+02  0.32982695640E+02  0.23832783473E+03  0.24136176606E+03  0.00000000000E+00 0. -1.
         21    1    1    2  505  504 -0.57393246982E+02  0.32586761060E+02  0.27203489955E+02  0.71385654450E+02  0.00000000000E+00 0.  1.
          1    1    1    2  501    0  0.65102220559E+01  0.41188055734E+02  0.54123336683E+03  0.54283735713E+03  0.00000000000E+00 0. -1.
<scales pt_clust_3="79.70153" pt_clust_4="31.60483" pt_clust_5="65.99910" pt_clust_6="31.60483"></scales>
<clustering>
<clus scale="   31.605">  4  6 -1 -1</clus>
<clus scale="   65.999">  2  5  1 -1</clus>
<clus scale="   79.702">  2  3  1 -1</clus>
<clus scale="   65.999">  2  3  1 -1</clus>
</clustering>
</event>
<event>
 6    0  0.1849053E+002  0.1149629E+03  0.7546771E-02  0.1251646E+00
         21   -1    0    0  505  502  0.00000000000E+00  0.00000000000E+00  0.29759243661E+03  0.29759243661E+03  0.00000000000E+00 0.  1.
         -1   -1    0    0    0  501 -0.00000000000E+00 -0.00000000000E+00 -0.74967777357E+03  0.74967777357E+03  0.00000000000E+00 0.  1.
         21    1    1    2  503  502  0.10892403809E+03  0.27802622994E+00  0.17385774709E+03  0.20516100895E+03  0.00000000000E+00 0.  1.
         21    1    1    2  504  501 -0.71055125143E+02  0.32621777567E+02 -0.15253106195E+03  0.17140226381E+03  0.00000000000E+00 0. -1.
         21    1    1    2  505  504  0.19706037589E+01  0.40586050917E+02  0.91251544462E+02  0.99889715061E+02  0.00000000000E+00 0.  1.
         -1    1    1    2    0  503 -0.39839516704E+02 -0.73485854714E+02 -0.56466356656E+03  0.57081722235E+03  0.00000000000E+00 0.  1.
<scales pt_clust_3="114.96290" pt_clust_4="78.91267" pt_clust_5="40.63386" pt_clust_6="14000.00000"></scales>
<clustering>
<clus scale="   40.634">  1  5  2 -1</clus>
<clus scale="   78.913">  2  4  1 -1</clus>
<clus scale="  114.963">  1  3  2 -1</clus>
<clus scale="   40.634">  1  3  2 -1</clus>
</clustering>
</event>
<event>
 6    0  0.1849053E+002  0.1805568E+03  0.7546771E-02  0.1167265E+00
         21   -1    0    0  503  502  0.00000000000E+00  0.00000000000E+00  0.12005275009E+03  0.12005275009E+03  0.00000000000E+00 0. -1.
          1   -1    0    0  505    0 -0.00000000000E+00 -0.00000000000E+00 -0.13816740840E+04  0.13816740840E+04  0.00000000000E+00 0. -1.
         21    1    1    2  503  501  0.11877265907E+03  0.65017607400E+02  0.54144603190E+02  0.14582822727E+03  0.00000000000E+00 0. -1.
         21    1    1    2  504  502  0.26384190376E+02  0.50702620387E+02 -0.67294666375E+02  0.88291864509E+02  0.00000000000E+00 0. -1.
         21    1    1    2  505  504 -0.25140200895E+02  0.24187181641E+02 -0.21953535155E+03  0.22228994588E+03  0.00000000000E+00 0. -1.
          1    1    1    2  501    0 -0.12001664855E+03 -0.13990740943E+03 -0.10289359192E+04  0.10453167964E+04  0.00000000000E+00 0. -1.
<scales pt_clust_3="14000.00000" pt_clust_4="57.86033" pt_clust_5="34.88624" pt_clust_6="180.55681"></scales>
<clustering>
<clus scale="   34.886">  2  5  1 -1</clus>
<clus scale="   57.860">  1  4  2 -1</clus>
<clus scale="  180.557">  2  6  1 -1</clus>
<clus scale="   57.860">  1  3  2 -1</clus>
</clustering>
</event>
<event>
 6    0  0.1849053E+002  0.1396504E+03  0.7546771E-02  0.1213800E+00
         21   -1    0    0  505  502  0.00000000000E+00  0.00000000000E+00  0.35672215314E+03  0.35672215314E+03  0.00000000000E+00 0. -1.
          2   -1    0    0  504    0 -0.00000000000E+00 -0.00000000000E+00 -0.31034781134E+04  0.31034781134E+04  0.00000000000E+00 0. -1.
         21    1    1    2  503  501  0.20591075985E+02  0.94905413895E+02 -0.17676025236E+04  0.17702682598E+04  0.00000000000E+00 0. -1.
         21    1    1    2  504  502  0.25804847626E+01 -0.94015683684E+02  0.30522639767E+03  0.31938810485E+03  0.00000000000E+00 0. -1.
         21    1    1    2  505  503 -0.10692198047E+02 -0.34963416763E+02  0.35030326324E+02  0.50634843469E+02  0.00000000000E+00 0.  1.
          2    1    1    2  501    0 -0.12479362701E+02  0.34073686551E+02 -0.13194101606E+04  0.13199090584E+04  0.00000000000E+00 0. -1.
<scales pt_clust_3="32.61672" pt_clust_4="129.05465" pt_clust_5="36.56178" pt_clust_6="32.61672"></scales>
<clustering>
<clus scale="   32.617">  3  6 -1 -1</clus>
<clus scale="   36.562">  1  5  2 -1</clus>
<clus scale="  129.055">  1  4  2 -1</clus>
<clus scale="   36.562">  1  3  2 -1</clus>
</clustering>
</event>
<event>
 6    0  0.1849053E+002  0.2004177E+03  0.7546771E-02  0.1149387E+00
         21   -1    0    0  505  502  0.00000000000E+00  0.00000000000E+00  0.26571266993E+03  0.26571266993E+03  0.00000000000E+00 0.  1.
         -4   -1    0    0    0  501 -0.00000000000E+00 -0.00000000000E+00 -0.70956197538E+03  0.70956197538E+03  0.00000000000E+00 0.  1.
         21    1    1    2  503  501 -0.40181044752E+02 -0.59262236008E+02 -0.24486308693E+02  0.75671053167E+02  0.00000000000E+00 0.  1.
         21    1    1    2  504  502 -0.53722153042E+01 -0.74804796475E+02  0.16696023526E+03  0.18303097670E+03  0.00000000000E+00 0.  1.
         21    1    1    2  505  503 -0.26861289390E+01 -0.63150440058E+02  0.28321730313E+02  0.69262643438E+02  0.00000000000E+00 0.  1.
         -4    1    1    2    0  504  0.48239388995E+02  0.19721747254E+03 -0.61464496233E+03  0.64730997200E+03  0.00000000000E+00 0.  1.
<scales pt_clust_3="60.66303" pt_clust_4="74.99746" pt_clust_5="60.66303" pt_clust_6="189.73308"></scales>
<clustering>
<clus scale="   60.663">  3  5 -1 -1</clus>
<clus scale="   74.997">  1  4  2 -1</clus>
<clus scale="  189.733">  2  6  1 -1</clus>
<clus scale="   74.997">  1  3  2 -1</clus>
</clustering>
</event>
<event>
 6    0  0.1849053E+002  0.2338864E+03  0.7546771E-02  0.1123934E+00
          2   -1    0    0  503    0 -0.00000000000E+00  0.00000000000E+00  0.28660430857E+04  0.28660430857E+04  0.00000000000E+00 0.  1.
         21   -1    0    0  504  502  0.00000000000E+00 -0.00000000000E+00 -0.50189548403E+03  0.50189548403E+03  0.00000000000E+00 0.  1.
         21    1    1    2  503  502 -0.29338995537E+02  0.10002183871E+02  0.82575874337E+01  0.32078155987E+02  0.00000000000E+00 0.  1.
         21    1    1    2  504  505  0.16374418137E+03  0.17279261817E+03 -0.45593064551E+03  0.51433665954E+03  0.00000000000E+00 0.  1.
         21    1    1    2  505  501 -0.41575059147E+02 -0.29855992999E+02  0.85956940367E+03  0.86109199601E+03  0.00000000000E+00 0.  1.
          2    1    1    2  501    0 -0.92830126681E+02 -0.15293880905E+03  0.19522512560E+04  0.19604317582E+04  0.00000000000E+00 0.  1.
<scales pt_clust_3="30.99710" pt_clust_4="226.98165" pt_clust_5="30.17300" pt_clust_6="30.17300"></scales>
<clustering>
<clus scale="   30.173">  5  6 -1 -1</clus>
<clus scale="   30.997">  2  3  1 -1</clus>
<clus scale="  226.982">  2  4  1 -1</clus>
<clus scale="   30.997">  2  3  1 -1</clus>
</clustering>
</event>
<event>
 6    0  0.1849053E+002  0.1244616E+03  0.7546771E-02  0.1235913E+00
          1   -1    0    0  503    0 -0.00000000000E+00  0.00000000000E+00  0.54145608820E+03  0.54145608820E+03  0.00000000000E+00 0.  1.
         21   -1    0    0  505  502  0.00000000000E+00 -0.00000000000E+00 -0.10106122846E+04  0.10106122846E+04  0.00000000000E+00 0.  1.
         21    1    1    2  503  502 -0.45227639344E+02 -0.97084966751E+00 -0.26936012625E+03  0.27313249445E+03  0.00000000000E+00 0.  1.
         21    1    1    2  504  501  0.84144635234E+02  0.56217061283E+02  0.59811318181E+02  0.11755029307E+03  0.00000000000E+00 0.  1.
         21    1    1    2  505  504  0.10135815633E+03 -0.77213199653E+02 -0.69336776671E+03  0.70497816560E+03  0.00000000000E+00 0.  1.
          1    1    1    2  501    0 -0.14027515222E+03  0.21966988037E+02  0.43376037837E+03  0.45640741968E+03  0.00000000000E+00 0.  1.
<scales pt_clust_3="45.23806" pt_clust_4="14000.00000" pt_clust_5="97.65851" pt_clust_6="124.46159"></scales>
<clustering>
<clus scale="   45.238">  2  3  1 -1</clus>
<clus scale="   97.659">  2  5  1 -1</clus>
<clus scale="  124.462">  1  6  2 -1</clus>
<clus scale="   45.238">  2  3  1 -1</clus>
</clustering>
</event>
<event>
 6    0  0.1849053E+002  0.9162672E+02  0.7546771E-02  0.1298959E+00
          2   -1    0    0  503    0 -0.00000000000E+00  0.00000000000E+00  0.73530565445E+03  0.73530565445E+03  0.00000000000E+00 0.  1.
         21   -1    0    0  504  502  0.00000000000E+00 -0.00000000000E+00 -0.32316156832E+03  0.32316156832E+03  0.00000000000E+00 0.  1.
         21    1    1    2  503  505  0.45866981506E+02  0.11116514914E+03  0.42946681936E+02  0.12769450992E+03  0.00000000000E+00 0.  1.
         21    1    1    2  504  501 -0.44013184374E+02 -0.60783042551E+02 -0.33517574592E+02  0.82189819728E+02  0.00000000000E+00 0.  1.
         21    1    1    2  505  502  0.36844246426E+02 -0.32231017193E+02 -0.21950461576E+03  0.22489689483E+03  0.00000000000E+00 0.  1.
          2    1    1    2  501    0 -0.38698043558E+02 -0.18151089396E+02  0.62221959455E+03  0.62368599829E+03  0.00000000000E+00 0.  1.
<scales pt_clust_3="14000.00000" pt_clust_4="91.62672" pt_clust_5="48.54932" pt_clust_6="42.74343"></scales>
<clustering>
<clus scale="   42.743">  1  6  2 -1</clus>
<clus scale="   48.549">  2  5  1 -1</clus>
<clus scale="   91.627">  2  4  1 -1</clus>
<clus scale="   48.549">  2  3  1 -1</clus>
</clustering>
</event>
<event>
 6    0  0.1849053E+002  0.2127480E+03  0.7546771E-02  0.1139408E+00
          2   -1    0    0  505    0 -0.00000000000E+00  0.00000000000E+00  0.57119593318E+03  0.57119593318E+03  0.00000000000E+00 0. -1.
         21   -1    0    0  503  502  0.00000000000E+00 -0.00000000000E+00 -0.29351701155E+03  0.29351701155E+03  0.00000000000E+00 0. -1.
         21    1    1    2  503  504 -0.39201643025E+02  0.96219582286E+01  0.58647734091E+01  0.40789048324E+02  0.00000000000E+00 0.  1.
         21    1    1    2  504  501  0.43465412515E+02  0.16652722565E+03  0.24592898745E+03  0.30016932860E+03  0.00000000000E+00 0. -1.
         21    1    1    2  505  502 -0.34817433410E+02 -0.22077866635E+03 -0.19483357140E+03  0.29650563861E+03  0.00000000000E+00 0. -1.
          2    1    1    2  501    0  0.30553663920E+02  0.44629482477E+02  0.22071873218E+03  0.22724892919E+03  0.00000000000E+00 0. -1.
<scales pt_clust_3="40.36522" pt_clust_4="212.74800" pt_clust_5="14000.00000" pt_clust_6="53.92003"></scales>
<clustering>
<clus scale="   40.365">  2  3  1 -1</clus>
<clus scale="   53.920">  1  6  2 -1</clus>
<clus scale="  212.748">  1  4  2 -1</clus>
<clus scale="   40.365">  2  3  1 -1</clus>
</clustering>
</event>
<event>
 6    0  0.1849053E+002  0.3627449E+03  0.7546771E-02  0.1057502E+00
         21   -1    0    0  503  502  0.00000000000E+00  0.00000000000E+00  0.47692414973E+03  0.47692414973E+03  0.00000000000E+00 0. -1.
          2   -1    0    0  505    0 -0.00000000000E+00 -0.00000000000E+00 -0.12823208780E+04  0.12823208780E+04  0.00000000000E+00 0.  1.
         21    1    1    2  503  504  0.30976162565E+02 -0.76689123906E+01 -0.64227044333E+01  0.32551282567E+02  0.00000000000E+00 0. -1.
         21    1    1    2  504  501  0.57236324089E+02 -0.28378294341E+02 -0.16567639840E+03  0.17756687014E+03  0.00000000000E+00 0. -1.
         21    1    1    2  505  502 -0.37012757061E+03 -0.53093435925E+02  0.35618573875E+03  0.51641225000E+03  0.00000000000E+00 0. -1.
          2    1    1    2  501    0  0.28191508395E+03  0.89140642656E+02 -0.98948336420E+03  0.10327146250E+04  0.00000000000E+00 0.  1.
<scales pt_clust_3="31.91136" pt_clust_4="50.26675" pt_clust_5="346.28366" pt_clust_6="50.26675"></scales>
<clustering>
<clus scale="   31.911">  1  3  2 -1</clus>
<clus scale="   50.267">  4  6 -1 -1</clus>
<clus scale="  346.284">  1  5  2 -1</clus>
<clus scale="   31.911">  1  3  2 -1</clus>
</clustering>
</event>
<event>
 6    0  0.1849053E+002  0.1094670E+03  0.7546771E-02  0.1261560E+00
          1   -1    0    0  504    0 -0.00000000000E+00  0.00000000000E+00  0.16253651489E+03  0.16253651489E+03  0.00000000000E+00 0.  1.
         21   -1    0    0  505  502  0.00000000000E+00 -0.00000000000E+00 -0.99263211802E+03  0.99263211802E+03  0.00000000000E+00 0.  1.
         21    1    1    2  503  502 -0.34271368664E+02 -0.11194444099E+03 -0.85658866653E+03  0.86455203903E+03  0.00000000000E+00 0.  1.
         21    1    1    2  504  503  0.35957037695E+02  0.50127763707E+02 -0.92100891451E+01  0.62374089141E+02  0.00000000000E+00 0.  1.
         21    1    1    2  505  501 -0.40847983676E+02  0.32179239712E+02 -0.84035379858E+02  0.98823106138E+02  0.00000000000E+00 0.  1.
          1    1    1    2  501    0  0.39162314646E+02  0.29637437571E+02  0.11973853240E+03  0.12941939860E+03  0.00000000000E+00 0.  1.
<scales pt_clust_3="14000.00000" pt_clust_4="109.46699" pt_clust_5="50.43725" pt_clust_6="49.11277"></scales>
<clustering>
<clus scale="   49.113">  1  6  2 -1</clus>
<clus scale="   50.437">  1  5  2 -1</clus>
<clus scale="  109.467">  1  4  2 -1</clus>
<clus scale="  109.467">  2  3  1 -1</clus>
</clustering>
</event>
<event>
 6    0  0.1849053E+002  0.1655095E+03  0.7546771E-02  0.1182613E+00
         21   -1    0    0  503  502  0.00000000000E+00  0.00000000000E+00  0.14355823317E+03  0.14355823317E+03  0.00000000000E+00 0.  1.
          2   -1    0    0  505    0 -0.00000000000E+00 -0.00000000000E+00 -0.51292792965E+03  0.51292792965E+03  0.00000000000E+00 0.  1.
         21    1    1    2  503  504 -0.30283668014E+02  0.71507061740E+01  0.25659822835E+01  0.31222066111E+02  0.00000000000E+00 0.  1.
         21    1    1    2  504  501 -0.38680460666E+02 -0.51361503216E+02  0.50930818497E+02  0.82025181029E+02  0.00000000000E+00 0.  1.
         21    1    1    2  505  502  0.11489932493E+03  0.11252032681E+03 -0.43147628312E+03  0.46047199883E+03  0.00000000000E+00 0.  1.
          2    1    1    2  501    0 -0.45935196253E+02 -0.68309529772E+02  0.86097858567E+01  0.82766916851E+02  0.00000000000E+00 0.  1.
<scales pt_clust_3="31.11644" pt_clust_4="42.13366" pt_clust_5="158.94343" pt_clust_6="42.13366"></scales>
<clustering>
<clus scale="   31.116">  1  3  2 -1</clus>
<clus scale="   42.134">  4  6 -1 -1</clus>
<clus scale="  158.943">  2  5  1 -1</clus>
<clus scale="   31.116">  1  3  2 -1</clus>
</clustering>
</event>
<event>
 6    0  0.1849053E+002  0.1147508E+03  0.7546771E-02  0.1252017E+00
         21   -1    0    0  501  502  0.00000000000E+00  0.00000000000E+00  0.19521717324E+03  0.19521717324E+03  0.00000000000E+00 0. -1.
          1   -1    0    0  504    0 -0.00000000000E+00 -0.00000000000E+00 -0.69488061980E+03  0.69488061980E+03  0.00000000000E+00 0. -1.
         21    1    1    2  503  502 -0.58596669827E+02 -0.72501533640E+01  0.13985598221E+03  0.15180853138E+03  0.00000000000E+00 0. -1.
         21    1    1    2  504  505  0.64392838770E+02 -0.27305292110E+02 -0.21039452458E+03  0.22171574738E+03  0.00000000000E+00 0. -1.
         21    1    1    2  505  503 -0.77687707978E+02 -0.17482214705E+02 -0.13005788296E+01  0.79641065457E+02  0.00000000000E+00 0. -1.
          1    1    1    2  501    0  0.71891539035E+02  0.52037660179E+02 -0.42782432537E+03  0.43693244882E+03  0.00000000000E+00 0. -1.
<scales pt_clust_3="59.04350" pt_clust_4="64.17332" pt_clust_5="14000.00000" pt_clust_6="114.75084"></scales>
<clustering>
<clus scale="   59.043">  1  3  2 -1</clus>
<clus scale="   64.173">  2  4  1 -1</clus>
<clus scale="  114.751">  2  6  1 -1</clus>
<clus scale="   59.043">  1  3  2 -1</clus>
</clustering>
</event>
<event>
 6    0  0.1849053E+002  0.7738831E+02  0.7546771E-02  0.1336631E+00
         21   -1    0    0  504  502  0.00000000000E+00  0.00000000000E+00  0.33905551059E+03  0.33905551059E+03  0.00000000000E+00 0. -1.
          2   -1    0    0  503    0 -0.00000000000E+00 -0.00000000000E+00 -0.14325332238E+04  0.14325332238E+04  0.00000000000E+00 0.  1.
         21    1    1    2  503  505  0.49931159329E+02  0.26424218998E+02 -0.44585644807E+03  0.44942110799E+03  0.00000000000E+00 0.  1.
         21    1    1    2  504  501  0.83158694477E+01  0.38717294037E+02  0.90590554929E+02  0.98867745927E+02  0.00000000000E+00 0.  1.
         21    1    1    2  505  502 -0.51156819934E+02 -0.10364417868E+03  0.22835541797E+03  0.25594009634E+03  0.00000000000E+00 0. -1.
          2    1    1    2  501    0 -0.70902088435E+01  0.38502665641E+02 -0.96656723800E+03  0.96735978410E+03  0.00000000000E+00 0.  1.
<scales pt_clust_3="14000.00000" pt_clust_4="39.92190" pt_clust_5="77.38831" pt_clust_6="39.15005"></scales>
<clustering>
<clus scale="   39.150">  2  6  1 -1</clus>
<clus scale="   39.922">  1  4  2 -1</clus>
<clus scale="   77.388">  1  5  2 -1</clus>
<clus scale="   39.922">  1  3  2 -1</clus>
</clustering>
</event>
<event>
 6    0  0.1849053E+002  0.3169922E+03  0.7546771E-02  0.1077042E+00
         21   -1    0    0  504  502  0.00000000000E+00  0.00000000000E+00  0.16221064726E+03  0.16221064726E+03  0.00000000000E+00 0.  1.
         -1   -1    0    0    0  501 -0.00000000000E+00 -0.00000000000E+00 -0.60694404240E+03  0.60694404240E+03  0.00000000000E+00 0.  1.
         21    1    1    2  503  501 -0.44968377834E+02  0.42803502493E+02 -0.71011562145E+02  0.94323574938E+02  0.00000000000E+00 0.  1.
         21    1    1    2  504  503 -0.23743552531E+03  0.47205642500E+02 -0.12859665613E+03  0.27411877230E+03  0.00000000000E+00 0.  1.
         21    1    1    2  505  502  0.48312962282E+02 -0.20329019156E+02  0.30573615278E+01  0.52504845527E+02  0.00000000000E+00 0.  1.
         -1    1    1    2    0  505  0.23409094086E+03 -0.69680125837E+02 -0.24818253839E+03  0.34820749689E+03  0.00000000000E+00 0.  1.
<scales pt_clust_3="45.44389" pt_clust_4="309.68746" pt_clust_5="52.06311" pt_clust_6="52.06311"></scales>
<clustering>
<clus scale="   45.444">  3  4 -1 -1</clus>
<clus scale="   52.063">  5  6 -1 -1</clus>
<clus scale="  309.687">  1  3  2 -1</clus>
<clus scale="  309.687">  1  3  2 -1</clus>
</clustering>
</event>
<event>
 6    0  0.1849053E+002  0.1064687E+03  0.7546771E-02  0.1267253E+00
         21   -1    0    0  503  502  0.00000000000E+00  0.00000000000E+00  0.12903428854E+03  0.12903428854E+03  0.00000000000E+00 0. -1.
         -1   -1    0    0    0  501 -0.00000000000E+00 -0.00000000000E+00 -0.81632383025E+03  0.81632383025E+03  0.00000000000E+00 0. -1.
         21    1    1    2  503  505 -0.39470191518E+02  0.21765609218E+02  0.49420759249E+02  0.66888333870E+02  0.00000000000E+00 0. -1.
         21    1    1    2  504  501  0.13129706487E+02  0.39370873474E+02 -0.80324601363E+02  0.90412921945E+02  0.00000000000E+00 0.  1.
         21    1    1    2  505  504 -0.55499572098E+02 -0.79936407971E+02  0.25837152246E+02  0.10068560105E+03  0.00000000000E+00 0. -1.
         -1    1    1    2    0  502  0.81840057129E+02  0.18799925280E+02 -0.68222285185E+03  0.68737126193E+03  0.00000000000E+00 0. -1.
<scales pt_clust_3="45.16611" pt_clust_4="41.50247" pt_clust_5="106.46874" pt_clust_6="14000.00000"></scales>
<clustering>
<clus scale="   41.502">  2  4  1 -1</clus>
<clus scale="   45.166">  1  3  2 -1</clus>
<clus scale="  106.469">  1  5  2 -1</clus>
<clus scale="   45.166">  1  3  2 -1</clus>
</clustering>
</event>
<event>
 6    0  0.1849053E+002  0.1251262E+03  0.7546771E-02  0.1234872E+00
         21   -1    0    0  504  502  0.00000000000E+00  0.00000000000E+00  0.23886926741E+03  0.23886926741E+03  0.00000000000E+00 0.  1.
          2   -1    0    0  502    0 -0.00000000000E+00 -0.00000000000E+00 -0.82608728245E+03  0.82608728245E+03  0.00000000000E+00 0.  1.
         21    1    1    2  503  501 -0.83973083288E+01 -0.44404913371E+02 -0.52139384348E+02  0.68998742879E+02  0.00000000000E+00 0.  1.
         21    1    1    2  504  505  0.12414792275E+02  0.10151979918E+03  0.17049195724E+03  0.19881625732E+03  0.00000000000E+00 0.  1.
         21    1    1    2  505  503  0.16629559733E+02 -0.98369558227E+02 -0.10248009940E+02  0.10029024853E+03  0.00000000000E+00 0.  1.
          2    1    1    2  501    0 -0.20647043679E+02  0.41254672418E+02 -0.69532257800E+03  0.69685130113E+03  0.00000000000E+00 0.  1.
<scales pt_clust_3="44.20727" pt_clust_4="106.50032" pt_clust_5="44.20727" pt_clust_6="46.13294"></scales>
<clustering>
<clus scale="   44.207">  3  5 -1 -1</clus>
<clus scale="   46.133">  2  6  1 -1</clus>
<clus scale="  106.500">  1  4  2 -1</clus>
<clus scale="  106.500">  1  3  2 -1</clus>
</clustering>
</event>
<event>
 6    0  0.1849053E+002  0.6635503E+02  0.7546771E-02  0.1372946E+00
         21   -1    0    0  503  502  0.00000000000E+00  0.00000000000E+00  0.14185929841E+04  0.14185929841E+04  0.00000000000E+00 0.  1.
          2   -1    0    0  505    0 -0.00000000000E+00 -0.00000000000E+00 -0.74017042282E+03  0.74017042282E+03  0.00000000000E+00 0.  1.
         21    1    1    2  503  504 -0.26519015447E+02 -0.58156648563E+02  0.11556477961E+04  0.11574140498E+04  0.00000000000E+00 0.  1.
         21    1    1    2  504  501  0.88211980350E+02  0.68867427294E+02  0.23996180244E+03  0.26477489052E+03  0.00000000000E+00 0.  1.
         21    1    1    2  505  502 -0.80669850415E+02  0.15271708771E+02 -0.17359896369E+03  0.19203502297E+03  0.00000000000E+00 0.  1.
          2    1    1    2  501    0  0.18976885512E+02 -0.25982487502E+02 -0.54358807363E+03  0.54453944360E+03  0.00000000000E+00 0.  1.
<scales pt_clust_3="14000.00000" pt_clust_4="66.35503" pt_clust_5="63.61175" pt_clust_6="32.17471"></scales>
<clustering>
<clus scale="   32.175">  2  6  1 -1</clus>
<clus scale="   63.612">  2  5  1 -1</clus>
<clus scale="   66.355">  2  4  1 -1</clus>
<clus scale="   66.355">  1  3  2 -1</clus>
</clustering>
</event>
<event>
 6    0  0.1849053E+002  0.1220795E+03  0.7546771E-02  0.1239705E+00
         21   -1    0    0  504  502  0.00000000000E+00  0.00000000000E+00  0.20167302081E+04  0.20167302081E+04  0.00000000000E+00 0.  1.
          2   -1    0    0  505    0 -0.00000000000E+00 -0.00000000000E+00 -0.40066360325E+03  0.40066360325E+03  0.00000000000E+00 0.  1.
         21    1    1    2  503  502 -0.87792549282E+02 -0.47306215467E+02 -0.63152051344E+02  0.11804063419E+03  0.00000000000E+00 0.  1.
         21    1    1    2  504  501  0.31809692793E+02 -0.11816541528E+03  0.19115785945E+04  0.19154914891E+04  0.00000000000E+00 0.  1.
         21    1    1    2  505  503 -0.52902611147E+01  0.67693339360E+02  0.46348594795E+02  0.82210505994E+02  0.00000000000E+00 0. -1.
          2    1    1    2  501    0  0.61273117603E+02  0.97778291389E+02 -0.27870853310E+03  0.30165118205E+03  0.00000000000E+00 0.  1.
<scales pt_clust_3="94.37996" pt_clust_4="122.07950" pt_clust_5="67.89974" pt_clust_6="14000.00000"></scales>
<clustering>
<clus scale="   67.900">  2  5  1 -1</clus>
<clus scale="   94.380">  2  3  1 -1</clus>
<clus scale="  122.079">  1  4  2 -1</clus>
<clus scale="  122.079">  1  3  2 -1</clus>
</clustering>
</event>
<event>
 6    0  0.1849053E+002  0.1397552E+03  0.7546771E-02  0.1213659E+00
          1   -1    0    0  505    0 -0.00000000000E+00  0.00000000000E+00  0.46712051444E+03  0.46712051444E+03  0.00000000000E+00 0.  1.
         21   -1    0    0  504  502  0.00000000000E+00 -0.00000000000E+00 -0.28150799638E+03  0.28150799638E+03  0.00000000000E+00 0.  1.
         21    1    1    2  503  502  0.15309215493E+03 -0.29387050447E+02 -0.21817779965E+03  0.26814615212E+03  0.00000000000E+00 0.  1.
         21    1    1    2  504  501 -0.22978356809E+02 -0.26034392186E+02 -0.87452640631E+01  0.35808855074E+02  0.00000000000E+00 0.  1.
         21    1    1    2  505  503 -0.12180184660E+03  0.14621723690E+02  0.27855650920E+03  0.30437347692E+03  0.00000000000E+00 0.  1.
          1    1    1    2  501    0 -0.83119515290E+01  0.40799718943E+02  0.13397907258E+03  0.14030002671E+03  0.00000000000E+00 0.  1.
<scales pt_clust_3="14000.00000" pt_clust_4="34.72455" pt_clust_5="139.75525" pt_clust_6="41.38408"></scales>
<clustering>
<clus scale="   34.725">  2  4  1 -1</clus>
<clus scale="   41.384">  1  6  2 -1</clus>
<clus scale="  139.755">  1  5  2 -1</clus>
<clus scale="   34.725">  2  3  1 -1</clus>
</clustering>
</event>
<event>
 6    0  0.1849053E+002  0.2285562E+03  0.7546771E-02  0.1127660E+00
         21   -1    0    0  504  502  0.00000000000E+00  0.00000000000E+00  0.17343228290E+03  0.17343228290E+03  0.00000000000E+00 0.  1.
          1   -1    0    0  503    0 -0.00000000000E+00 -0.00000000000E+00 -0.98264666033E+03  0.98264666033E+03  0.00000000000E+00 0. -1.
         21    1    1    2  503  502  0.43420334269E+02 -0.11705943581E+02 -0.19880488143E+02  0.49168977536E+02  0.00000000000E+00 0.  1.
         21    1    1    2  504  505  0.12928623575E+03 -0.11552968327E+03  0.91454130993E+02  0.19602524466E+03  0.00000000000E+00 0.  1.
         21    1    1    2  505  501 -0.76822556508E+02  0.10810502769E+03 -0.56221582210E+03  0.57764611382E+03  0.00000000000E+00 0. -1.
          1    1    1    2  501    0 -0.95884013511E+02  0.19130599153E+02 -0.31857219819E+03  0.33323860720E+03  0.00000000000E+00 0. -1.
<scales pt_clust_3="44.97060" pt_clust_4="210.54920" pt_clust_5="76.01929" pt_clust_6="76.01929"></scales>
<clustering>
<clus scale="   44.971">  1  3  2 -1</clus>
<clus scale="   76.019">  5  6 -1 -1</clus>
<clus scale="  210.549">  1  4  2 -1</clus>
<clus scale="   44.971">  1  3  2 -1</clus>
</clustering>
</event>
<event>
 6    0  0.1849053E+002  0.2058346E+03  0.7546771E-02  0.1144908E+00
         21   -1    0    0  505  502  0.00000000000E+00  0.00000000000E+00  0.46409653897E+02  0.46409653897E+02  0.00000000000E+00 0. -1.
          2   -1    0    0  504    0 -0.00000000000E+00 -0.00000000000E+00 -0.28708262417E+04  0.28708262417E+04  0.00000000000E+00 0.  1.
         21    1    1    2  503  502  0.39916469787E+02  0.86023452216E+02 -0.47939855375E+02  0.10626188698E+03  0.00000000000E+00 0. -1.
         21    1    1    2  504  503  0.67992808170E+02  0.64643017015E+02 -0.15326765875E+03  0.17970174409E+03  0.00000000000E+00 0. -1.
         21    1    1    2  505  501 -0.33725470309E+02 -0.60584376531E+02 -0.49095920609E+03  0.49583143917E+03  0.00000000000E+00 0. -1.
          2    1    1    2  501    0 -0.74183807647E+02 -0.90082092699E+02 -0.21322498676E+04  0.21354408254E+04  0.00000000000E+00 0.  1.
<scales pt_clust_3="203.20122" pt_clust_4="82.89476" pt_clust_5="69.04473" pt_clust_6="69.04473"></scales>
<clustering>
<clus scale="   69.045">  5  6 -1 -1</clus>
<clus scale="   82.895">  3  4 -1 -1</clus>
<clus scale="  203.201">  1  3  2 -1</clus>
<clus scale="  203.201">  1  3  2 -1</clus>
</clustering>
</event>
<event>
 6    0  0.1849053E+002  0.1381043E+03  0.7546771E-02  0.1215903E+00
          4   -1    0    0  505    0 -0.00000000000E+00  0.00000000000E+00  0.75637724089E+03  0.75637724089E+03  0.00000000000E+00 0. -1.
         21   -1    0    0  503  502  0.00000000000E+00 -0.00000000000E+00 -0.25319077947E+03  0.25319077947E+03  0.00000000000E+00 0. -1.
         21    1    1    2  503  501  0.76152809895E+02 -0.11412444056E+03 -0.18450476986E+03  0.22992531067E+03  0.00000000000E+00 0. -1.
         21    1    1    2  504  502 -0.79866843600E+02  0.22661168517E+02  0.26501210393E+03  0.27771146266E+03  0.00000000000E+00 0. -1.
         21    1    1    2  505  504  0.42678694169E+02 -0.66686529968E+02  0.46053318117E+02  0.91594062715E+02  0.00000000000E+00 0. -1.
          4    1    1    2  501    0 -0.38964660464E+02  0.15814980201E+03  0.37662580924E+03  0.41033718431E+03  0.00000000000E+00 0. -1.
<scales pt_clust_3="14000.00000" pt_clust_4="63.12863" pt_clust_5="79.17426" pt_clust_6="138.10427"></scales>
<clustering>
<clus scale="   79.174">  1  5  2 -1</clus>
<clus scale="   63.129">  1  4  2 -1</clus>
<clus scale="  138.104">  1  6  2 -1</clus>
<clus scale="  138.104">  2  3  1 -1</clus>
</clustering>
</event>
<event>
 6    0  0.1849053E+002  0.2483269E+03  0.7546771E-02  0.1114367E+00
         21   -1    0    0  505  502  0.00000000000E+00  0.00000000000E+00  0.38416713242E+03  0.38416713242E+03  0.00000000000E+00 0. -1.
          4   -1    0    0  504    0 -0.00000000000E+00 -0.00000000000E+00 -0.14658120098E+04  0.14658120098E+04  0.00000000000E+00 0. -1.
         21    1    1    2  503  502 -0.20791081861E+02  0.21871725104E+02  0.63164422445E+02  0.70002754994E+02  0.00000000000E+00 0. -1.
         21    1    1    2  504  503  0.18902204655E+03  0.13999666120E+03 -0.67297687020E+03  0.71289989974E+03  0.00000000000E+00 0. -1.
         21    1    1    2  505  501  0.19332616487E+02  0.24925211829E+02  0.27392332981E+03  0.27573357949E+03  0.00000000000E+00 0. -1.
          4    1    1    2  501    0 -0.18756358118E+03 -0.18679359814E+03 -0.74575575944E+03  0.79134290799E+03  0.00000000000E+00 0. -1.
<scales pt_clust_3="30.17684" pt_clust_4="248.32692" pt_clust_5="43.87291" pt_clust_6="14000.00000"></scales>
<clustering>
<clus scale="   30.177">  1  3  2 -1</clus>
<clus scale="   43.873">  1  5  2 -1</clus>
<clus scale="  248.327">  2  4  1 -1</clus>
<clus scale="   30.177">  1  3  2 -1</clus>
</clustering>
</event>
<event>
 6    0  0.1849053E+002  0.1056883E+03  0.7546771E-02  0.1268769E+00
         21   -1    0    0  503  502  0.00000000000E+00  0.00000000000E+00  0.34518744352E+03  0.34518744352E+03  0.00000000000E+00 0.  1.
          3   -1    0    0  505    0 -0.00000000000E+00 -0.00000000000E+00 -0.21691699458E+04  0.21691699458E+04  0.00000000000E+00 0. -1.
         21    1    1    2  503  504  0.41837090263E+02  0.30910394902E+02  0.21393986314E+03  0.22017279504E+03  0.00000000000E+00 0.  1.
         21    1    1    2  504  501 -0.14585776513E+03 -0.59998090613E+02  0.75111536433E+02  0.17468829793E+03  0.00000000000E+00 0.  1.
         21    1    1    2  505  502  0.58857151880E+02  0.25836949267E+02 -0.34830106028E+03  0.35418263773E+03  0.00000000000E+00 0. -1.
          3    1    1    2  501    0  0.45163522990E+02  0.32507464431E+01 -0.17647328416E+04  0.17653136586E+04  0.00000000000E+00 0. -1.
<scales pt_clust_3="52.31259" pt_clust_4="105.68826" pt_clust_5="14000.00000" pt_clust_6="45.28036"></scales>
<clustering>
<clus scale="   45.280">  2  6  1 -1</clus>
<clus scale="   52.313">  1  3  2 -1</clus>
<clus scale="  105.688">  1  4  2 -1</clus>
<clus scale="   52.313">  1  3  2 -1</clus>
</clustering>
</event>
<event>
 6    0  0.1849053E+002  0.1257503E+03  0.7546771E-02  0.1233901E+00
         21   -1    0    0  503  502  0.00000000000E+00  0.00000000000E+00  0.21756798766E+03  0.21756798766E+03  0.00000000000E+00 0.  1.
          1   -1    0    0  504    0 -0.00000000000E+00 -0.00000000000E+00 -0.12431576510E+04  0.12431576510E+04  0.00000000000E+00 0.  1.
         21    1    1    2  503  505  0.59461435744E+02 -0.31521392117E+02  0.17057228292E+03  0.18336892922E+03  0.00000000000E+00 0.  1.
         21    1    1    2  504  502  0.60642567116E+02 -0.26339659410E+02  0.14949540786E+01  0.66132696088E+02  0.00000000000E+00 0.  1.
         21    1    1    2  505  501 -0.99669770528E+02 -0.90643866622E+00 -0.44627350819E+03  0.45726898966E+03  0.00000000000E+00 0.  1.
          1    1    1    2  501    0 -0.20434232332E+02  0.58767490193E+02 -0.75138339219E+03  0.75395502373E+03  0.00000000000E+00 0.  1.
<scales pt_clust_3="125.75032" pt_clust_4="63.40990" pt_clust_5="14000.00000" pt_clust_6="62.21877"></scales>
<clustering>
<clus scale="   62.219">  2  6  1 -1</clus>
<clus scale="   63.410">  1  4  2 -1</clus>
<clus scale="  125.750">  1  3  2 -1</clus>
<clus scale="   63.410">  1  3  2 -1</clus>
</clustering>
</event>
<event>
 6    0  0.1849053E+002  0.1458017E+03  0.7546771E-02  0.1205729E+00
          2   -1    0    0  503    0 -0.00000000000E+00  0.00000000000E+00  0.38561130534E+03  0.38561130534E+03  0.00000000000E+00 0.  1.
         21   -1    0    0  504  502  0.00000000000E+00 -0.00000000000E+00 -0.11621865321E+03  0.11621865321E+03  0.00000000000E+00 0.  1.
         21    1    1    2  503  505 -0.10218237864E+03 -0.54824639231E+02  0.30731979436E+02  0.11996430357E+03  0.00000000000E+00 0.  1.
         21    1    1    2  504  501  0.99422391101E+02  0.51758099422E+02  0.40347677336E+02  0.11912870256E+03  0.00000000000E+00 0.  1.
         21    1    1    2  505  502 -0.59907012091E+02  0.92895934197E+01  0.66423113640E+01  0.60985792967E+02  0.00000000000E+00 0. -1.
          2    1    1    2  501    0  0.62666999626E+02 -0.62230536110E+01  0.19167068399E+03  0.20175115945E+03  0.00000000000E+00 0.  1.
<scales pt_clust_3="39.60049" pt_clust_4="135.12385" pt_clust_5="39.60049" pt_clust_6="62.97523"></scales>
<clustering>
<clus scale="   39.600">  3  5 -1 -1</clus>
<clus scale="   62.975">  1  6  2 -1</clus>
<clus scale="  135.124">  2  4  1 -1</clus>
<clus scale="  135.124">  2  3  1 -1</clus>
</clustering>
</event>
<event>
 6    0  0.1849053E+002  0.1839130E+03  0.7546771E-02  0.1164069E+00
          1   -1    0    0  505    0 -0.00000000000E+00  0.00000000000E+00  0.57194038061E+03  0.57194038061E+03  0.00000000000E+00 0.  1.
         21   -1    0    0  504  502  0.00000000000E+00 -0.00000000000E+00 -0.67264089682E+03  0.67264089682E+03  0.00000000000E+00 0.  1.
         21    1    1    2  503  502  0.19727195844E+02 -0.70498656716E+02  0.42682703167E+01  0.73331036991E+02  0.00000000000E+00 0.  1.
         21    1    1    2  504  501  0.18374788466E+03  0.29582999898E+01 -0.58277876702E+03  0.61106720412E+03  0.00000000000E+00 0.  1.
         21    1    1    2  505  503 -0.14001819113E+02 -0.48274457150E+02  0.25639195367E+02  0.56425548209E+02  0.00000000000E+00 0.  1.
          1    1    1    2  501    0 -0.18947326139E+03  0.11581481388E+03  0.45217078514E+03  0.50375748811E+03  0.00000000000E+00 0.  1.
<scales pt_clust_3="126.26288" pt_clust_4="183.91301" pt_clust_5="35.17943" pt_clust_6="14000.00000"></scales>
<clustering>
<clus scale="   35.179">  3  5 -1 -1</clus>
<clus scale="  126.263">  1  3  2 -1</clus>
<clus scale="  183.913">  2  4  1 -1</clus>
<clus scale="  183.913">  2  3  1 -1</clus>
</clustering>
</event>
<event>
 6    0  0.1849053E+002  0.7546550E+02  0.7546771E-02  0.1342436E+00
         -3   -1    0    0    0  501 -0.00000000000E+00  0.00000000000E+00  0.38510366105E+03  0.38510366105E+03  0.00000000000E+00 0. -1.
         21   -1    0    0  503  502  0.00000000000E+00 -0.00000000000E+00 -0.25717674602E+03  0.25717674602E+03  0.00000000000E+00 0.  1.
         21    1    1    2  503  504  0.31921506586E+02 -0.23732627952E+02 -0.12656625023E+03  0.13266964954E+03  0.00000000000E+00 0.  1.
         21    1    1    2  504  501  0.76695558932E+02  0.44469109595E+02  0.12946134018E+03  0.15690745383E+03  0.00000000000E+00 0.  1.
         21    1    1    2  505  502 -0.67294088391E+02  0.38503213164E+02 -0.94128642339E+02  0.12194750127E+03  0.00000000000E+00 0.  1.
         -3    1    1    2    0  505 -0.41322977127E+02 -0.59239694807E+02  0.21916046742E+03  0.23075580244E+03  0.00000000000E+00 0. -1.
<scales pt_clust_3="39.77713" pt_clust_4="75.46550" pt_clust_5="44.26429" pt_clust_6="14000.00000"></scales>
<clustering>
<clus scale="   39.777">  2  3  1 -1</clus>
<clus scale="   44.264">  2  5  1 -1</clus>
<clus scale="   75.465">  2  4  1 -1</clus>
<clus scale="   39.777">  2  3  1 -1</clus>
</clustering>
</event>
<event>
 6    0  0.1849053E+002  0.2168733E+03  0.7546771E-02  0.1136236E+00
         21   -1    0    0  504  502  0.00000000000E+00  0.00000000000E+00  0.15120623811E+03  0.15120623811E+03  0.00000000000E+00 0.  1.
         -2   -1    0    0    0  501 -0.00000000000E+00 -0.00000000000E+00 -0.54561351402E+03  0.54561351402E+03  0.00000000000E+00 0.  1.
         21    1    1    2  503  505 -0.45098944485E+01  0.37244271578E+02 -0.33675481230E+02  0.50413420330E+02  0.00000000000E+00 0.  1.
         21    1    1    2  504  501 -0.47063523218E+02  0.49489965389E+02  0.22193539069E+02  0.71810758723E+02  0.00000000000E+00 0.  1.
         21    1    1    2  505  502 -0.60380242230E+02 -0.21514886784E+03 -0.10107367268E+03  0.24525638890E+03  0.00000000000E+00 0.  1.
         -2    1    1    2    0  503  0.11195365990E+03  0.12841463088E+03 -0.28185166107E+03  0.32933918418E+03  0.00000000000E+00 0.  1.
<scales pt_clust_3="35.32822" pt_clust_4="68.29518" pt_clust_5="203.38733" pt_clust_6="35.32822"></scales>
<clustering>
<clus scale="   35.328">  3  6 -1 -1</clus>
<clus scale="   68.295">  1  4  2 -1</clus>
<clus scale="  203.387">  1  5  2 -1</clus>
<clus scale="   68.295">  1  3  2 -1</clus>
</clustering>
</event>
<event>
 6    0  0.1849053E+002  0.1178345E+03  0.7546771E-02  0.1246713E+00
         21   -1    0    0  504  502  0.00000000000E+00  0.00000000000E+00  0.75749019673E+02  0.75749019673E+02  0.00000000000E+00 0. -1.
          2   -1    0    0  503    0 -0.00000000000E+00 -0.00000000000E+00 -0.28083730746E+04  0.28083730746E+04  0.00000000000E+00 0. -1.
         21    1    1    2  503  505 -0.31060042573E+02  0.38122611018E+02 -0.45270674657E+03  0.45536958408E+03  0.00000000000E+00 0.  1.
         21    1    1    2  504  501 -0.21702426862E+02 -0.54359484807E+02 -0.30747503779E+02  0.66116245423E+02  0.00000000000E+00 0. -1.
         21    1    1    2  505  502  0.58461863195E+02 -0.61701090415E+02  0.23843664311E+02  0.88279863697E+02  0.00000000000E+00 0. -1.
          2    1    1    2  501    0 -0.56993937608E+01  0.77937964205E+02 -0.22730134689E+04  0.22743564011E+04  0.00000000000E+00 0. -1.
<scales pt_clust_3="49.17377" pt_clust_4="58.04692" pt_clust_5="117.83450" pt_clust_6="14000.00000"></scales>
<clustering>
<clus scale="   49.174">  2  3  1 -1</clus>
<clus scale="   58.047">  1  4  2 -1</clus>
<clus scale="  117.835">  1  5  2 -1</clus>
<clus scale="   58.047">  1  3  2 -1</clus>
</clustering>
</event>
<event>
 6    0  0.1849053E+002  0.1244103E+03  0.7546771E-02  0.1235994E+00
         21   -1    0    0  504  502  0.00000000000E+00  0.00000000000E+00  0.23359299050E+03  0.23359299050E+03  0.00000000000E+00 0.  1.
          2   -1    0    0  503    0 -0.00000000000E+00 -0.00000000000E+00 -0.39881667713E+04  0.39881667713E+04  0.00000000000E+00 0. -1.
         21    1    1    2  503  502  0.42671267764E+02 -0.18089886115E+02  0.30379902646E+02  0.55416780465E+02  0.00000000000E+00 0. -1.
         21    1    1    2  504  505 -0.28172275917E+02  0.14262019065E+03  0.15917123905E+03  0.21556827051E+03  0.00000000000E+00 0.  1.
         21    1    1    2  505  501 -0.93289857908E+02 -0.68073953531E+02 -0.13819776746E+04  0.13867946329E+04  0.00000000000E+00 0. -1.
          2    1    1    2  501    0  0.78790866061E+02 -0.56456351006E+02 -0.25621472479E+04  0.25639800780E+04  0.00000000000E+00 0. -1.
<scales pt_clust_3="46.34740" pt_clust_4="14000.00000" pt_clust_5="124.41034" pt_clust_6="97.14680"></scales>
<clustering>
<clus scale="   46.347">  1  3  2 -1</clus>
<clus scale="   97.147">  2  6  1 -1</clus>
<clus scale="  124.410">  2  5  1 -1</clus>
<clus scale="   46.347">  1  3  2 -1</clus>
</clustering>
</event>
<event>
 6    0  0.1849053E+002  0.1656438E+03  0.7546771E-02  0.1182468E+00
          1   -1    0    0  504    0 -0.00000000000E+00  0.00000000000E+00  0.30933517061E+02  0.30933517061E+02  0.00000000000E+00 0.  1.
         21   -1    0    0  503  502  0.00000000000E+00 -0.00000000000E+00 -0.12377433922E+04  0.12377433922E+04  0.00000000000E+00 0.  1.
         21    1    1    2  503  501 -0.48454059826E+02  0.62498117233E+02 -0.17782175902E+03  0.19461343364E+03  0.00000000000E+00 0.  1.
         21    1    1    2  504  505  0.43484717336E+02 -0.79098032226E+02 -0.66373089413E+03  0.66984036842E+03  0.00000000000E+00 0.  1.
         21    1    1    2  505  502  0.25920151345E+02 -0.58672108737E+02 -0.28532777546E+03  0.29244864513E+03  0.00000000000E+00 0.  1.
          1    1    1    2  501    0 -0.20950808855E+02  0.75272023730E+02 -0.79929446515E+02  0.11177446206E+03  0.00000000000E+00 0.  1.
<scales pt_clust_3="59.97154" pt_clust_4="159.02134" pt_clust_5="32.54106" pt_clust_6="59.97154"></scales>
<clustering>
<clus scale="   32.541">  4  5 -1 -1</clus>
<clus scale="   59.972">  3  6 -1 -1</clus>
<clus scale="  159.021">  2  4  1 -1</clus>
<clus scale="  159.021">  2  3  1 -1</clus>
</clustering>
</event>
<event>
 6    0  0.1849053E+002  0.9828316E+02  0.7546771E-02  0.1283948E+00
         21   -1    0    0  503  502  0.00000000000E+00  0.00000000000E+00  0.30335643091E+02  0.30335643091E+02  0.00000000000E+00 0.  1.
          1   -1    0    0  504    0 -0.00000000000E+00 -0.00000000000E+00 -0.15419024815E+04  0.15419024815E+04  0.00000000000E+00 0.  1.
         21    1    1    2  503  501 -0.35474571979E+02 -0.26775899228E+02 -0.11410852151E+03  0.12245876334E+03  0.00000000000E+00 0.  1.
         21    1    1    2  504  505  0.19144185352E+02 -0.39400667979E+02 -0.48360911283E+03  0.48558900985E+03  0.00000000000E+00 0. -1.
         21    1    1    2  505  502 -0.67556402510E+02  0.58237262050E+02 -0.63048086085E+02  0.10922686194E+03  0.00000000000E+00 0.  1.
          1    1    1    2  501    0  0.83886789136E+02  0.79393051568E+01 -0.85080111802E+03  0.85496348950E+03  0.00000000000E+00 0.  1.
<scales pt_clust_3="45.64544" pt_clust_4="43.80539" pt_clust_5="14000.00000" pt_clust_6="98.28316"></scales>
<clustering>
<clus scale="   43.805">  2  4  1 -1</clus>
<clus scale="   45.645">  1  3  2 -1</clus>
<clus scale="   98.283">  2  6  1 -1</clus>
<clus scale="   45.645">  1  3  2 -1</clus>
</clustering>
</event>
<event>
 6    0  0.1849053E+002  0.1459654E+03  0.7546771E-02  0.1205520E+00
         21   -1    0    0  505  502  0.00000000000E+00  0.00000000000E+00  0.98478067952E+02  0.98478067952E+02  0.00000000000E+00 0. -1.
         -4   -1    0    0    0  501 -0.00000000000E+00 -0.00000000000E+00 -0.42378405836E+03  0.42378405836E+03  0.00000000000E+00 0. -1.
         21    1    1    2  503  502 -0.34470665045E+02  0.33697756686E+02  0.28276433042E+02  0.55886690901E+02  0.00000000000E+00 0.  1.
         21    1    1    2  504  503 -0.89306073157E+02  0.27846258764E+02 -0.16083597216E+02  0.94919286393E+02  0.00000000000E+00 0. -1.
         21    1    1    2  505  501  0.33913810943E+02  0.15018372310E+02 -0.82716843225E+02  0.90651940038E+02  0.00000000000E+00 0. -1.
         -4    1    1    2    0  504  0.89862927259E+02 -0.76562387759E+02 -0.25478198301E+03  0.28080420898E+03  0.00000000000E+00 0. -1.
<scales pt_clust_3="43.19360" pt_clust_4="43.19360" pt_clust_5="37.09040" pt_clust_6="133.49336"></scales>
<clustering>
<clus scale="   37.090">  2  5  1 -1</clus>
<clus scale="   43.194">  3  4 -1 -1</clus>
<clus scale="  133.493">  2  6  1 -1</clus>
<clus scale="  145.965">  1  3  2 -1</clus>
</clustering>
</event>
<event>
 6    0  0.1849053E+002  0.1431385E+03  0.7546771E-02  0.1209167E+00
         -1   -1    0    0    0  501 -0.00000000000E+00  0.00000000000E+00  0.24909184741E+04  0.24909184741E+04  0.00000000000E+00 0.  1.
         21   -1    0    0  503  502  0.00000000000E+00 -0.00000000000E+00 -0.18720356818E+02  0.18720356818E+02  0.00000000000E+00 0. -1.
         21    1    1    2  503  505  0.46224355916E+02 -0.53581050718E+01  0.16719099120E+03  0.17354603974E+03  0.00000000000E+00 0.  1.
         21    1    1    2  504  502  0.90914625014E+00 -0.13835534086E+03  0.44627753499E+03  0.46723298806E+03  0.00000000000E+00 0. -1.
         21    1    1    2  505  501 -0.46197801678E+02  0.16964455391E+01  0.28388002231E+03  0.28761950885E+03  0.00000000000E+00 0. -1.
         -1    1    1    2    0  504 -0.93570048816E+00  0.14201700039E+03  0.15748495688E+04  0.15812402943E+04  0.00000000000E+00 0.  1.
<scales pt_clust_3="42.97424" pt_clust_4="14000.00000" pt_clust_5="46.22894" pt_clust_6="143.13846"></scales>
<clustering>
<clus scale="   46.229">  1  5  2 -1</clus>
<clus scale="   42.974">  2  3  1 -1</clus>
<clus scale="  143.138">  1  6  2 -1</clus>
<clus scale="   42.974">  2  3  1 -1</clus>
</clustering>
</event>
<event>
 6    0  0.1849053E+002  0.1207051E+03  0.7546771E-02  0.1241938E+00
          1   -1    0    0  504    0 -0.00000000000E+00  0.00000000000E+00  0.48591060438E+02  0.48591060438E+02  0.00000000000E+00 0.  1.
         21   -1    0    0  503  502  0.00000000000E+00 -0.00000000000E+00 -0.74690074556E+03  0.74690074556E+03  0.00000000000E+00 0. -1.
         21    1    1    2  503  505  0.36895620617E+02  0.16790595976E+02 -0.15531618260E+03  0.16051893194E+03  0.00000000000E+00 0.  1.
         21    1    1    2  504  502  0.73016718693E+02 -0.50533611564E+02 -0.49200326719E+03  0.49995229975E+03  0.00000000000E+00 0. -1.
         21    1    1    2  505  501 -0.74218962101E+02 -0.73847033111E+00 -0.39501838178E+02  0.84079693703E+02  0.00000000000E+00 0.  1.
          1    1    1    2  501    0 -0.35693377210E+02  0.34481485918E+02 -0.11488397167E+02  0.50940880609E+02  0.00000000000E+00 0.  1.
<scales pt_clust_3="40.53654" pt_clust_4="110.26555" pt_clust_5="40.15296" pt_clust_6="40.15296"></scales>
<clustering>
<clus scale="   40.153">  5  6 -1 -1</clus>
<clus scale="   40.537">  2  3  1 -1</clus>
<clus scale="  110.266">  2  4  1 -1</clus>
<clus scale="   40.537">  2  3  1 -1</clus>
</clustering>
</event>
<event>
 6    0  0.1849053E+002  0.9385050E+02  0.7546771E-02  0.1293786E+00
         21   -1    0    0  504  502  0.00000000000E+00  0.00000000000E+00  0.71716509972E+03  0.71716509972E+03  0.00000000000E+00 0.  1.
         -4   -1    0    0    0  501 -0.00000000000E+00 -0.00000000000E+00 -0.17192308784E+04  0.17192308784E+04  0.00000000000E+00 0. -1.
         21    1    1    2  503  501 -0.24059672343E+02  0.43083686477E+02 -0.55528972606E+03  0.55747802804E+03  0.00000000000E+00 0. -1.
         21    1    1    2  504  503  0.69636701182E+02  0.59657451491E+02  0.68054581338E+03  0.68669562820E+03  0.00000000000E+00 0.  1.
         21    1    1    2  505  502  0.17489603712E+02 -0.24530644842E+02  0.22761517383E+02  0.37758779747E+02  0.00000000000E+00 0. -1.
         -4    1    1    2    0  505 -0.63066632552E+02 -0.78210493126E+02 -0.11500833834E+04  0.11544635422E+04  0.00000000000E+00 0. -1.
<scales pt_clust_3="49.29875" pt_clust_4="93.85050" pt_clust_5="30.12704" pt_clust_6="14000.00000"></scales>
<clustering>
<clus scale="   30.127">  1  5  2 -1</clus>
<clus scale="   49.299">  2  3  1 -1</clus>
<clus scale="   93.850">  1  4  2 -1</clus>
<clus scale="   30.127">  1  3  2 -1</clus>
</clustering>
</event>
<event>
 6    0  0.1849053E+002  0.9376445E+02  0.7546771E-02  0.1293983E+00
         -4   -1    0    0    0  501 -0.00000000000E+00  0.00000000000E+00  0.13295998926E+03  0.13295998926E+03  0.00000000000E+00 0.  1.
         21   -1    0    0  503  502  0.00000000000E+00 -0.00000000000E+00 -0.27658928773E+03  0.27658928773E+03  0.00000000000E+00 0. -1.
         21    1    1    2  503  501 -0.57112391654E+02 -0.43049136710E+02  0.13398031521E+02  0.72763732042E+02  0.00000000000E+00 0. -1.
         21    1    1    2  504  502 -0.37262905676E+02 -0.28787997224E+01 -0.10760518012E+03  0.11391087049E+03  0.00000000000E+00 0. -1.
         21    1    1    2  505  504 -0.15826697159E+02 -0.48831694718E+02 -0.57786601833E+02  0.77293661470E+02  0.00000000000E+00 0. -1.
         -4    1    1    2    0  505  0.11020199449E+03  0.94759631151E+02  0.83644519550E+01  0.14558101299E+03  0.00000000000E+00 0.  1.
<scales pt_clust_3="14000.00000" pt_clust_4="37.37394" pt_clust_5="58.83551" pt_clust_6="93.76445"></scales>
<clustering>
<clus scale="   37.374">  2  4  1 -1</clus>
<clus scale="   58.836">  2  5  1 -1</clus>
<clus scale="   93.764">  2  6  1 -1</clus>
<clus scale="   37.374">  2  3  1 -1</clus>
</clustering>
</event>
<event>
 6    0  0.1849053E+002  0.5737936E+02  0.7546771E-02  0.1409170E+00
         21   -1    0    0  501  502  0.00000000000E+00  0.00000000000E+00  0.59415169452E+03  0.59415169452E+03  0.00000000000E+00 0. -1.
          2   -1    0    0  504    0 -0.00000000000E+00 -0.00000000000E+00 -0.20412403428E+04  0.20412403428E+04  0.00000000000E+00 0.  1.
         21    1    1    2  503  505 -0.81111624557E+02  0.37209400619E+02  0.10768540018E+03  0.13985628532E+03  0.00000000000E+00 0.  1.
         21    1    1    2  504  503  0.48479511374E+02  0.44961856168E+02 -0.50693899804E+03  0.51123280339E+03  0.00000000000E+00 0.  1.
         21    1    1    2  505  502  0.44953996749E+02 -0.25987242355E+02  0.46624662412E+03  0.46912910067E+03  0.00000000000E+00 0. -1.
          2    1    1    2  501    0 -0.12321883566E+02 -0.56184014433E+02 -0.15140816745E+04  0.15151738479E+04  0.00000000000E+00 0.  1.
<scales pt_clust_3="38.93815" pt_clust_4="57.37936" pt_clust_5="51.92493" pt_clust_6="14000.00000"></scales>
<clustering>
<clus scale="   51.925">  1  5  2 -1</clus>
<clus scale="   38.938">  1  3  2 -1</clus>
<clus scale="   57.379">  1  4  2 -1</clus>
<clus scale="   51.925">  1  3  2 -1</clus>
</clustering>
</event>
<event>
 6    0  0.1849053E+002  0.1616088E+03  0.7546771E-02  0.1186892E+00
          2   -1    0    0  503    0 -0.00000000000E+00  0.00000000000E+00  0.12840050685E+04  0.12840050685E+04  0.00000000000E+00 0.  1.
         21   -1    0    0  501  502  0.00000000000E+00 -0.00000000000E+00 -0.77951023438E+02  0.77951023438E+02  0.00000000000E+00 0.  1.
         21    1    1    2  503  505 -0.75570585420E+02  0.10100844522E+03  0.59820073376E+03  0.61135729099E+03  0.00000000000E+00 0. -1.
         21    1    1    2  504  502  0.52040842960E+02 -0.62877949900E+02 -0.84045878420E+01  0.82051953154E+02  0.00000000000E+00 0.  1.
         21    1    1    2  505  504  0.56363591947E+02 -0.55109934146E+02  0.35227747648E+02  0.86342072845E+02  0.00000000000E+00 0.  1.
          2    1    1    2  501    0 -0.32833849487E+02  0.16979438829E+02  0.58103015148E+03  0.58220477492E+03  0.00000000000E+00 0.  1.
<scales pt_clust_3="155.41231" pt_clust_4="43.17851" pt_clust_5="43.17851" pt_clust_6="36.96435"></scales>
<clustering>
<clus scale="   36.964">  1  6  2 -1</clus>
<clus scale="   43.179">  4  5 -1 -1</clus>
<clus scale="  155.412">  1  3  2 -1</clus>
<clus scale="  161.609">  2  3  1 -1</clus>
</clustering>
</event>
<event>
 6    0  0.1849053E+002  0.1334524E+03  0.7546771E-02  0.1222421E+00
         21   -1    0    0  504  502  0.00000000000E+00  0.00000000000E+00  0.17798979335E+03  0.17798979335E+03  0.00000000000E+00 0.  1.
          1   -1    0    0  505    0 -0.00000000000E+00 -0.00000000000E+00 -0.21670330453E+04  0.21670330453E+04  0.00000000000E+00 0.  1.
         21    1    1    2  503  501  0.86540607100E+02 -0.32766593485E+02 -0.17128505762E+04  0.17153483677E+04  0.00000000000E+00 0.  1.
         21    1    1    2  504  503  0.83184628129E+02  0.30067993290E+02 -0.92111186339E+02  0.12770370874E+03  0.00000000000E+00 0. -1.
         21    1    1    2  505  502 -0.20135077532E+03 -0.52686192432E+01  0.93794419941E+02  0.22218750253E+03  0.00000000000E+00 0.  1.
          1    1    1    2  501    0  0.31625540088E+02  0.79672194389E+01 -0.27787590932E+03  0.27978325960E+03  0.00000000000E+00 0.  1.
<scales pt_clust_3="32.40814" pt_clust_4="88.45206" pt_clust_5="121.77653" pt_clust_6="32.40814"></scales>
<clustering>
<clus scale="   32.408">  3  6 -1 -1</clus>
<clus scale="   88.452">  1  4  2 -1</clus>
<clus scale="  121.777">  1  5  2 -1</clus>
<clus scale="   88.452">  1  3  2 -1</clus>
</clustering>
</event>
<event>
 6    0  0.1849053E+002  0.2089372E+03  0.7546771E-02  0.1142410E+00
         21   -1    0    0  505  502  0.00000000000E+00  0.00000000000E+00  0.16733760541E+03  0.16733760541E+03  0.00000000000E+00 0. -1.
          2   -1    0    0  503    0 -0.00000000000E+00 -0.00000000000E+00 -0.21466675391E+04  0.21466675391E+04  0.00000000000E+00 0.  1.
         21    1    1    2  503  504 -0.51889049080E+02 -0.38653391198E+02 -0.24081524424E+03  0.24935625102E+03  0.00000000000E+00 0.  1.
         21    1    1    2  504  502 -0.21453139812E+03 -0.10295403868E+03  0.26436899406E+02  0.23942047638E+03  0.00000000000E+00 0. -1.
         21    1    1    2  505  501  0.15559418836E+03 -0.38972416028E+01 -0.22001230433E+03  0.26949982189E+03  0.00000000000E+00 0.  1.
          2    1    1    2  501    0  0.11082625884E+03  0.14550467148E+03 -0.15449392845E+04  0.15557285952E+04  0.00000000000E+00 0.  1.
<scales pt_clust_3="64.70362" pt_clust_4="14000.00000" pt_clust_5="208.93723" pt_clust_6="133.00078"></scales>
<clustering>
<clus scale="   64.704">  2  3  1 -1</clus>
<clus scale="  133.001">  2  6  1 -1</clus>
<clus scale="  208.937">  2  5  1 -1</clus>
<clus scale="  208.937">  1  3  2 -1</clus>
</clustering>
</event>
<event>
 6    0  0.1849053E+002  0.1301434E+03  0.7546771E-02  0.1227243E+00
         -4   -1    0    0    0  501 -0.00000000000E+00  0.00000000000E+00  0.12340703132E+03  0.12340703132E+03  0.00000000000E+00 0. -1.
         21   -1    0    0  505  502  0.00000000000E+00 -0.00000000000E+00 -0.53170666575E+03  0.53170666575E+03  0.00000000000E+00 0.  1.
         21    1    1    2  503  504 -0.68799036085E+02 -0.50969844669E+02  0.28973096028E+02  0.90391773549E+02  0.00000000000E+00 0.  1.
         21    1    1    2  504  502  0.22808553787E+02  0.23350177408E+02 -0.42772405939E+02  0.53804643114E+02  0.00000000000E+00 0. -1.
         21    1    1    2  505  501  0.87240596076E+02  0.25732949837E+02 -0.44009910370E+03  0.44939996372E+03  0.00000000000E+00 0.  1.
         -4    1    1    2    0  503 -0.41250113777E+02  0.18867174245E+01  0.45598779185E+02  0.61517316688E+02  0.00000000000E+00 0. -1.
<scales pt_clust_3="38.30458" pt_clust_4="32.64140" pt_clust_5="118.07571" pt_clust_6="38.30458"></scales>
<clustering>
<clus scale="   32.641">  2  4  1 -1</clus>
<clus scale="   38.305">  3  6 -1 -1</clus>
<clus scale="  118.076">  2  5  1 -1</clus>
<clus scale="   32.641">  2  3  1 -1</clus>
</clustering>
</event>
<event>
 6    0  0.1849053E+002  0.1289470E+03  0.7546771E-02  0.1229027E+00
          1   -1    0    0  505    0 -0.00000000000E+00  0.00000000000E+00  0.18048296051E+04  0.18048296051E+04  0.00000000000E+00 0.  1.
         21   -1    0    0  501  502  0.00000000000E+00 -0.00000000000E+00 -0.65736606362E+02  0.65736606362E+02  0.00000000000E+00 0. -1.
         21    1    1    2  503  504  0.26001300327E+02  0.83283486669E+02  0.28250785499E+02  0.91707762222E+02  0.00000000000E+00 0. -1.
         21    1    1    2  504  502  0.26679853506E+02  0.26381932098E+02 -0.18839443849E+02  0.41985063640E+02  0.00000000000E+00 0. -1.
         21    1    1    2  505  503 -0.18475755524E+01 -0.44873434415E+02  0.11989063635E+04  0.11997472680E+04  0.00000000000E+00 0.  1.
          1    1    1    2  501    0 -0.50833578280E+02 -0.64791984352E+02  0.53077529363E+03  0.53712611763E+03  0.00000000000E+00 0.  1.
<scales pt_clust_3="35.81907" pt_clust_4="35.81907" pt_clust_5="44.91145" pt_clust_6="116.80723"></scales>
<clustering>
<clus scale="   35.819">  3  4 -1 -1</clus>
<clus scale="   44.911">  1  5  2 -1</clus>
<clus scale="  116.807">  1  6  2 -1</clus>
<clus scale="  128.947">  2  3  1 -1</clus>
</clustering>
</event>
<event>
 6    0  0.1849053E+002  0.1079685E+03  0.7546771E-02  0.1264379E+00
          1   -1    0    0  505    0 -0.00000000000E+00  0.00000000000E+00  0.81972157579E+03  0.81972157579E+03  0.00000000000E+00 0. -1.
         21   -1    0    0  503  502  0.00000000000E+00 -0.00000000000E+00 -0.37491104542E+03  0.37491104542E+03  0.00000000000E+00 0.  1.
         21    1    1    2  503  501  0.40066936271E+02 -0.57126569677E+02 -0.62595061396E+02  0.93738711621E+02  0.00000000000E+00 0.  1.
         21    1    1    2  504  502  0.64568669464E+02  0.45132141696E+01 -0.27542112968E+03  0.28292451441E+03  0.00000000000E+00 0.  1.
         21    1    1    2  505  504 -0.19389406957E+02 -0.47350641464E+02  0.43791525834E+02  0.67347829097E+02  0.00000000000E+00 0.  1.
          1    1    1    2  501    0 -0.85246198777E+02  0.99963996972E+02  0.73903519562E+03  0.75062156608E+03  0.00000000000E+00 0. -1.
<scales pt_clust_3="14000.00000" pt_clust_4="64.61543" pt_clust_5="51.16671" pt_clust_6="107.96855"></scales>
<clustering>
<clus scale="   51.167">  1  5  2 -1</clus>
<clus scale="   64.615">  2  4  1 -1</clus>
<clus scale="  107.969">  1  6  2 -1</clus>
<clus scale="   64.615">  2  3  1 -1</clus>
</clustering>
</event>
<event>
 6    0  0.1849053E+002  0.4215097E+03  0.7546771E-02  0.1036576E+00
         21   -1    0    0  505  502  0.00000000000E+00  0.00000000000E+00  0.44528860935E+03  0.44528860935E+03  0.00000000000E+00 0.  1.
          2   -1    0    0  504    0 -0.00000000000E+00 -0.00000000000E+00 -0.15932960075E+04  0.15932960075E+04  0.00000000000E+00 0. -1.
         21    1    1    2  503  502  0.12623027638E+03 -0.24754968122E+03  0.18672067531E+03  0.33478282205E+03  0.00000000000E+00 0.  1.
         21    1    1    2  504  503  0.66677078758E+01 -0.14242631633E+03  0.12263187560E+03  0.18806459216E+03  0.00000000000E+00 0.  1.
         21    1    1    2  505  501 -0.85875911611E+02  0.24353954738E+03 -0.80098030204E+03  0.84157924617E+03  0.00000000000E+00 0. -1.
          2    1    1    2  501    0 -0.47022072647E+02  0.14643645018E+03 -0.65637964702E+03  0.67415795648E+03  0.00000000000E+00 0. -1.
<scales pt_clust_3="63.77775" pt_clust_4="63.77775" pt_clust_5="47.68631" pt_clust_6="416.60682"></scales>
<clustering>
<clus scale="   47.686">  5  6 -1 -1</clus>
<clus scale="   63.778">  3  4 -1 -1</clus>
<clus scale="  416.607">  2  5  1 -1</clus>
<clus scale="  421.510">  1  3  2 -1</clus>
</clustering>
</event>
<event>
 6    0  0.1849053E+002  0.1044445E+03  0.7546771E-02  0.1271218E+00
         21   -1    0    0  504  502  0.00000000000E+00  0.00000000000E+00  0.10426673305E+03  0.10426673305E+03  0.00000000000E+00 0. -1.
          1   -1    0    0  503    0 -0.00000000000E+00 -0.00000000000E+00 -0.17487704516E+04  0.17487704516E+04  0.00000000000E+00 0.  1.
         21    1    1    2  503  505  0.17129827869E+01 -0.35704591290E+02 -0.26816522419E+03  0.27053713167E+03  0.00000000000E+00 0. -1.
         21    1    1    2  504  501 -0.31660704003E+01 -0.35732373993E+02  0.35207034950E+02  0.50262927322E+02  0.00000000000E+00 0. -1.
         21    1    1    2  505  502  0.87312849498E+02 -0.26708478048E+02  0.21064308517E+02  0.93704757512E+02  0.00000000000E+00 0. -1.
          1    1    1    2  501    0 -0.85859761885E+02  0.98145443331E+02 -0.14326098378E+04  0.14385323682E+04  0.00000000000E+00 0.  1.
<scales pt_clust_3="35.74566" pt_clust_4="36.05258" pt_clust_5="14000.00000" pt_clust_6="104.44451"></scales>
<clustering>
<clus scale="   35.746">  2  3  1 -1</clus>
<clus scale="   36.053">  1  4  2 -1</clus>
<clus scale="  104.445">  2  6  1 -1</clus>
<clus scale="   36.053">  1  3  2 -1</clus>
</clustering>
</event>
<event>
 6    0  0.1849053E+002  0.2256829E+03  0.7546771E-02  0.1129716E+00
         -1   -1    0    0    0  501 -0.00000000000E+00  0.00000000000E+00  0.14514157187E+03  0.14514157187E+03  0.00000000000E+00 0.  1.
         21   -1    0    0  505  502  0.00000000000E+00 -0.00000000000E+00 -0.34123793080E+03  0.34123793080E+03  0.00000000000E+00 0.  1.
         21    1    1    2  503  501 -0.12502774919E+03 -0.58213371248E+02 -0.36302480910E+02  0.14261348036E+03  0.00000000000E+00 0.  1.
         21    1    1    2  504  502  0.49614347820E+02  0.45968259326E+02 -0.15421177503E+02  0.69372019508E+02  0.00000000000E+00 0. -1.
         21    1    1    2  505  503 -0.67351118781E+02 -0.30351643568E+02 -0.88493095598E+02  0.11527542425E+03  0.00000000000E+00 0.  1.
         -1    1    1    2    0  504  0.14276452015E+03  0.42596755489E+02 -0.55879604913E+02  0.15911857855E+03  0.00000000000E+00 0.  1.
<scales pt_clust_3="57.06482" pt_clust_4="32.10746" pt_clust_5="57.06482" pt_clust_6="217.08098"></scales>
<clustering>
<clus scale="   32.107">  4  6 -1 -1</clus>
<clus scale="   57.065">  3  5 -1 -1</clus>
<clus scale="  217.081">  1  4  2 -1</clus>
<clus scale="  225.683">  2  3  1 -1</clus>
</clustering>
</event>
<event>
 6    0  0.1849053E+002  0.8297624E+02  0.7546771E-02  0.1320811E+00
          2   -1    0    0  505    0 -0.00000000000E+00  0.00000000000E+00  0.88570564387E+03  0.88570564387E+03  0.00000000000E+00 0. -1.
         21   -1    0    0  504  502  0.00000000000E+00 -0.00000000000E+00 -0.45240405921E+03  0.45240405921E+03  0.00000000000E+00 0. -1.
         21    1    1    2  503  502 -0.22831754473E+02 -0.75895969241E+02 -0.32966107891E+03  0.33905444121E+03  0.00000000000E+00 0. -1.
         21    1    1    2  504  501 -0.11252531871E+02  0.11087972039E+03 -0.86736787036E+02  0.14122394305E+03  0.00000000000E+00 0. -1.
         21    1    1    2  505  503 -0.13439459247E+02 -0.55436597404E+02  0.27777731704E+03  0.28357375277E+03  0.00000000000E+00 0. -1.
          2    1    1    2  501    0  0.47523745591E+02  0.20452846259E+02  0.57192213356E+03  0.57425756605E+03  0.00000000000E+00 0. -1.
<scales pt_clust_3="82.97624" pt_clust_4="14000.00000" pt_clust_5="47.20973" pt_clust_6="51.73805"></scales>
<clustering>
<clus scale="   51.738">  1  6  2 -1</clus>
<clus scale="   47.210">  1  5  2 -1</clus>
<clus scale="   82.976">  2  3  1 -1</clus>
<clus scale="   82.976">  2  3  1 -1</clus>
</clustering>
</event>
<event>
 6    0  0.1849053E+002  0.1379526E+03  0.7546771E-02  0.1216111E+00
         21   -1    0    0  503  502  0.00000000000E+00  0.00000000000E+00  0.72923511645E+03  0.72923511645E+03  0.00000000000E+00 0. -1.
          1   -1    0    0  504    0 -0.00000000000E+00 -0.00000000000E+00 -0.27264705478E+03  0.27264705478E+03  0.00000000000E+00 0. -1.
         21    1    1    2  503  505  0.30343252988E+02 -0.14510171978E+02  0.34420575210E+02  0.48125191849E+02  0.00000000000E+00 0. -1.
         21    1    1    2  504  502 -0.12455294869E+03 -0.77351487329E+02  0.66155856429E+03  0.67761082017E+03  0.00000000000E+00 0. -1.
         21    1    1    2  505  501  0.45533811595E+02  0.48199829068E+02 -0.80275946734E+02  0.10411906235E+03  0.00000000000E+00 0. -1.
          1    1    1    2  501    0  0.48675884111E+02  0.43661830239E+02 -0.15911513110E+03  0.17202709687E+03  0.00000000000E+00 0. -1.
<scales pt_clust_3="33.63418" pt_clust_4="131.89523" pt_clust_5="40.13193" pt_clust_6="40.13193"></scales>
<clustering>
<clus scale="   33.634">  1  3  2 -1</clus>
<clus scale="   40.132">  5  6 -1 -1</clus>
<clus scale="  131.895">  1  4  2 -1</clus>
<clus scale="   33.634">  1  3  2 -1</clus>
</clustering>
</event>
<event>
 6    0  0.1849053E+002  0.7016267E+02  0.7546771E-02  0.1359541E+00
         21   -1    0    0  501  502  0.00000000000E+00  0.00000000000E+00  0.98366970197E+02  0.98366970197E+02  0.00000000000E+00 0.  1.
          2   -1    0    0  504    0 -0.00000000000E+00 -0.00000000000E+00 -0.44523865535E+04  0.44523865535E+04  0.00000000000E+00 0. -1.
         21    1    1    2  503  502 -0.29549669072E+02 -0.63467292956E+02  0.76659803911E+02  0.10381717465E+03  0.00000000000E+00 0.  1.
         21    1    1    2  504  505  0.95428306179E+01 -0.49801683044E+02 -0.27441895985E+03  0.27906457814E+03  0.00000000000E+00 0.  1.
         21    1    1    2  505  503 -0.61841585962E+02  0.24947567471E+02 -0.22271887876E+03  0.23248755199E+03  0.00000000000E+00 0.  1.
          2    1    1    2  501    0  0.81848424416E+02  0.88321408529E+02 -0.39335415486E+04  0.39353842189E+04  0.00000000000E+00 0. -1.
<scales pt_clust_3="14000.00000" pt_clust_4="50.70772" pt_clust_5="65.22748" pt_clust_6="70.16267"></scales>
<clustering>
<clus scale="   50.708">  2  4  1 -1</clus>
<clus scale="   65.227">  2  5  1 -1</clus>
<clus scale="   70.163">  2  6  1 -1</clus>
<clus scale="   70.163">  1  3  2 -1</clus>
</clustering>
</event>
<event>
 6    0  0.1849053E+002  0.1098786E+03  0.7546771E-02  0.1260795E+00
         21   -1    0    0  504  502  0.00000000000E+00  0.00000000000E+00  0.23418097940E+04  0.23418097940E+04  0.00000000000E+00 0.  1.
         -4   -1    0    0    0  501 -0.00000000000E+00 -0.00000000000E+00 -0.17564742679E+02  0.17564742679E+02  0.00000000000E+00 0.  1.
         21    1    1    2  503  501  0.73351636064E+02  0.27256955850E+02  0.42897097252E+03  0.43604988180E+03  0.00000000000E+00 0.  1.
         21    1    1    2  504  503  0.42677843420E+02  0.16375393140E+02  0.11934044937E+04  0.11942796311E+04  0.00000000000E+00 0.  1.
         21    1    1    2  505  502  0.20178236364E+02 -0.23333510576E+02  0.34736205245E+03  0.34872913475E+03  0.00000000000E+00 0.  1.
         -4    1    1    2    0  505 -0.13620771585E+03 -0.20298838413E+02  0.35450753265E+03  0.38031588897E+03  0.00000000000E+00 0.  1.
<scales pt_clust_3="14000.00000" pt_clust_4="54.81305" pt_clust_5="30.84824" pt_clust_6="109.87860"></scales>
<clustering>
<clus scale="   30.848">  1  5  2 -1</clus>
<clus scale="   54.813">  1  4  2 -1</clus>
<clus scale="  109.879">  2  6  1 -1</clus>
<clus scale="   30.848">  1  3  2 -1</clus>
</clustering>
</event>
<event>
 6    0  0.1849053E+002  0.8086444E+02  0.7546771E-02  0.1326616E+00
          2   -1    0    0  505    0 -0.00000000000E+00  0.00000000000E+00  0.87397608547E+03  0.87397608547E+03  0.00000000000E+00 0. -1.
         21   -1    0    0  504  502  0.00000000000E+00 -0.00000000000E+00 -0.30933331337E+02  0.30933331337E+02  0.00000000000E+00 0.  1.
         21    1    1    2  503  502  0.10663243527E+03 -0.18105152555E+02  0.14583105513E+03  0.18156257720E+03  0.00000000000E+00 0.  1.
         21    1    1    2  504  501 -0.63038267358E+02  0.26455026780E+01  0.98981568994E+02  0.11738046190E+03  0.00000000000E+00 0.  1.
         21    1    1    2  505  503 -0.15584895003E+01  0.42585302335E+02  0.19229812914E+03  0.19696321316E+03  0.00000000000E+00 0.  1.
          2    1    1    2  501    0 -0.42035678412E+02 -0.27125652458E+02  0.40593200087E+03  0.40900316455E+03  0.00000000000E+00 0. -1.
<scales pt_clust_3="14000.00000" pt_clust_4="80.86444" pt_clust_5="42.61381" pt_clust_6="42.99961"></scales>
<clustering>
<clus scale="   42.614">  1  5  2 -1</clus>
<clus scale="   43.000">  1  6  2 -1</clus>
<clus scale="   80.864">  2  4  1 -1</clus>
<clus scale="   80.864">  2  3  1 -1</clus>
</clustering>
</event>
<event>
 6    0  0.1849053E+002  0.1556300E+03  0.7546771E-02  0.1193721E+00
         21   -1    0    0  504  502  0.00000000000E+00  0.00000000000E+00  0.99856876041E+02  0.99856876041E+02  0.00000000000E+00 0. -1.
          2   -1    0    0  505    0 -0.00000000000E+00 -0.00000000000E+00 -0.95543962746E+03  0.95543962746E+03  0.00000000000E+00 0.  1.
         21    1    1    2  503  502  0.42453950106E+02 -0.78060900213E+01 -0.19388649390E+02  0.47320108265E+02  0.00000000000E+00 0. -1.
         21    1    1    2  504  501  0.33815037187E+02  0.85267338474E+02  0.16388411941E+02  0.93180232862E+02  0.00000000000E+00 0. -1.
         21    1    1    2  505  503  0.61375394565E+02  0.88767971961E+02 -0.19728095976E+03  0.22486989347E+03  0.00000000000E+00 0. -1.
          2    1    1    2  501    0 -0.13764438186E+03 -0.16622922041E+03 -0.65530155421E+03  0.68992626890E+03  0.00000000000E+00 0.  1.
<scales pt_clust_3="43.16565" pt_clust_4="100.76831" pt_clust_5="155.62996" pt_clust_6="14000.00000"></scales>
<clustering>
<clus scale="   43.166">  1  3  2 -1</clus>
<clus scale="  100.768">  1  4  2 -1</clus>
<clus scale="  155.630">  2  5  1 -1</clus>
<clus scale="   43.166">  1  3  2 -1</clus>
</clustering>
</event>
<event>
 6    0  0.1849053E+002  0.1074911E+03  0.7546771E-02  0.1265288E+00
          2   -1    0    0  505    0 -0.00000000000E+00  0.00000000000E+00  0.80537850134E+03  0.80537850134E+03  0.00000000000E+00 0.  1.
         21   -1    0    0  504  502  0.00000000000E+00 -0.00000000000E+00 -0.18611597255E+03  0.18611597255E+03  0.00000000000E+00 0.  1.
         21    1    1    2  503  502 -0.17973133780E+02  0.14885280263E+03 -0.35758076530E+02  0.15413899709E+03  0.00000000000E+00 0.  1.
         21    1    1    2  504  501 -0.33711220771E+01 -0.43853487123E+02 -0.79915052117E+02  0.91219013105E+02  0.00000000000E+00 0. -1.
         21    1    1    2  505  503  0.12058071189E+02 -0.31816262393E+02  0.78340730656E+02  0.85410430939E+02  0.00000000000E+00 0.  1.
          2    1    1    2  501    0  0.92861846678E+01 -0.73183053111E+02  0.65659492677E+03  0.66072603275E+03  0.00000000000E+00 0.  1.
<scales pt_clust_3="107.49110" pt_clust_4="44.22361" pt_clust_5="34.02457" pt_clust_6="14000.00000"></scales>
<clustering>
<clus scale="   34.025">  1  5  2 -1</clus>
<clus scale="   44.224">  2  4  1 -1</clus>
<clus scale="  107.491">  2  3  1 -1</clus>
<clus scale="   44.224">  2  3  1 -1</clus>
</clustering>
</event>
<event>
 6    0  0.1849053E+002  0.1511977E+03  0.7546771E-02  0.1199009E+00
         21   -1    0    0  501  502  0.00000000000E+00  0.00000000000E+00  0.29969222477E+03  0.29969222477E+03  0.00000000000E+00 0. -1.
         -1   -1    0    0    0  501 -0.00000000000E+00 -0.00000000000E+00 -0.10447630692E+03  0.10447630692E+03  0.00000000000E+00 0.  1.
         21    1    1    2  503  505 -0.71838593842E+02  0.45651254635E+02  0.87801741354E+02  0.12228641135E+03  0.00000000000E+00 0. -1.
         21    1    1    2  504  503  0.63045432904E+02 -0.20710308785E+02  0.13398217275E+02  0.67699008310E+02  0.00000000000E+00 0. -1.
         21    1    1    2  505  502 -0.46125862773E+02  0.34006171857E+02  0.11710430208E+03  0.13037420185E+03  0.00000000000E+00 0. -1.
         -1    1    1    2    0  504  0.54919023711E+02 -0.58947117707E+02 -0.23088342852E+02  0.83808910189E+02  0.00000000000E+00 0.  1.
<scales pt_clust_3="147.82050" pt_clust_4="46.27539" pt_clust_5="32.71826" pt_clust_6="46.27539"></scales>
<clustering>
<clus scale="   32.718">  3  5 -1 -1</clus>
<clus scale="   46.275">  4  6 -1 -1</clus>
<clus scale="  147.820">  1  3  2 -1</clus>
<clus scale="  147.820">  1  3  2 -1</clus>
</clustering>
</event>
<event>
 6    0  0.1849053E+002  0.1238912E+03  0.7546771E-02  0.1236812E+00
         21   -1    0    0  503  502  0.00000000000E+00  0.00000000000E+00  0.51994424713E+02  0.51994424713E+02  0.00000000000E+00 0.  1.
          1   -1    0    0  502    0 -0.00000000000E+00 -0.00000000000E+00 -0.79919557387E+03  0.79919557387E+03  0.00000000000E+00 0. -1.
         21    1    1    2  503  505 -0.72309594618E+01 -0.56675514551E+02  0.52285856150E+01  0.57373677169E+02  0.00000000000E+00 0.  1.
         21    1    1    2  504  501  0.31981279385E+01  0.76575459575E+02 -0.27752097012E+03  0.28790956546E+03  0.00000000000E+00 0. -1.
         21    1    1    2  505  504 -0.29808149002E+02 -0.76667509047E+02 -0.12383036057E+03  0.14866200217E+03  0.00000000000E+00 0.  1.
          1    1    1    2  501    0  0.33840980525E+02  0.56767564022E+02 -0.35107840409E+03  0.35724475378E+03  0.00000000000E+00 0. -1.
<scales pt_clust_3="57.13493" pt_clust_4="40.84452" pt_clust_5="115.82044" pt_clust_6="40.84452"></scales>
<clustering>
<clus scale="   40.845">  4  6 -1 -1</clus>
<clus scale="   57.135">  1  3  2 -1</clus>
<clus scale="  115.820">  1  5  2 -1</clus>
<clus scale="   57.135">  1  3  2 -1</clus>
</clustering>
</event>
<event>
 6    0  0.1849053E+002  0.1325195E+03  0.7546771E-02  0.1223764E+00
         21   -1    0    0  504  502  0.00000000000E+00  0.00000000000E+00  0.13524649041E+03  0.13524649041E+03  0.00000000000E+00 0. -1.
         -3   -1    0    0    0  501 -0.00000000000E+00 -0.00000000000E+00 -0.39562429471E+03  0.39562429471E+03  0.00000000000E+00 0. -1.
         21    1    1    2  503  505 -0.33419192424E+02 -0.48167955108E+02  0.12820343596E+02  0.60011295033E+02  0.00000000000E+00 0. -1.
         21    1    1    2  504  503  0.29000787206E+00 -0.67562597606E+02  0.70065251262E+02  0.97334105709E+02  0.00000000000E+00 0. -1.
         21    1    1    2  505  501 -0.27000227691E+02  0.20678717147E+02 -0.64267356690E+02  0.72711173654E+02  0.00000000000E+00 0. -1.
         -3    1    1    2    0  502  0.60129412243E+02  0.95051835567E+02 -0.27899604247E+03  0.30081421073E+03  0.00000000000E+00 0. -1.
<scales pt_clust_3="54.60566" pt_clust_4="54.60566" pt_clust_5="34.00914" pt_clust_6="119.01668"></scales>
<clustering>
<clus scale="   34.009">  2  5  1 -1</clus>
<clus scale="   54.606">  3  4 -1 -1</clus>
<clus scale="  119.017">  2  6  1 -1</clus>
<clus scale="  132.520">  1  3  2 -1</clus>
</clustering>
</event>
<event>
 6    0  0.1849053E+002  0.1270829E+03  0.7546771E-02  0.1231850E+00
          2   -1    0    0  505    0 -0.00000000000E+00  0.00000000000E+00  0.25785392897E+03  0.25785392897E+03  0.00000000000E+00 0. -1.
         21   -1    0    0  503  502  0.00000000000E+00 -0.00000000000E+00 -0.11149570856E+04  0.11149570856E+04  0.00000000000E+00 0. -1.
         21    1    1    2  503  501 -0.16872483542E+02 -0.70626108707E+02  0.64556426494E+02  0.97161001094E+02  0.00000000000E+00 0. -1.
         21    1    1    2  504  502 -0.14571840919E+02  0.67588875582E+02 -0.78457657944E+03  0.78761729517E+03  0.00000000000E+00 0. -1.
         21    1    1    2  505  504 -0.26141957792E+01  0.53195825521E+02 -0.30494295854E+03  0.30955910233E+03  0.00000000000E+00 0.  1.
          2    1    1    2  501    0  0.34058520240E+02 -0.50158592396E+02  0.16785995480E+03  0.17847361603E+03  0.00000000000E+00 0. -1.
<scales pt_clust_3="119.54553" pt_clust_4="37.84082" pt_clust_5="37.84082" pt_clust_6="60.62893"></scales>
<clustering>
<clus scale="   37.841">  4  5 -1 -1</clus>
<clus scale="   60.629">  1  6  2 -1</clus>
<clus scale="  119.546">  1  3  2 -1</clus>
<clus scale="  127.083">  2  3  1 -1</clus>
</clustering>
</event>
<event>
 6    0  0.1849053E+002  0.9413537E+02  0.7546771E-02  0.1293135E+00
         -2   -1    0    0    0  501 -0.00000000000E+00  0.00000000000E+00  0.89028785274E+03  0.89028785274E+03  0.00000000000E+00 0.  1.
         21   -1    0    0  504  502  0.00000000000E+00 -0.00000000000E+00 -0.64476820972E+02  0.64476820972E+02  0.00000000000E+00 0.  1.
         21    1    1    2  503  502 -0.48516228424E+02  0.60359468784E+01  0.36911082048E+01  0.49029392766E+02  0.00000000000E+00 0.  1.
         21    1    1    2  504  505  0.68546584576E+02  0.59054537990E+01  0.15567239833E+02  0.70539688103E+02  0.00000000000E+00 0.  1.
         21    1    1    2  505  501  0.33505675416E+02  0.82777508614E+02  0.53931352969E+03  0.54665695781E+03  0.00000000000E+00 0.  1.
         -2    1    1    2    0  503 -0.53536031568E+02 -0.94718909292E+02  0.26723915405E+03  0.28853863504E+03  0.00000000000E+00 0.  1.
<scales pt_clust_3="48.89026" pt_clust_4="37.95660" pt_clust_5="94.13537" pt_clust_6="14000.00000"></scales>
<clustering>
<clus scale="   48.890">  2  3  1 -1</clus>
<clus scale="   37.957">  2  4  1 -1</clus>
<clus scale="   94.135">  1  5  2 -1</clus>
<clus scale="   48.890">  2  3  1 -1</clus>
</clustering>
</event>
<event>
 6    0  0.1849053E+002  0.2661374E+03  0.7546771E-02  0.1103511E+00
         -3   -1    0    0    0  501 -0.00000000000E+00  0.00000000000E+00  0.42796131206E+03  0.42796131206E+03  0.00000000000E+00 0. -1.
         21   -1    0    0  503  502  0.00000000000E+00 -0.00000000000E+00 -0.58852167696E+03  0.58852167696E+03  0.00000000000E+00 0.  1.
         21    1    1    2  503  505 -0.30994200489E+02  0.26357632738E+02 -0.19463444155E+03  0.19884147230E+03  0.00000000000E+00 0.  1.
         21    1    1    2  504  502  0.11909879892E+02  0.11063663251E+03  0.86108714412E+02  0.14070188481E+03  0.00000000000E+00 0.  1.
         21    1    1    2  505  501 -0.76784783969E+02 -0.24201651135E+03 -0.29881604512E+03  0.39212105738E+03  0.00000000000E+00 0.  1.
         -3    1    1    2    0  504  0.95869104566E+02  0.10502224610E+03  0.24678140736E+03  0.28481857454E+03  0.00000000000E+00 0. -1.
<scales pt_clust_3="40.68618" pt_clust_4="98.14008" pt_clust_5="242.28564" pt_clust_6="98.14008"></scales>
<clustering>
<clus scale="   40.686">  2  3  1 -1</clus>
<clus scale="   98.140">  4  6 -1 -1</clus>
<clus scale="  242.286">  2  5  1 -1</clus>
<clus scale="   40.686">  2  3  1 -1</clus>
</clustering>
</event>
<event>
 6    0  0.1849053E+002  0.2257916E+03  0.7546771E-02  0.1129637E+00
          2   -1    0    0  504    0 -0.00000000000E+00  0.00000000000E+00  0.88516480697E+03  0.88516480697E+03  0.00000000000E+00 0.  1.
         21   -1    0    0  503  502  0.00000000000E+00 -0.00000000000E+00 -0.87923420739E+02  0.87923420739E+02  0.00000000000E+00 0. -1.
         21    1    1    2  503  505 -0.45807233263E+02 -0.87684984655E+02  0.26297584695E+02  0.10236465266E+03  0.00000000000E+00 0. -1.
         21    1    1    2  504  502 -0.37067657569E+02  0.69874147053E+02  0.12998198865E+03  0.15215690926E+03  0.00000000000E+00 0. -1.
         21    1    1    2  505  501 -0.79436951628E+02 -0.87688942582E+02  0.15161018493E+03  0.19231543908E+03  0.00000000000E+00 0. -1.
          2    1    1    2  501    0  0.16231184246E+03  0.10549978018E+03  0.48935162796E+03  0.52625122671E+03  0.00000000000E+00 0.  1.
<scales pt_clust_3="85.67925" pt_clust_4="79.09746" pt_clust_5="85.67925" pt_clust_6="205.52076"></scales>
<clustering>
<clus scale="   79.097">  1  4  2 -1</clus>
<clus scale="   85.679">  3  5 -1 -1</clus>
<clus scale="  205.521">  1  6  2 -1</clus>
<clus scale="  225.792">  2  3  1 -1</clus>
</clustering>
</event>
<event>
 6    0  0.1849053E+002  0.2625608E+03  0.7546771E-02  0.1105614E+00
          2   -1    0    0  505    0 -0.00000000000E+00  0.00000000000E+00  0.18675056696E+04  0.18675056696E+04  0.00000000000E+00 0.  1.
         21   -1    0    0  504  502  0.00000000000E+00 -0.00000000000E+00 -0.40651817664E+02  0.40651817664E+02  0.00000000000E+00 0. -1.
         21    1    1    2  503  501  0.11113603929E+03 -0.17179655097E+03  0.72754820561E+03  0.75577223133E+03  0.00000000000E+00 0. -1.
         21    1    1    2  504  503  0.38431731432E+02 -0.41392156994E+02  0.91282368049E+02  0.10734420971E+03  0.00000000000E+00 0. -1.
         21    1    1    2  505  502  0.10307080109E+02  0.31034190806E+02  0.98888021010E+02  0.10415468112E+03  0.00000000000E+00 0. -1.
          2    1    1    2  501    0 -0.15987485083E+03  0.18215451716E+03  0.90913525725E+03  0.94088636510E+03  0.00000000000E+00 0.  1.
<scales pt_clust_3="42.52477" pt_clust_4="42.52477" pt_clust_5="32.70102" pt_clust_6="249.54282"></scales>
<clustering>
<clus scale="   32.701">  2  5  1 -1</clus>
<clus scale="   42.525">  3  4 -1 -1</clus>
<clus scale="  249.543">  1  6  2 -1</clus>
<clus scale="   32.701">  2  3  1 -1</clus>
</clustering>
</event>
<event>
 6    0  0.1849053E+002  0.1287726E+03  0.7546771E-02  0.1229288E+00
         21   -1    0    0  504  502  0.00000000000E+00  0.00000000000E+00  0.38469144844E+02  0.38469144844E+02  0.00000000000E+00 0. -1.
          2   -1    0    0  503    0 -0.00000000000E+00 -0.00000000000E+00 -0.16111321650E+04  0.16111321650E+04  0.00000000000E+00 0.  1.
         21    1    1    2  503  502 -0.13909690339E+03 -0.41769685471E+02 -0.26144609393E+03  0.29907643704E+03  0.00000000000E+00 0. -1.
         21    1    1    2  504  505  0.25001331066E+02  0.51379165702E+02 -0.32721493968E+02  0.65845131869E+02  0.00000000000E+00 0. -1.
         21    1    1    2  505  501  0.59024200217E+02 -0.23967482558E+02 -0.48839302445E+03  0.49253024553E+03  0.00000000000E+00 0.  1.
          2    1    1    2  501    0  0.55071372109E+02  0.14358002326E+02 -0.79010240777E+03  0.79214949537E+03  0.00000000000E+00 0.  1.
<scales pt_clust_3="117.64806" pt_clust_4="57.13917" pt_clust_5="49.48771" pt_clust_6="49.48771"></scales>
<clustering>
<clus scale="   49.488">  5  6 -1 -1</clus>
<clus scale="   57.139">  1  4  2 -1</clus>
<clus scale="  117.648">  1  3  2 -1</clus>
<clus scale="   57.139">  1  3  2 -1</clus>
</clustering>
</event>
<event>
 6    0  0.1849053E+002  0.1581479E+03  0.7546771E-02  0.1190804E+00
         -3   -1    0    0    0  501 -0.00000000000E+00  0.00000000000E+00  0.43038170038E+03  0.43038170038E+03  0.00000000000E+00 0.  1.
         21   -1    0    0  505  502  0.00000000000E+00 -0.00000000000E+00 -0.44974380201E+03  0.44974380201E+03  0.00000000000E+00 0. -1.
         21    1    1    2  503  502 -0.51969289573E+02 -0.13223452430E+01 -0.28784056567E+03  0.29249743058E+03  0.00000000000E+00 0. -1.
         21    1    1    2  504  503 -0.51374447524E+02 -0.15824687409E+02 -0.73710438307E+02  0.91230385867E+02  0.00000000000E+00 0. -1.
         21    1    1    2  505  501 -0.81898994612E+02  0.48393542176E+02 -0.11592995801E+02  0.95832029063E+02  0.00000000000E+00 0.  1.
         -3    1    1    2    0  504  0.18524273171E+03 -0.31246509524E+02  0.35378189815E+03  0.40056565687E+03  0.00000000000E+00 0.  1.
<scales pt_clust_3="51.98611" pt_clust_4="79.95561" pt_clust_5="158.14786" pt_clust_6="14000.00000"></scales>
<clustering>
<clus scale="   51.986">  2  3  1 -1</clus>
<clus scale="   79.956">  2  4  1 -1</clus>
<clus scale="  158.148">  2  5  1 -1</clus>
<clus scale="   51.986">  2  3  1 -1</clus>
</clustering>
</event>
<event>
 6    0  0.1849053E+002  0.1116602E+03  0.7546771E-02  0.1257526E+00
          2   -1    0    0  505    0 -0.00000000000E+00  0.00000000000E+00  0.11184689596E+04  0.11184689596E+04  0.00000000000E+00 0.  1.
         21   -1    0    0  504  502  0.00000000000E+00 -0.00000000000E+00 -0.16403206220E+03  0.16403206220E+03  0.00000000000E+00 0. -1.
         21    1    1    2  503  502 -0.12714151375E+02 -0.53807221596E+02 -0.18721877930E+02  0.58372728686E+02  0.00000000000E+00 0. -1.
         21    1    1    2  504  501 -0.76356893124E+02 -0.22048628890E+02 -0.10404062375E+03  0.13092352177E+03  0.00000000000E+00 0. -1.
         21    1    1    2  505  503  0.66151148632E+02 -0.41442234894E+01  0.17427516791E+03  0.18645370258E+03  0.00000000000E+00 0.  1.
          2    1    1    2  501    0  0.22919895867E+02  0.80000073976E+02  0.90292423122E+03  0.90675106881E+03  0.00000000000E+00 0.  1.
<scales pt_clust_3="55.28894" pt_clust_4="14000.00000" pt_clust_5="65.88143" pt_clust_6="111.66025"></scales>
<clustering>
<clus scale="   55.289">  2  3  1 -1</clus>
<clus scale="   65.881">  1  5  2 -1</clus>
<clus scale="  111.660">  1  6  2 -1</clus>
<clus scale="   55.289">  2  3  1 -1</clus>
</clustering>
</event>
<event>
 6    0  0.1849053E+002  0.7854094E+02  0.7546771E-02  0.1333244E+00
         21   -1    0    0  505  502  0.00000000000E+00  0.00000000000E+00  0.58614400505E+03  0.58614400505E+03  0.00000000000E+00 0.  1.
          2   -1    0    0  503    0 -0.00000000000E+00 -0.00000000000E+00 -0.15860700148E+04  0.15860700148E+04  0.00000000000E+00 0.  1.
         21    1    1    2  503  504 -0.13669685046E+02  0.30676497559E+02 -0.53669127395E+02  0.63311002417E+02  0.00000000000E+00 0.  1.
         21    1    1    2  504  502  0.21834311856E+02 -0.79765120317E+02  0.14669155968E+03  0.16839722467E+03  0.00000000000E+00 0.  1.
         21    1    1    2  505  501 -0.80119956311E+02  0.33083848226E+02  0.41843840636E+03  0.42732241730E+03  0.00000000000E+00 0.  1.
          2    1    1    2  501    0  0.71955329501E+02  0.16004774533E+02 -0.15113868484E+04  0.15131833755E+04  0.00000000000E+00 0.  1.
<scales pt_clust_3="33.58434" pt_clust_4="14000.00000" pt_clust_5="78.54094" pt_clust_6="74.59054"></scales>
<clustering>
<clus scale="   33.584">  2  3  1 -1</clus>
<clus scale="   74.591">  2  6  1 -1</clus>
<clus scale="   78.541">  1  5  2 -1</clus>
<clus scale="   78.541">  1  3  2 -1</clus>
</clustering>
</event>
<event>
 6    0  0.1849053E+002  0.7211782E+02  0.7546771E-02  0.1353036E+00
         21   -1    0    0  503  502  0.00000000000E+00  0.00000000000E+00  0.10094970202E+04  0.10094970202E+04  0.00000000000E+00 0. -1.
          1   -1    0    0  505    0 -0.00000000000E+00 -0.00000000000E+00 -0.24690787428E+04  0.24690787428E+04  0.00000000000E+00 0.  1.
         21    1    1    2  503  501  0.77864472850E+02  0.36155145194E+02  0.71061582671E+03  0.71578273507E+03  0.00000000000E+00 0. -1.
         21    1    1    2  504  502 -0.41343272642E+02 -0.41295485296E+02  0.28175724569E+03  0.28775289538E+03  0.00000000000E+00 0. -1.
         21    1    1    2  505  504 -0.49235768594E+02  0.43677298060E+02 -0.83888703606E+02  0.10662636572E+03  0.00000000000E+00 0. -1.
          1    1    1    2  501    0  0.12714568387E+02 -0.38536957958E+02 -0.23680660914E+04  0.23684137668E+04  0.00000000000E+00 0.  1.
<scales pt_clust_3="14000.00000" pt_clust_4="72.11782" pt_clust_5="37.92884" pt_clust_6="40.58026"></scales>
<clustering>
<clus scale="   40.580">  2  6  1 -1</clus>
<clus scale="   37.929">  2  5  1 -1</clus>
<clus scale="   72.118">  2  4  1 -1</clus>
<clus scale="   72.118">  1  3  2 -1</clus>
</clustering>
</event>
<event>
 6    0  0.1849053E+002  0.1038576E+03  0.7546771E-02  0.1272387E+00
         21   -1    0    0  503  502  0.00000000000E+00  0.00000000000E+00  0.54196983217E+03  0.54196983217E+03  0.00000000000E+00 0.  1.
          2   -1    0    0  505    0 -0.00000000000E+00 -0.00000000000E+00 -0.13459758209E+04  0.13459758209E+04  0.00000000000E+00 0.  1.
         21    1    1    2  503  501 -0.67065186768E+02 -0.14147214934E+02  0.39673064963E+03  0.40260786297E+03  0.00000000000E+00 0.  1.
         21    1    1    2  504  502 -0.24371098250E+02 -0.36918760058E+02  0.12981216984E+03  0.13714278951E+03  0.00000000000E+00 0.  1.
         21    1    1    2  505  504 -0.37824452237E+02  0.74198746202E+02 -0.41470225873E+03  0.42298239504E+03  0.00000000000E+00 0. -1.
          2    1    1    2  501    0  0.12926073725E+03 -0.23132771209E+02 -0.91584654948E+03  0.92521260556E+03  0.00000000000E+00 0.  1.
<scales pt_clust_3="14000.00000" pt_clust_4="44.23737" pt_clust_5="83.06325" pt_clust_6="103.85761"></scales>
<clustering>
<clus scale="   44.237">  1  4  2 -1</clus>
<clus scale="   83.063">  2  5  1 -1</clus>
<clus scale="  103.858">  2  6  1 -1</clus>
<clus scale="   44.237">  1  3  2 -1</clus>
</clustering>
</event>
<event>
 6    0  0.1849053E+002  0.6575666E+02  0.7546771E-02  0.1375148E+00
          1   -1    0    0  505    0 -0.00000000000E+00  0.00000000000E+00  0.55119336851E+03  0.55119336851E+03  0.00000000000E+00 0. -1.
         21   -1    0    0  504  502  0.00000000000E+00 -0.00000000000E+00 -0.18637294326E+03  0.18637294326E+03  0.00000000000E+00 0. -1.
         21    1    1    2  503  502  0.46879320781E+02  0.88533248143E+02 -0.95015369811E+02  0.13807145702E+03  0.00000000000E+00 0. -1.
         21    1    1    2  504  501 -0.14859406703E+02 -0.35706800826E+02 -0.54303169200E+02  0.66667921656E+02  0.00000000000E+00 0. -1.
         21    1    1    2  505  503  0.37515476462E+02 -0.36694005958E+01  0.30029083173E+03  0.30264741713E+03  0.00000000000E+00 0. -1.
          1    1    1    2  501    0 -0.69535390540E+02 -0.49157046721E+02  0.21384813253E+03  0.23017951596E+03  0.00000000000E+00 0. -1.
<scales pt_clust_3="65.75666" pt_clust_4="38.41268" pt_clust_5="37.69450" pt_clust_6="14000.00000"></scales>
<clustering>
<clus scale="   37.695">  1  5  2 -1</clus>
<clus scale="   38.413">  2  4  1 -1</clus>
<clus scale="   65.757">  2  3  1 -1</clus>
<clus scale="   38.413">  2  3  1 -1</clus>
</clustering>
</event>
<event>
 6    0  0.1849053E+002  0.2039204E+03  0.7546771E-02  0.1146473E+00
         21   -1    0    0  505  502  0.00000000000E+00  0.00000000000E+00  0.36977130159E+03  0.36977130159E+03  0.00000000000E+00 0.  1.
          1   -1    0    0  503    0 -0.00000000000E+00 -0.00000000000E+00 -0.15955212630E+04  0.15955212630E+04  0.00000000000E+00 0. -1.
         21    1    1    2  503  504 -0.40756016249E+02 -0.10070824467E+02 -0.16099694727E+03  0.16638056196E+03  0.00000000000E+00 0. -1.
         21    1    1    2  504  502  0.10640746806E+02  0.21756212993E+03  0.16328794299E+01  0.21782830892E+03  0.00000000000E+00 0.  1.
         21    1    1    2  505  501 -0.12877765605E+03 -0.16560012457E+03  0.20843072407E+03  0.29572022706E+03  0.00000000000E+00 0.  1.
          1    1    1    2  501    0  0.15889292550E+03 -0.41891180895E+02 -0.12748166177E+04  0.12853634667E+04  0.00000000000E+00 0. -1.
<scales pt_clust_3="41.98183" pt_clust_4="14000.00000" pt_clust_5="203.92036" pt_clust_6="132.61139"></scales>
<clustering>
<clus scale="   41.982">  2  3  1 -1</clus>
<clus scale="  132.611">  2  6  1 -1</clus>
<clus scale="  203.920">  1  5  2 -1</clus>
<clus scale="  203.920">  1  3  2 -1</clus>
</clustering>
</event>
<event>
 6    0  0.1849053E+002  0.1111841E+03  0.7546771E-02  0.1258393E+00
         21   -1    0    0  501  502  0.00000000000E+00  0.00000000000E+00  0.44648110308E+02  0.44648110308E+02  0.00000000000E+00 0.  1.
          1   -1    0    0  504    0 -0.00000000000E+00 -0.00000000000E+00 -0.32201105365E+04  0.32201105365E+04  0.00000000000E+00 0. -1.
         21    1    1    2  503  505 -0.44764404756E+02 -0.51060396145E+02 -0.24280445431E+03  0.25212104041E+03  0.00000000000E+00 0.  1.
         21    1    1    2  504  503  0.41396041211E+02 -0.32651274319E+02 -0.20700878127E+04  0.20707591096E+04  0.00000000000E+00 0. -1.
         21    1    1    2  505  502 -0.61442440462E+02  0.10089685480E+03 -0.52899197707E+02  0.12943598386E+03  0.00000000000E+00 0.  1.
          1    1    1    2  501    0  0.64810804007E+02 -0.17185184337E+02 -0.80967096155E+03  0.81244251296E+03  0.00000000000E+00 0. -1.
<scales pt_clust_3="68.26259" pt_clust_4="52.72322" pt_clust_5="14000.00000" pt_clust_6="111.18407"></scales>
<clustering>
<clus scale="   52.723">  2  4  1 -1</clus>
<clus scale="   68.263">  2  3  1 -1</clus>
<clus scale="  111.184">  2  6  1 -1</clus>
<clus scale="  111.184">  1  3  2 -1</clus>
</clustering>
</event>
<event>
 6    0  0.1849053E+002  0.1222115E+03  0.7546771E-02  0.1239493E+00
         21   -1    0    0  505  502  0.00000000000E+00  0.00000000000E+00  0.36633792966E+03  0.36633792966E+03  0.00000000000E+00 0.  1.
          1   -1    0    0  504    0 -0.00000000000E+00 -0.00000000000E+00 -0.38383754154E+03  0.38383754154E+03  0.00000000000E+00 0.  1.
         21    1    1    2  503  502 -0.26243956473E+02  0.18300853668E+02  0.25242869239E+02  0.40753759873E+02  0.00000000000E+00 0. -1.
         21    1    1    2  504  503 -0.75925108506E+01  0.32179556807E+02 -0.25150322904E+02  0.41541651863E+02  0.00000000000E+00 0.  1.
         21    1    1    2  505  501 -0.25923411273E+02  0.92537354544E+02  0.29971146565E+03  0.31474139842E+03  0.00000000000E+00 0.  1.
          1    1    1    2  501    0  0.59759878596E+02 -0.14301776502E+03 -0.31730362387E+03  0.35313866104E+03  0.00000000000E+00 0.  1.
<scales pt_clust_3="31.99479" pt_clust_4="33.65332" pt_clust_5="122.21149" pt_clust_6="14000.00000"></scales>
<clustering>
<clus scale="   31.995">  1  3  2 -1</clus>
<clus scale="   33.653">  2  4  1 -1</clus>
<clus scale="  122.211">  1  5  2 -1</clus>
<clus scale="   31.995">  1  3  2 -1</clus>
</clustering>
</event>
<event>
 6    0  0.1849053E+002  0.2006893E+03  0.7546771E-02  0.1149159E+00
         21   -1    0    0  503  502  0.00000000000E+00  0.00000000000E+00  0.13893816064E+04  0.13893816064E+04  0.00000000000E+00 0. -1.
         -2   -1    0    0    0  501 -0.00000000000E+00 -0.00000000000E+00 -0.11072344340E+03  0.11072344340E+03  0.00000000000E+00 0.  1.
         21    1    1    2  503  501  0.28905690987E+02 -0.20101078685E+02  0.86402445251E+02  0.93300454882E+02  0.00000000000E+00 0.  1.
         21    1    1    2  504  505  0.39627933560E+02  0.87800715718E+02  0.22643237463E+02  0.98954812928E+02  0.00000000000E+00 0.  1.
         21    1    1    2  505  502 -0.11316105743E+03 -0.15731505280E+03  0.11900057702E+04  0.12056812116E+04  0.00000000000E+00 0. -1.
         -2    1    1    2    0  504  0.44627432879E+02  0.89615415768E+02 -0.20393289938E+02  0.10216857043E+03  0.00000000000E+00 0.  1.
<scales pt_clust_3="35.20784" pt_clust_4="42.38919" pt_clust_5="195.97468" pt_clust_6="42.38919"></scales>
<clustering>
<clus scale="   35.208">  1  3  2 -1</clus>
<clus scale="   42.389">  4  6 -1 -1</clus>
<clus scale="  195.975">  1  5  2 -1</clus>
<clus scale="   35.208">  1  3  2 -1</clus>
</clustering>
</event>
<event>
 6    0  0.1849053E+002  0.1960107E+03  0.7546771E-02  0.1153149E+00
         21   -1    0    0  503  502  0.00000000000E+00  0.00000000000E+00  0.82557054266E+03  0.82557054266E+03  0.00000000000E+00 0. -1.
          2   -1    0    0  504    0 -0.00000000000E+00 -0.00000000000E+00 -0.19832268774E+03  0.19832268774E+03  0.00000000000E+00 0. -1.
         21    1    1    2  503  501 -0.16368113428E+03  0.50441578208E+02  0.25293525671E+03  0.30547031053E+03  0.00000000000E+00 0. -1.
         21    1    1    2  504  505  0.24418280932E+03  0.94031474075E+02  0.17178725387E+02  0.26222561104E+03  0.00000000000E+00 0. -1.
         21    1    1    2  505  502 -0.31622002260E+02 -0.74103650779E+02  0.36153561378E+03  0.37040424149E+03  0.00000000000E+00 0. -1.
          2    1    1    2  501    0 -0.48879672779E+02 -0.70369401504E+02 -0.44017409572E+01  0.85793067333E+02  0.00000000000E+00 0. -1.
<scales pt_clust_3="14000.00000" pt_clust_4="196.01069" pt_clust_5="80.56862" pt_clust_6="92.67773"></scales>
<clustering>
<clus scale="   80.569">  1  5  2 -1</clus>
<clus scale="   92.678">  2  6  1 -1</clus>
<clus scale="  196.011">  2  4  1 -1</clus>
<clus scale="   80.569">  1  3  2 -1</clus>
</clustering>
</event>
<event>
 6    0  0.1849053E+002  0.1167141E+03  0.7546771E-02  0.1248618E+00
         21   -1    0    0  504  502  0.00000000000E+00  0.00000000000E+00  0.83998509036E+02  0.83998509036E+02  0.00000000000E+00 0.  1.
          1   -1    0    0  505    0 -0.00000000000E+00 -0.00000000000E+00 -0.13986949381E+04  0.13986949381E+04  0.00000000000E+00 0.  1.
         21    1    1    2  503  502 -0.20755706194E+01 -0.30656858536E+02  0.14751208917E+02  0.34084441219E+02  0.00000000000E+00 0. -1.
         21    1    1    2  504  501 -0.35400780992E+02  0.23885226621E+02  0.30581562005E+02  0.52525720178E+02  0.00000000000E+00 0.  1.
         21    1    1    2  505  503 -0.63565542079E+02  0.73746252209E+02 -0.14279631268E+03  0.17282903335E+03  0.00000000000E+00 0.  1.
          1    1    1    2  501    0  0.10104189369E+03 -0.66974620294E+02 -0.12172328873E+04  0.12232542524E+04  0.00000000000E+00 0.  1.
<scales pt_clust_3="30.72704" pt_clust_4="36.93334" pt_clust_5="116.71410" pt_clust_6="14000.00000"></scales>
<clustering>
<clus scale="   30.727">  1  3  2 -1</clus>
<clus scale="   36.933">  1  4  2 -1</clus>
<clus scale="  116.714">  1  5  2 -1</clus>
<clus scale="   30.727">  1  3  2 -1</clus>
</clustering>
</event>
<event>
 6    0  0.1849053E+002  0.8544440E+02  0.7546771E-02  0.1314274E+00
         21   -1    0    0  504  502  0.00000000000E+00  0.00000000000E+00  0.14897397867E+04  0.14897397867E+04  0.00000000000E+00 0.  1.
          2   -1    0    0  505    0 -0.00000000000E+00 -0.00000000000E+00 -0.10432032247E+04  0.10432032247E+04  0.00000000000E+00 0.  1.
         21    1    1    2  503  502 -0.16423511017E+02 -0.10973969228E+03  0.13991622495E+04  0.14035553185E+04  0.00000000000E+00 0.  1.
         21    1    1    2  504  501  0.39390226809E+02  0.27746940885E+02  0.74417422077E+02  0.88653456815E+02  0.00000000000E+00 0. -1.
         21    1    1    2  505  503  0.29474042361E+02 -0.16532561692E+02 -0.76132745257E+02  0.83296096365E+02  0.00000000000E+00 0. -1.
          2    1    1    2  501    0 -0.52440758153E+02  0.98525313087E+02 -0.95091036430E+03  0.95743813971E+03  0.00000000000E+00 0.  1.
<scales pt_clust_3="85.44440" pt_clust_4="48.28997" pt_clust_5="33.79415" pt_clust_6="14000.00000"></scales>
<clustering>
<clus scale="   33.794">  2  5  1 -1</clus>
<clus scale="   48.290">  1  4  2 -1</clus>
<clus scale="   85.444">  1  3  2 -1</clus>
<clus scale="   48.290">  1  3  2 -1</clus>
</clustering>
</event>
<event>
 6    0  0.1849053E+002  0.1690068E+03  0.7546771E-02  0.1178888E+00
         21   -1    0    0  501  502  0.00000000000E+00  0.00000000000E+00  0.22510561172E+03  0.22510561172E+03  0.00000000000E+00 0. -1.
          1   -1    0    0  505    0 -0.00000000000E+00 -0.00000000000E+00 -0.12717703012E+04  0.12717703012E+04  0.00000000000E+00 0. -1.
         21    1    1    2  503  502  0.89588753839E+01  0.11540772670E+03  0.16449543627E+03  0.20114162519E+03  0.00000000000E+00 0. -1.
         21    1    1    2  504  503 -0.10828804269E+02  0.43667087586E+02  0.18683069207E+02  0.48714829519E+02  0.00000000000E+00 0. -1.
         21    1    1    2  505  504  0.15279468076E+02 -0.35146881163E+02 -0.64486808941E+02  0.75015424598E+02  0.00000000000E+00 0. -1.
          1    1    1    2  501    0 -0.13409539191E+02 -0.12392793312E+03 -0.11653563860E+04  0.11720040336E+04  0.00000000000E+00 0. -1.
<scales pt_clust_3="37.22654" pt_clust_4="37.22654" pt_clust_5="38.32448" pt_clust_6="158.10660"></scales>
<clustering>
<clus scale="   37.227">  3  4 -1 -1</clus>
<clus scale="   38.324">  2  5  1 -1</clus>
<clus scale="  158.107">  2  6  1 -1</clus>
<clus scale="  169.007">  1  3  2 -1</clus>
</clustering>
</event>
<event>
 6    0  0.1849053E+002  0.1146217E+03  0.7546771E-02  0.1252243E+00
          1   -1    0    0  505    0 -0.00000000000E+00  0.00000000000E+00  0.84964020160E+03  0.84964020160E+03  0.00000000000E+00 0.  1.
         21   -1    0    0  503  502  0.00000000000E+00 -0.00000000000E+00 -0.25240380994E+03  0.25240380994E+03  0.00000000000E+00 0. -1.
         21    1    1    2  503  504 -0.59751659684E+02  0.25757533028E+02 -0.16832643559E+03  0.18046467871E+03  0.00000000000E+00 0. -1.
         21    1    1    2  504  501 -0.28170521906E+02  0.35987525947E+02 -0.62303690359E+02  0.77268558681E+02  0.00000000000E+00 0.  1.
         21    1    1    2  505  502 -0.91277884571E+01 -0.53957828414E+02  0.15373156235E+03  0.16318136239E+03  0.00000000000E+00 0.  1.
          1    1    1    2  501    0  0.97049970047E+02 -0.77872305613E+01  0.67413495526E+03  0.68112941175E+03  0.00000000000E+00 0.  1.
<scales pt_clust_3="34.48800" pt_clust_4="34.48800" pt_clust_5="54.72443" pt_clust_6="106.98010"></scales>
<clustering>
<clus scale="   34.488">  3  4 -1 -1</clus>
<clus scale="   54.724">  1  5  2 -1</clus>
<clus scale="  106.980">  1  6  2 -1</clus>
<clus scale="  114.622">  2  3  1 -1</clus>
</clustering>
</event>
<event>
 6    0  0.1849053E+002  0.1186389E+03  0.7546771E-02  0.1245359E+00
          2   -1    0    0  504    0 -0.00000000000E+00  0.00000000000E+00  0.10349087166E+04  0.10349087166E+04  0.00000000000E+00 0. -1.
         21   -1    0    0  503  502  0.00000000000E+00 -0.00000000000E+00 -0.62168344652E+02  0.62168344652E+02  0.00000000000E+00 0. -1.
         21    1    1    2  503  501  0.51731960062E+02  0.31039405573E+02 -0.39343182021E+01  0.60457582237E+02  0.00000000000E+00 0. -1.
         21    1    1    2  504  505  0.27713244386E+02  0.60981822283E+02  0.15394280209E+03  0.16788446288E+03  0.00000000000E+00 0.  1.
         21    1    1    2  505  502  0.33861988155E+02 -0.33077224544E+02  0.13134535772E+02  0.49124872064E+02  0.00000000000E+00 0.  1.
          2    1    1    2  501    0 -0.11330719260E+03 -0.58944003312E+02  0.80959735229E+03  0.81961014406E+03  0.00000000000E+00 0. -1.
<scales pt_clust_3="14000.00000" pt_clust_4="64.82407" pt_clust_5="47.33642" pt_clust_6="118.63892"></scales>
<clustering>
<clus scale="   47.336">  2  5  1 -1</clus>
<clus scale="   64.824">  2  4  1 -1</clus>
<clus scale="  118.639">  1  6  2 -1</clus>
<clus scale="   47.336">  2  3  1 -1</clus>
</clustering>
</event>
<event>
 6    0  0.1849053E+002  0.1015271E+03  0.7546771E-02  0.1277117E+00
          2   -1    0    0  504    0 -0.00000000000E+00  0.00000000000E+00  0.18431152845E+03  0.18431152845E+03  0.00000000000E+00 0.  1.
         21   -1    0    0  505  502  0.00000000000E+00 -0.00000000000E+00 -0.34771287405E+03  0.34771287405E+03  0.00000000000E+00 0.  1.
         21    1    1    2  503  502  0.14095133033E+01 -0.38730989264E+02 -0.38946337163E+02  0.54944457733E+02  0.00000000000E+00 0. -1.
         21    1    1    2  504  503  0.53540724920E+02  0.36115848103E+02  0.13579007373E+02  0.65995099442E+02  0.00000000000E+00 0.  1.
         21    1    1    2  505  501 -0.11250054659E+03 -0.14563614103E+02 -0.25528070511E+03  0.27935051502E+03  0.00000000000E+00 0.  1.
          2    1    1    2  501    0  0.57550308367E+02  0.17178755264E+02  0.11724668931E+03  0.13173433030E+03  0.00000000000E+00 0.  1.
<scales pt_clust_3="38.75663" pt_clust_4="14000.00000" pt_clust_5="101.52714" pt_clust_6="59.83207"></scales>
<clustering>
<clus scale="   38.757">  2  3  1 -1</clus>
<clus scale="   59.832">  1  6  2 -1</clus>
<clus scale="  101.527">  2  5  1 -1</clus>
<clus scale="   38.757">  2  3  1 -1</clus>
</clustering>
</event>
<event>
 6    0  0.1849053E+002  0.1200253E+03  0.7546771E-02  0.1243055E+00
          1   -1    0    0  503    0 -0.00000000000E+00  0.00000000000E+00  0.70734447702E+03  0.70734447702E+03  0.00000000000E+00 0.  1.
         21   -1    0    0  505  502  0.00000000000E+00 -0.00000000000E+00 -0.39959523524E+02  0.39959523524E+02  0.00000000000E+00 0.  1.
         21    1    1    2  503  504 -0.95204181378E+02 -0.15793820011E+02  0.25605871038E+03  0.27364090349E+03  0.00000000000E+00 0.  1.
         21    1    1    2  504  502 -0.35123393393E+02  0.22417844219E+02  0.22068114436E+01  0.41726280923E+02  0.00000000000E+00 0.  1.
         21    1    1    2  505  501  0.60355439377E+02  0.84143613694E+01  0.12674867095E+03  0.14063714349E+03  0.00000000000E+00 0.  1.
          1    1    1    2  501    0  0.69972135394E+02 -0.15038385577E+02  0.28237076072E+03  0.29129967265E+03  0.00000000000E+00 0.  1.
<scales pt_clust_3="110.65497" pt_clust_4="41.66788" pt_clust_5="41.78330" pt_clust_6="41.78330"></scales>
<clustering>
<clus scale="   41.668">  2  4  1 -1</clus>
<clus scale="   41.783">  5  6 -1 -1</clus>
<clus scale="  110.655">  1  3  2 -1</clus>
<clus scale="   41.668">  2  3  1 -1</clus>
</clustering>
</event>
<event>
 6    0  0.1849053E+002  0.1152517E+03  0.7546771E-02  0.1251142E+00
         21   -1    0    0  504  502  0.00000000000E+00  0.00000000000E+00  0.30352252063E+03  0.30352252063E+03  0.00000000000E+00 0. -1.
          3   -1    0    0  505    0 -0.00000000000E+00 -0.00000000000E+00 -0.16390113443E+03  0.16390113443E+03  0.00000000000E+00 0.  1.
         21    1    1    2  503  501 -0.11262957127E+03 -0.71999074284E+01  0.15251949727E+03  0.18973522614E+03  0.00000000000E+00 0. -1.
         21    1    1    2  504  503 -0.29675505879E+02  0.35448844977E+02  0.59042740607E+02  0.74988675663E+02  0.00000000000E+00 0.  1.
         21    1    1    2  505  502  0.54715723872E+02 -0.22714986766E+01  0.32704145783E+02  0.63785039754E+02  0.00000000000E+00 0. -1.
          3    1    1    2  501    0  0.87589353276E+02 -0.25977438872E+02 -0.10464499745E+03  0.13891471351E+03  0.00000000000E+00 0.  1.
<scales pt_clust_3="41.82940" pt_clust_4="41.82940" pt_clust_5="54.76285" pt_clust_6="94.92905"></scales>
<clustering>
<clus scale="   41.829">  3  4 -1 -1</clus>
<clus scale="   54.763">  1  5  2 -1</clus>
<clus scale="   94.929">  2  6  1 -1</clus>
<clus scale="   54.763">  1  3  2 -1</clus>
</clustering>
</event>
<event>
 6    0  0.1849053E+002  0.1038093E+03  0.7546771E-02  0.1272484E+00
         21   -1    0    0  504  502  0.00000000000E+00  0.00000000000E+00  0.34062240612E+03  0.34062240612E+03  0.00000000000E+00 0. -1.
          2   -1    0    0  505    0 -0.00000000000E+00 -0.00000000000E+00 -0.24413450406E+04  0.24413450406E+04  0.00000000000E+00 0. -1.
         21    1    1    2  503  502 -0.57199696288E+02 -0.11959545418E+02 -0.19135925657E+02  0.61489996200E+02  0.00000000000E+00 0. -1.
         21    1    1    2  504  501  0.68511487442E+01 -0.79278751579E+02  0.31058720699E+03  0.32061888877E+03  0.00000000000E+00 0. -1.
         21    1    1    2  505  503  0.43721098841E+02 -0.25981872713E+02 -0.29128990007E+03  0.29569646274E+03  0.00000000000E+00 0. -1.
          2    1    1    2  501    0  0.66274487024E+01  0.11722016971E+03 -0.21008840158E+04  0.21041620990E+04  0.00000000000E+00 0. -1.
<scales pt_clust_3="57.73678" pt_clust_4="103.80928" pt_clust_5="50.85855" pt_clust_6="14000.00000"></scales>
<clustering>
<clus scale="   50.859">  2  5  1 -1</clus>
<clus scale="   57.737">  1  3  2 -1</clus>
<clus scale="  103.809">  1  4  2 -1</clus>
<clus scale="   57.737">  1  3  2 -1</clus>
</clustering>
</event>
<event>
 6    0  0.1849053E+002  0.2646890E+03  0.7546771E-02  0.1104358E+00
          1   -1    0    0  502    0 -0.00000000000E+00  0.00000000000E+00  0.98374378049E+03  0.98374378049E+03  0.00000000000E+00 0. -1.
         21   -1    0    0  504  502  0.00000000000E+00 -0.00000000000E+00 -0.51454252687E+03  0.51454252687E+03  0.00000000000E+00 0.  1.
         21    1    1    2  503  505 -0.44389629453E+02  0.70103455863E+02 -0.72439725532E+02  0.11014739017E+03  0.00000000000E+00 0. -1.
         21    1    1    2  504  503 -0.12149641061E+03  0.10848462794E+03 -0.39070387877E+03  0.42329636565E+03  0.00000000000E+00 0.  1.
         21    1    1    2  505  501  0.61661720707E+02 -0.48560512183E+02  0.37463975501E+03  0.38277308837E+03  0.00000000000E+00 0.  1.
          1    1    1    2  501    0  0.10422431936E+03 -0.13002757162E+03  0.55770510291E+03  0.58206946316E+03  0.00000000000E+00 0. -1.
<scales pt_clust_3="73.65137" pt_clust_4="73.65137" pt_clust_5="32.49802" pt_clust_6="248.30267"></scales>
<clustering>
<clus scale="   32.498">  5  6 -1 -1</clus>
<clus scale="   73.651">  3  4 -1 -1</clus>
<clus scale="  248.303">  1  5  2 -1</clus>
<clus scale="  264.689">  2  3  1 -1</clus>
</clustering>
</event>
<event>
 6    0  0.1849053E+002  0.1352872E+03  0.7546771E-02  0.1219815E+00
          2   -1    0    0  505    0 -0.00000000000E+00  0.00000000000E+00  0.31438623024E+04  0.31438623024E+04  0.00000000000E+00 0. -1.
         21   -1    0    0  504  502  0.00000000000E+00 -0.00000000000E+00 -0.19524355996E+02  0.19524355996E+02  0.00000000000E+00 0.  1.
         21    1    1    2  503  502  0.53132423959E+01  0.36854000044E+02  0.17137100898E+03  0.17536952581E+03  0.00000000000E+00 0.  1.
         21    1    1    2  504  501 -0.97474741512E+02  0.74543984742E+02  0.23792544945E+03  0.26770627634E+03  0.00000000000E+00 0.  1.
         21    1    1    2  505  503 -0.57293887171E+01 -0.48138573959E+02  0.54914832409E+03  0.55128398313E+03  0.00000000000E+00 0. -1.
          2    1    1    2  501    0  0.97890887833E+02 -0.63259410827E+02  0.21658931639E+04  0.21690268731E+04  0.00000000000E+00 0. -1.
<scales pt_clust_3="37.23504" pt_clust_4="135.28721" pt_clust_5="46.21027" pt_clust_6="14000.00000"></scales>
<clustering>
<clus scale="   37.235">  2  3  1 -1</clus>
<clus scale="   46.210">  1  5  2 -1</clus>
<clus scale="  135.287">  2  4  1 -1</clus>
<clus scale="   37.235">  2  3  1 -1</clus>
</clustering>
</event>
<event>
 6    0  0.1849053E+002  0.7707623E+02  0.7546771E-02  0.1337560E+00
         21   -1    0    0  503  502  0.00000000000E+00  0.00000000000E+00  0.28045157799E+02  0.28045157799E+02  0.00000000000E+00 0. -1.
          2   -1    0    0  505    0 -0.00000000000E+00 -0.00000000000E+00 -0.13971571746E+04  0.13971571746E+04  0.00000000000E+00 0.  1.
         21    1    1    2  503  504  0.38377892606E+02  0.40251135052E+01 -0.13866112830E+02  0.41004064001E+02  0.00000000000E+00 0. -1.
         21    1    1    2  504  501 -0.24705139169E+02 -0.11166648371E+03 -0.47193808963E+03  0.48559788708E+03  0.00000000000E+00 0.  1.
         21    1    1    2  505  502  0.70353830892E+01  0.39562051752E+02 -0.59936155371E+02  0.72159512711E+02  0.00000000000E+00 0. -1.
          2    1    1    2  501    0 -0.20708136526E+02  0.68079318456E+02 -0.82337165894E+03  0.82644086858E+03  0.00000000000E+00 0.  1.
<scales pt_clust_3="38.58839" pt_clust_4="77.07623" pt_clust_5="47.35518" pt_clust_6="14000.00000"></scales>
<clustering>
<clus scale="   38.588">  1  3  2 -1</clus>
<clus scale="   47.355">  1  5  2 -1</clus>
<clus scale="   77.076">  1  4  2 -1</clus>
<clus scale="   38.588">  1  3  2 -1</clus>
</clustering>
</event>
<event>
 6    0  0.1849053E+002  0.1824378E+03  0.7546771E-02  0.1165464E+00
         21   -1    0    0  504  502  0.00000000000E+00  0.00000000000E+00  0.40426574951E+02  0.40426574951E+02  0.00000000000E+00 0. -1.
          2   -1    0    0  505    0 -0.00000000000E+00 -0.00000000000E+00 -0.17109019115E+04  0.17109019115E+04  0.00000000000E+00 0. -1.
         21    1    1    2  503  502 -0.16274509400E+02  0.72346502419E+02 -0.11109548835E+03  0.13357051920E+03  0.00000000000E+00 0. -1.
         21    1    1    2  504  501  0.49874644263E+02 -0.50676861807E+02 -0.44332183992E+03  0.44898761477E+03  0.00000000000E+00 0. -1.
         21    1    1    2  505  503 -0.14838699479E+03  0.19209563155E+02 -0.23008311062E+03  0.27445572563E+03  0.00000000000E+00 0. -1.
          2    1    1    2  501    0  0.11478685993E+03 -0.40879203767E+02 -0.88597489763E+03  0.89431462682E+03  0.00000000000E+00 0. -1.
<scales pt_clust_3="74.15441" pt_clust_4="33.60414" pt_clust_5="177.05477" pt_clust_6="33.60414"></scales>
<clustering>
<clus scale="   33.604">  4  6 -1 -1</clus>
<clus scale="   74.154">  1  3  2 -1</clus>
<clus scale="  177.055">  1  5  2 -1</clus>
<clus scale="   74.154">  1  3  2 -1</clus>
</clustering>
</event>
<event>
 6    0  0.1849053E+002  0.1609039E+03  0.7546771E-02  0.1187680E+00
         21   -1    0    0  501  502  0.00000000000E+00  0.00000000000E+00  0.23368583168E+03  0.23368583168E+03  0.00000000000E+00 0. -1.
          1   -1    0    0  505    0 -0.00000000000E+00 -0.00000000000E+00 -0.74231630536E+03  0.74231630536E+03  0.00000000000E+00 0. -1.
         21    1    1    2  503  504  0.10584922688E+03  0.10105925384E+03  0.12132295645E+03  0.19009547964E+03  0.00000000000E+00 0. -1.
         21    1    1    2  504  502  0.38192640322E+02 -0.17402419190E+02  0.55524978195E+02  0.69602766985E+02  0.00000000000E+00 0. -1.
         21    1    1    2  505  503 -0.63067762979E+02  0.24916454431E+02 -0.16272432973E+03  0.17628834311E+03  0.00000000000E+00 0. -1.
          1    1    1    2  501    0 -0.80974104222E+02 -0.10857328908E+03 -0.52275407858E+03  0.54001554731E+03  0.00000000000E+00 0. -1.
<scales pt_clust_3="14000.00000" pt_clust_4="41.97049" pt_clust_5="66.15014" pt_clust_6="160.90386"></scales>
<clustering>
<clus scale="   41.970">  1  4  2 -1</clus>
<clus scale="   66.150">  2  5  1 -1</clus>
<clus scale="  160.904">  2  6  1 -1</clus>
<clus scale="   41.970">  1  3  2 -1</clus>
</clustering>
</event>
<event>
 6    0  0.1849053E+002  0.1635819E+03  0.7546771E-02  0.1184711E+00
          2   -1    0    0  504    0 -0.00000000000E+00  0.00000000000E+00  0.27789006790E+04  0.27789006790E+04  0.00000000000E+00 0. -1.
         21   -1    0    0  505  502  0.00000000000E+00 -0.00000000000E+00 -0.35385510992E+02  0.35385510992E+02  0.00000000000E+00 0. -1.
         21    1    1    2  503  501 -0.11777621953E+02  0.11748244650E+03  0.15836515578E+04  0.15880469433E+04  0.00000000000E+00 0. -1.
         21    1    1    2  504  502  0.40510622979E+02 -0.83146186714E+02  0.32204395277E+03  0.33506224266E+03  0.00000000000E+00 0.  1.
         21    1    1    2  505  503 -0.67573420612E+02 -0.69644622040E+02  0.65500814476E+02  0.11707645899E+03  0.00000000000E+00 0. -1.
          2    1    1    2  501    0  0.38840419586E+02  0.35308362250E+02  0.77231884289E+03  0.77410054497E+03  0.00000000000E+00 0. -1.
<scales pt_clust_3="47.46083" pt_clust_4="92.48999" pt_clust_5="147.28285" pt_clust_6="47.46083"></scales>
<clustering>
<clus scale="   47.461">  3  6 -1 -1</clus>
<clus scale="   92.490">  2  4  1 -1</clus>
<clus scale="  147.283">  2  5  1 -1</clus>
<clus scale="   92.490">  2  3  1 -1</clus>
</clustering>
</event>
<event>
 6    0  0.1849053E+002  0.1528444E+03  0.7546771E-02  0.1197021E+00
          2   -1    0    0  502    0 -0.00000000000E+00  0.00000000000E+00  0.17492757458E+03  0.17492757458E+03  0.00000000000E+00 0.  1.
         21   -1    0    0  504  502  0.00000000000E+00 -0.00000000000E+00 -0.33299076912E+03  0.33299076912E+03  0.00000000000E+00 0.  1.
         21    1    1    2  503  501  0.29369390155E+02  0.47908046651E+02  0.72350709404E+02  0.91609863897E+02  0.00000000000E+00 0. -1.
         21    1    1    2  504  505 -0.32157489637E+02 -0.98476185098E+02 -0.23505890937E+03  0.25687419887E+03  0.00000000000E+00 0.  1.
         21    1    1    2  505  503 -0.21138737971E+02 -0.36220466106E+02 -0.40867864236E+02  0.58557243234E+02  0.00000000000E+00 0.  1.
          2    1    1    2  501    0  0.23926837453E+02  0.86788604553E+02  0.45512869661E+02  0.10087703770E+03  0.00000000000E+00 0.  1.
<scales pt_clust_3="36.85187" pt_clust_4="31.02538" pt_clust_5="31.02538" pt_clust_6="152.18208"></scales>
<clustering>
<clus scale="   31.025">  4  5 -1 -1</clus>
<clus scale="   36.852">  3  6 -1 -1</clus>
<clus scale="  152.182">  1  3  2 -1</clus>
<clus scale="  152.844">  2  3  1 -1</clus>
</clustering>
</event>
<event>
 6    0  0.1849053E+002  0.1032297E+03  0.7546771E-02  0.1273647E+00
          1   -1    0    0  504    0 -0.00000000000E+00  0.00000000000E+00  0.12785895333E+04  0.12785895333E+04  0.00000000000E+00 0.  1.
         21   -1    0    0  503  502  0.00000000000E+00 -0.00000000000E+00 -0.20748623528E+03  0.20748623528E+03  0.00000000000E+00 0.  1.
         21    1    1    2  503  501  0.20283852188E+02 -0.37006695622E+02 -0.16047050544E+02  0.45149064349E+02  0.00000000000E+00 0.  1.
         21    1    1    2  504  505 -0.18235747741E+02 -0.84419961476E+02  0.21307248871E+03  0.22991119554E+03  0.00000000000E+00 0.  1.
         21    1    1    2  505  502  0.54750728312E+02  0.19805824938E+02 -0.16007287661E+03  0.17033272961E+03  0.00000000000E+00 0.  1.
          1    1    1    2  501    0 -0.56798832759E+02  0.10162083216E+03  0.10341507365E+04  0.10406827791E+04  0.00000000000E+00 0.  1.
<scales pt_clust_3="42.20107" pt_clust_4="103.22972" pt_clust_5="75.15744" pt_clust_6="14000.00000"></scales>
<clustering>
<clus scale="   42.201">  2  3  1 -1</clus>
<clus scale="   75.157">  2  5  1 -1</clus>
<clus scale="  103.230">  2  4  1 -1</clus>
<clus scale="   42.201">  2  3  1 -1</clus>
</clustering>
</event>
<event>
 6    0  0.1849053E+002  0.1990419E+03  0.7546771E-02  0.1150550E+00
         21   -1    0    0  505  502  0.00000000000E+00  0.00000000000E+00  0.26893475151E+03  0.26893475151E+03  0.00000000000E+00 0.  1.
          4   -1    0    0  503    0 -0.00000000000E+00 -0.00000000000E+00 -0.39917768161E+03  0.39917768161E+03  0.00000000000E+00 0. -1.
         21    1    1    2  503  502  0.36122259230E+02  0.36983751464E+02 -0.80452698621E+02  0.95630811979E+02  0.00000000000E+00 0. -1.
         21    1    1    2  504  501  0.33287489061E+02 -0.61580013586E+02  0.25024545580E+02  0.74339645430E+02  0.00000000000E+00 0. -1.
         21    1    1    2  505  504  0.27907663803E+02 -0.11458432998E+03  0.16590095510E+03  0.20354737355E+03  0.00000000000E+00 0.  1.
          4    1    1    2  501    0 -0.97317412095E+02  0.13918059210E+03 -0.24071573216E+03  0.29459460216E+03  0.00000000000E+00 0. -1.
<scales pt_clust_3="51.69735" pt_clust_4="59.56642" pt_clust_5="59.56642" pt_clust_6="183.37875"></scales>
<clustering>
<clus scale="   51.697">  2  3  1 -1</clus>
<clus scale="   59.566">  4  5 -1 -1</clus>
<clus scale="  183.379">  2  6  1 -1</clus>
<clus scale="  199.042">  1  3  2 -1</clus>
</clustering>
</event>
<event>
 6    0  0.1849053E+002  0.1347438E+03  0.7546771E-02  0.1220582E+00
          1   -1    0    0  503    0 -0.00000000000E+00  0.00000000000E+00  0.89201307474E+03  0.89201307474E+03  0.00000000000E+00 0.  1.
         21   -1    0    0  505  502  0.00000000000E+00 -0.00000000000E+00 -0.10775750071E+03  0.10775750071E+03  0.00000000000E+00 0.  1.
         21    1    1    2  503  504 -0.43919804061E+02  0.63198079701E+01  0.23978416162E+03  0.24385514825E+03  0.00000000000E+00 0.  1.
         21    1    1    2  504  502 -0.51940237359E+02  0.38544805460E+02  0.93818599663E+02  0.11395358673E+03  0.00000000000E+00 0.  1.
         21    1    1    2  505  501  0.11256643884E+03 -0.91734923036E+02 -0.38544528249E+02  0.15024040707E+03  0.00000000000E+00 0.  1.
          1    1    1    2  501    0 -0.16706397423E+02  0.46870309606E+02  0.48919734100E+03  0.49172143341E+03  0.00000000000E+00 0.  1.
<scales pt_clust_3="44.37217" pt_clust_4="70.99694" pt_clust_5="14000.00000" pt_clust_6="134.74378"></scales>
<clustering>
<clus scale="   44.372">  1  3  2 -1</clus>
<clus scale="   70.997">  1  4  2 -1</clus>
<clus scale="  134.744">  1  6  2 -1</clus>
<clus scale="  134.744">  2  3  1 -1</clus>
</clustering>
</event>
<event>
 6    0  0.1849053E+002  0.7713647E+02  0.7546771E-02  0.1337380E+00
         -2   -1    0    0    0  501 -0.00000000000E+00  0.00000000000E+00  0.42246042465E+03  0.42246042465E+03  0.00000000000E+00 0. -1.
         21   -1    0    0  505  502  0.00000000000E+00 -0.00000000000E+00 -0.19562737490E+03  0.19562737490E+03  0.00000000000E+00 0. -1.
         21    1    1    2  503  504  0.51140179743E+02 -0.38092823459E+02  0.12600146106E+02  0.65001114338E+02  0.00000000000E+00 0. -1.
         21    1    1    2  504  502 -0.49115383693E+02  0.64822340401E+02 -0.14659973750E+03  0.16764766555E+03  0.00000000000E+00 0. -1.
         21    1    1    2  505  501 -0.27348424466E+02  0.35845965759E+02  0.49855491481E+02  0.67219339574E+02  0.00000000000E+00 0. -1.
         -2    1    1    2    0  503  0.25323628416E+02 -0.62575482701E+02  0.31097714965E+03  0.31821968009E+03  0.00000000000E+00 0. -1.
<scales pt_clust_3="77.13647" pt_clust_4="14000.00000" pt_clust_5="45.08736" pt_clust_6="31.63267"></scales>
<clustering>
<clus scale="   45.087">  1  5  2 -1</clus>
<clus scale="   31.633">  1  6  2 -1</clus>
<clus scale="   77.136">  1  3  2 -1</clus>
<clus scale="   77.136">  2  3  1 -1</clus>
</clustering>
</event>
<event>
 6    0  0.1849053E+002  0.2720667E+03  0.7546771E-02  0.1100103E+00
         21   -1    0    0  504  502  0.00000000000E+00  0.00000000000E+00  0.20306119616E+03  0.20306119616E+03  0.00000000000E+00 0. -1.
         -2   -1    0    0    0  501 -0.00000000000E+00 -0.00000000000E+00 -0.14372875808E+04  0.14372875808E+04  0.00000000000E+00 0. -1.
         21    1    1    2  503  501 -0.23497899982E+02  0.28765598776E+02 -0.49851884460E+02  0.62167687433E+02  0.00000000000E+00 0.  1.
         21    1    1    2  504  503  0.22015421513E+02  0.24869601587E+02 -0.13546234429E+02  0.35870270904E+02  0.00000000000E+00 0.  1.
         21    1    1    2  505  502 -0.21527725576E+03  0.16183374384E+03  0.58463444288E+02  0.27559468756E+03  0.00000000000E+00 0. -1.
         -2    1    1    2    0  505  0.21675973423E+03 -0.21546894420E+03 -0.12292917101E+04  0.12667161311E+04  0.00000000000E+00 0. -1.
<scales pt_clust_3="37.32906" pt_clust_4="33.21409" pt_clust_5="272.06668" pt_clust_6="14000.00000"></scales>
<clustering>
<clus scale="   33.214">  1  4  2 -1</clus>
<clus scale="   37.329">  2  3  1 -1</clus>
<clus scale="  272.067">  1  5  2 -1</clus>
<clus scale="   33.214">  1  3  2 -1</clus>
</clustering>
</event>
<event>
 6    0  0.1849053E+002  0.1589482E+03  0.7546771E-02  0.1189889E+00
          1   -1    0    0  504    0 -0.00000000000E+00  0.00000000000E+00  0.23537936095E+04  0.23537936095E+04  0.00000000000E+00 0.  1.
         21   -1    0    0  503  502  0.00000000000E+00 -0.00000000000E+00 -0.21182745701E+03  0.21182745701E+03  0.00000000000E+00 0.  1.
         21    1    1    2  503  505 -0.96356906456E+02 -0.40416205871E+02 -0.16479092432E+03  0.19512604095E+03  0.00000000000E+00 0.  1.
         21    1    1    2  504  502 -0.50242988276E+02 -0.48333325146E+01 -0.72440932677E+01  0.50992115679E+02  0.00000000000E+00 0.  1.
         21    1    1    2  505  501  0.44080399452E+02  0.28305374563E+02  0.56725817704E+03  0.56967193652E+03  0.00000000000E+00 0. -1.
          1    1    1    2  501    0  0.10251949528E+03  0.16944163823E+02  0.17467429930E+04  0.17498309733E+04  0.00000000000E+00 0.  1.
<scales pt_clust_3="152.68022" pt_clust_4="50.47493" pt_clust_5="31.38053" pt_clust_6="31.38053"></scales>
<clustering>
<clus scale="   31.381">  5  6 -1 -1</clus>
<clus scale="   50.475">  2  4  1 -1</clus>
<clus scale="  152.680">  2  3  1 -1</clus>
<clus scale="   50.475">  2  3  1 -1</clus>
</clustering>
</event>
<event>
 6    0  0.1849053E+002  0.1018760E+03  0.7546771E-02  0.1276400E+00
         21   -1    0    0  503  502  0.00000000000E+00  0.00000000000E+00  0.45532543700E+02  0.45532543700E+02  0.00000000000E+00 0.  1.
          1   -1    0    0  505    0 -0.00000000000E+00 -0.00000000000E+00 -0.11323960555E+04  0.11323960555E+04  0.00000000000E+00 0. -1.
         21    1    1    2  503  504 -0.32326229128E+02  0.21591182079E+02 -0.40779078987E+02  0.56339129530E+02  0.00000000000E+00 0.  1.
         21    1    1    2  504  501 -0.46586243474E+02  0.78729672651E+01 -0.65135829201E+01  0.47693694102E+02  0.00000000000E+00 0.  1.
         21    1    1    2  505  502  0.16880587120E+03 -0.40472530477E+02 -0.57716915542E+03  0.60270862101E+03  0.00000000000E+00 0. -1.
          1    1    1    2  501    0 -0.89893398596E+02  0.11008381133E+02 -0.46240169443E+03  0.47118715451E+03  0.00000000000E+00 0. -1.
<scales pt_clust_3="35.02422" pt_clust_4="35.02422" pt_clust_5="94.27518" pt_clust_6="90.56494"></scales>
<clustering>
<clus scale="   35.024">  3  4 -1 -1</clus>
<clus scale="   90.565">  2  6  1 -1</clus>
<clus scale="   94.275">  2  5  1 -1</clus>
<clus scale="  101.876">  1  3  2 -1</clus>
</clustering>
</event>
<event>
 6    0  0.1849053E+002  0.1129677E+03  0.7546771E-02  0.1255171E+00
          2   -1    0    0  503    0 -0.00000000000E+00  0.00000000000E+00  0.14245693966E+03  0.14245693966E+03  0.00000000000E+00 0.  1.
         21   -1    0    0  501  502  0.00000000000E+00 -0.00000000000E+00 -0.34036043668E+03  0.34036043668E+03  0.00000000000E+00 0. -1.
         21    1    1    2  503  505 -0.45364750817E+02  0.11363346307E+01  0.88455059330E+02  0.99416041936E+02  0.00000000000E+00 0.  1.
         21    1    1    2  504  502  0.34825892423E+02 -0.65075225552E+02 -0.19601674098E+03  0.20945211984E+03  0.00000000000E+00 0. -1.
         21    1    1    2  505  504 -0.59751562673E+01 -0.37250600262E+02 -0.52523520016E+02  0.64668615782E+02  0.00000000000E+00 0. -1.
          2    1    1    2  501    0  0.16514014661E+02  0.10118949118E+03 -0.37818295363E+02  0.10928059878E+03  0.00000000000E+00 0.  1.
<scales pt_clust_3="45.37898" pt_clust_4="32.50430" pt_clust_5="32.50430" pt_clust_6="103.41529"></scales>
<clustering>
<clus scale="   32.504">  4  5 -1 -1</clus>
<clus scale="   45.379">  1  3  2 -1</clus>
<clus scale="  103.415">  1  6  2 -1</clus>
<clus scale="  112.968">  2  3  1 -1</clus>
</clustering>
</event>
<event>
 6    0  0.1849053E+002  0.1813485E+03  0.7546771E-02  0.1166504E+00
          2   -1    0    0  503    0 -0.00000000000E+00  0.00000000000E+00  0.79012047684E+03  0.79012047684E+03  0.00000000000E+00 0. -1.
         21   -1    0    0  505  502  0.00000000000E+00 -0.00000000000E+00 -0.10191945230E+03  0.10191945230E+03  0.00000000000E+00 0. -1.
         21    1    1    2  503  502 -0.99681370848E+01  0.41605439647E+02 -0.14147121169E+02  0.45061262771E+02  0.00000000000E+00 0. -1.
         21    1    1    2  504  501 -0.27504843201E+02 -0.36942110740E+02  0.95849383354E+02  0.10634068006E+03  0.00000000000E+00 0. -1.
         21    1    1    2  505  504  0.10616626228E+03  0.10798870481E+03  0.36777855963E+02  0.15583788468E+03  0.00000000000E+00 0. -1.
          2    1    1    2  501    0 -0.68693281993E+02 -0.11265203371E+03  0.56972090639E+03  0.58480010164E+03  0.00000000000E+00 0. -1.
<scales pt_clust_3="42.78290" pt_clust_4="32.67849" pt_clust_5="172.70786" pt_clust_6="32.67849"></scales>
<clustering>
<clus scale="   32.678">  4  6 -1 -1</clus>
<clus scale="   42.783">  2  3  1 -1</clus>
<clus scale="  172.708">  2  5  1 -1</clus>
<clus scale="   42.783">  2  3  1 -1</clus>
</clustering>
</event>
<event>
 6    0  0.1849053E+002  0.4157260E+03  0.7546771E-02  0.1038466E+00
         21   -1    0    0  504  502  0.00000000000E+00  0.00000000000E+00  0.23417338274E+03  0.23417338274E+03  0.00000000000E+00 0. -1.
          1   -1    0    0  505    0 -0.00000000000E+00 -0.00000000000E+00 -0.17948836271E+04  0.17948836271E+04  0.00000000000E+00 0.  1.
         21    1    1    2  503  502  0.68646413853E+02  0.24099829906E+03  0.53522687567E+02  0.25623658671E+03  0.00000000000E+00 0. -1.
         21    1    1    2  504  501 -0.72999782592E+02 -0.20770393933E+03 -0.55931208108E+03  0.60108227283E+03  0.00000000000E+00 0. -1.
         21    1    1    2  505  503  0.65278258899E+02  0.11006101875E+03 -0.25349106314E+02  0.13045020554E+03  0.00000000000E+00 0. -1.
          1    1    1    2  501    0 -0.60924890160E+02 -0.14335537847E+03 -0.10295717446E+04  0.10412879448E+04  0.00000000000E+00 0.  1.
<scales pt_clust_3="385.65908" pt_clust_4="149.64109" pt_clust_5="62.11093" pt_clust_6="149.64109"></scales>
<clustering>
<clus scale="   62.111">  3  5 -1 -1</clus>
<clus scale="  149.641">  4  6 -1 -1</clus>
<clus scale="  385.659">  1  3  2 -1</clus>
<clus scale="  385.659">  1  3  2 -1</clus>
</clustering>
</event>
<event>
 6    0  0.1849053E+002  0.1495077E+03  0.7546771E-02  0.1201079E+00
         -2   -1    0    0    0  501 -0.00000000000E+00  0.00000000000E+00  0.34440689621E+02  0.34440689621E+02  0.00000000000E+00 0. -1.
         21   -1    0    0  501  502  0.00000000000E+00 -0.00000000000E+00 -0.65781194237E+03  0.65781194237E+03  0.00000000000E+00 0. -1.
         21    1    1    2  503  505 -0.46597562287E+02 -0.72089186803E+02 -0.23511352659E+03  0.25029293647E+03  0.00000000000E+00 0. -1.
         21    1    1    2  504  503  0.59496704409E+02  0.46736644476E+02 -0.16398890429E+03  0.18060047758E+03  0.00000000000E+00 0. -1.
         21    1    1    2  505  502 -0.62546062242E+02 -0.11322611616E+02 -0.16041625948E+03  0.17255024701E+03  0.00000000000E+00 0. -1.
         -2    1    1    2    0  504  0.49646920119E+02  0.36675153943E+02 -0.63852562396E+02  0.88808970935E+02  0.00000000000E+00 0. -1.
<scales pt_clust_3="50.78298" pt_clust_4="38.31942" pt_clust_5="50.78298" pt_clust_6="143.76967"></scales>
<clustering>
<clus scale="   38.319">  4  6 -1 -1</clus>
<clus scale="   50.783">  3  5 -1 -1</clus>
<clus scale="  143.770">  1  4  2 -1</clus>
<clus scale="  149.508">  2  3  1 -1</clus>
</clustering>
</event>
<event>
 6    0  0.1849053E+002  0.8414038E+02  0.7546771E-02  0.1317696E+00
          1   -1    0    0  503    0 -0.00000000000E+00  0.00000000000E+00  0.30383204340E+03  0.30383204340E+03  0.00000000000E+00 0. -1.
         21   -1    0    0  505  502  0.00000000000E+00 -0.00000000000E+00 -0.22713033289E+03  0.22713033289E+03  0.00000000000E+00 0. -1.
         21    1    1    2  503  504  0.56399145469E+00 -0.36704196215E+02  0.37552513431E+02  0.52513877890E+02  0.00000000000E+00 0.  1.
         21    1    1    2  504  502 -0.48157816423E+01 -0.85201302966E+02 -0.99212464017E+02  0.13086468888E+03  0.00000000000E+00 0. -1.
         21    1    1    2  505  501  0.38798159514E+02  0.10438845367E+02 -0.85869110745E+02  0.94803854639E+02  0.00000000000E+00 0. -1.
          1    1    1    2  501    0 -0.34546369326E+02  0.11146665381E+03  0.22423077185E+03  0.25277995488E+03  0.00000000000E+00 0. -1.
<scales pt_clust_3="36.70853" pt_clust_4="84.14038" pt_clust_5="40.02744" pt_clust_6="14000.00000"></scales>
<clustering>
<clus scale="   36.709">  1  3  2 -1</clus>
<clus scale="   40.027">  2  5  1 -1</clus>
<clus scale="   84.140">  2  4  1 -1</clus>
<clus scale="   40.027">  2  3  1 -1</clus>
</clustering>
</event>
<event>
 6    0  0.1849053E+002  0.1698002E+03  0.7546771E-02  0.1178056E+00
          3   -1    0    0  502    0 -0.00000000000E+00  0.00000000000E+00  0.32163811441E+03  0.32163811441E+03  0.00000000000E+00 0.  1.
         21   -1    0    0  505  502  0.00000000000E+00 -0.00000000000E+00 -0.16299166315E+03  0.16299166315E+03  0.00000000000E+00 0.  1.
         21    1    1    2  503  504 -0.14637452180E+02  0.75632613867E+02 -0.33976035010E+02  0.84195713915E+02  0.00000000000E+00 0.  1.
         21    1    1    2  504  501  0.39277047529E+02 -0.92032520761E+02  0.17195924326E+03  0.19895389587E+03  0.00000000000E+00 0.  1.
         21    1    1    2  505  503 -0.70275603101E+02  0.60228593184E+02 -0.51167200706E+02  0.10575550225E+03  0.00000000000E+00 0.  1.
          3    1    1    2  501    0  0.45636007752E+02 -0.43828686290E+02  0.71830443714E+02  0.95724665523E+02  0.00000000000E+00 0.  1.
<scales pt_clust_3="51.31464" pt_clust_4="33.10878" pt_clust_5="51.31464" pt_clust_6="165.53562"></scales>
<clustering>
<clus scale="   33.109">  4  6 -1 -1</clus>
<clus scale="   51.315">  3  5 -1 -1</clus>
<clus scale="  165.536">  1  4  2 -1</clus>
<clus scale="  169.800">  2  3  1 -1</clus>
</clustering>
</event>
<event>
 6    0  0.1849053E+002  0.8176568E+02  0.7546771E-02  0.1324114E+00
         21   -1    0    0  504  502  0.00000000000E+00  0.00000000000E+00  0.30544052218E+03  0.30544052218E+03  0.00000000000E+00 0.  1.
          2   -1    0    0  505    0 -0.00000000000E+00 -0.00000000000E+00 -0.94327022658E+02  0.94327022658E+02  0.00000000000E+00 0.  1.
         21    1    1    2  503  501 -0.54042983150E+02 -0.17549665723E+02 -0.19654301373E+02  0.60124257644E+02  0.00000000000E+00 0. -1.
         21    1    1    2  504  503  0.44481499985E+02 -0.84661825890E+02  0.66101636645E+02  0.11625684914E+03  0.00000000000E+00 0.  1.
         21    1    1    2  505  502  0.36843563886E+02  0.79169295861E+02  0.16609119929E+03  0.18764730770E+03  0.00000000000E+00 0.  1.
          2    1    1    2  501    0 -0.27282080721E+02  0.23042195752E+02 -0.14250350406E+01  0.35739130353E+02  0.00000000000E+00 0.  1.
<scales pt_clust_3="68.62442" pt_clust_4="14000.00000" pt_clust_5="81.76568" pt_clust_6="35.71071"></scales>
<clustering>
<clus scale="   35.711">  2  6  1 -1</clus>
<clus scale="   68.624">  2  3  1 -1</clus>
<clus scale="   81.766">  1  5  2 -1</clus>
<clus scale="   81.766">  1  3  2 -1</clus>
</clustering>
</event>
<event>
 6    0  0.1849053E+002  0.2799261E+03  0.7546771E-02  0.1095729E+00
          2   -1    0    0  504    0 -0.00000000000E+00  0.00000000000E+00  0.29335933644E+04  0.29335933644E+04  0.00000000000E+00 0.  1.
         21   -1    0    0  505  502  0.00000000000E+00 -0.00000000000E+00 -0.53840506112E+03  0.53840506112E+03  0.00000000000E+00 0. -1.
         21    1    1    2  503  502  0.21486065335E+03 -0.12748462684E+02 -0.46215421386E+03  0.50981775278E+03  0.00000000000E+00 0. -1.
         21    1    1    2  504  503  0.48541938365E+02  0.61669939545E+01 -0.33113114508E+02  0.59083245908E+02  0.00000000000E+00 0. -1.
         21    1    1    2  505  501 -0.10050862610E+03 -0.15532823738E+01  0.80030732502E+03  0.80659544450E+03  0.00000000000E+00 0.  1.
          2    1    1    2  501    0 -0.16289396561E+03  0.81347511029E+01  0.20901483066E+04  0.20965019823E+04  0.00000000000E+00 0.  1.
<scales pt_clust_3="45.06809" pt_clust_4="45.06809" pt_clust_5="48.50058" pt_clust_6="270.63058"></scales>
<clustering>
<clus scale="   45.068">  3  4 -1 -1</clus>
<clus scale="   48.501">  5  6 -1 -1</clus>
<clus scale="  270.631">  1  5  2 -1</clus>
<clus scale="  279.926">  2  3  1 -1</clus>
</clustering>
</event>
<event>
 6    0  0.1849053E+002  0.8985552E+02  0.7546771E-02  0.1303202E+00
          2   -1    0    0  503    0 -0.00000000000E+00  0.00000000000E+00  0.10361773360E+04  0.10361773360E+04  0.00000000000E+00 0. -1.
         21   -1    0    0  505  502  0.00000000000E+00 -0.00000000000E+00 -0.38424810196E+03  0.38424810196E+03  0.00000000000E+00 0.  1.
         21    1    1    2  503  504 -0.37904978389E+02  0.13592504599E+02  0.26400136393E+03  0.26705479536E+03  0.00000000000E+00 0. -1.
         21    1    1    2  504  502  0.65698540837E+02 -0.43215275170E+02  0.49520231476E+02  0.92930681702E+02  0.00000000000E+00 0. -1.
         21    1    1    2  505  501 -0.23776632897E+02  0.89239818904E+02 -0.35380165747E+03  0.36565651420E+03  0.00000000000E+00 0.  1.
          2    1    1    2  501    0 -0.40169295513E+01 -0.59617048333E+02  0.69220929609E+03  0.69478344667E+03  0.00000000000E+00 0. -1.
<scales pt_clust_3="40.26839" pt_clust_4="14000.00000" pt_clust_5="89.85552" pt_clust_6="60.81978"></scales>
<clustering>
<clus scale="   40.268">  1  3  2 -1</clus>
<clus scale="   60.820">  1  6  2 -1</clus>
<clus scale="   89.856">  2  5  1 -1</clus>
<clus scale="   89.856">  2  3  1 -1</clus>
</clustering>
</event>
<event>
 6    0  0.1849053E+002  0.1483239E+03  0.7546771E-02  0.1202548E+00
          2   -1    0    0  502    0 -0.00000000000E+00  0.00000000000E+00  0.12057698675E+04  0.12057698675E+04  0.00000000000E+00 0. -1.
         21   -1    0    0  504  502  0.00000000000E+00 -0.00000000000E+00 -0.55189992604E+02  0.55189992604E+02  0.00000000000E+00 0.  1.
         21    1    1    2  503  501  0.63088042433E+02  0.32443655525E+02  0.45976101148E+03  0.46520197716E+03  0.00000000000E+00 0. -1.
         21    1    1    2  504  505 -0.85010652622E+02 -0.45044646662E+02  0.54241441287E+02  0.11044439870E+03  0.00000000000E+00 0.  1.
         21    1    1    2  505  503 -0.24685329264E+02 -0.42153202743E+02  0.43858332220E+01  0.49045830765E+02  0.00000000000E+00 0. -1.
          2    1    1    2  501    0  0.46607939453E+02  0.54754193879E+02  0.63219158888E+03  0.63626765344E+03  0.00000000000E+00 0. -1.
<scales pt_clust_3="34.95141" pt_clust_4="34.64058" pt_clust_5="34.64058" pt_clust_6="144.48137"></scales>
<clustering>
<clus scale="   34.641">  4  5 -1 -1</clus>
<clus scale="   34.951">  3  6 -1 -1</clus>
<clus scale="  144.481">  1  3  2 -1</clus>
<clus scale="  148.324">  2  3  1 -1</clus>
</clustering>
</event>
<event>
 6    0  0.1849053E+002  0.3347527E+03  0.7546771E-02  0.1069053E+00
         21   -1    0    0  503  502  0.00000000000E+00  0.00000000000E+00  0.13135546855E+04  0.13135546855E+04  0.00000000000E+00 0. -1.
          2   -1    0    0  502    0 -0.00000000000E+00 -0.00000000000E+00 -0.21922178899E+04  0.21922178899E+04  0.00000000000E+00 0.  1.
         21    1    1    2  503  505  0.39643988321E+02  0.97490699485E+01  0.97599275559E+02  0.10579370853E+03  0.00000000000E+00 0.  1.
         21    1    1    2  504  501 -0.13768394557E+03 -0.20217509709E+03 -0.15001463242E+04  0.15199574444E+04  0.00000000000E+00 0.  1.
         21    1    1    2  505  504  0.11943508830E+03  0.27924039919E+03  0.11796850831E+04  0.12181530430E+04  0.00000000000E+00 0. -1.
          2    1    1    2  501    0 -0.21395131057E+02 -0.86814372050E+02 -0.65580123879E+03  0.66186837938E+03  0.00000000000E+00 0.  1.
<scales pt_clust_3="40.82512" pt_clust_4="35.42416" pt_clust_5="329.58523" pt_clust_6="35.42416"></scales>
<clustering>
<clus scale="   35.424">  4  6 -1 -1</clus>
<clus scale="   40.825">  1  3  2 -1</clus>
<clus scale="  329.585">  1  5  2 -1</clus>
<clus scale="   40.825">  1  3  2 -1</clus>
</clustering>
</event>
<event>
 6    0  0.1849053E+002  0.2525112E+03  0.7546771E-02  0.1111728E+00
         21   -1    0    0  505  502  0.00000000000E+00  0.00000000000E+00  0.14421363040E+03  0.14421363040E+03  0.00000000000E+00 0.  1.
          1   -1    0    0  503    0 -0.00000000000E+00 -0.00000000000E+00 -0.26990072730E+04  0.26990072730E+04  0.00000000000E+00 0. -1.
         21    1    1    2  503  504  0.62226648446E+02 -0.93397449201E+01  0.32196272001E+02  0.70682292994E+02  0.00000000000E+00 0.  1.
         21    1    1    2  504  502  0.16999112898E+03 -0.26047129334E+02  0.12805164281E+01  0.17197987266E+03  0.00000000000E+00 0.  1.
         21    1    1    2  505  501 -0.52310639569E+02  0.21182478307E+01 -0.26668085337E+03  0.27177116760E+03  0.00000000000E+00 0.  1.
          1    1    1    2  501    0 -0.17990713786E+03  0.33268626423E+02 -0.23215895777E+04  0.23287875701E+04  0.00000000000E+00 0. -1.
<scales pt_clust_3="30.76553" pt_clust_4="240.34190" pt_clust_5="49.56304" pt_clust_6="49.56304"></scales>
<clustering>
<clus scale="   30.766">  3  4 -1 -1</clus>
<clus scale="   49.563">  5  6 -1 -1</clus>
<clus scale="  240.342">  1  3  2 -1</clus>
<clus scale="  240.342">  1  3  2 -1</clus>
</clustering>
</event>
<event>
 6    0  0.1849053E+002  0.9512034E+02  0.7546771E-02  0.1290905E+00
         21   -1    0    0  505  502  0.00000000000E+00  0.00000000000E+00  0.23212363496E+02  0.23212363496E+02  0.00000000000E+00 0. -1.
          2   -1    0    0  503    0 -0.00000000000E+00 -0.00000000000E+00 -0.15005733006E+04  0.15005733006E+04  0.00000000000E+00 0.  1.
         21    1    1    2  503  504  0.67380083653E+02 -0.34609203530E+02 -0.76872995653E+03  0.77245298803E+03  0.00000000000E+00 0.  1.
         21    1    1    2  504  502 -0.27784279128E+02  0.47792809216E+02 -0.19613109571E+03  0.20377322072E+03  0.00000000000E+00 0. -1.
         21    1    1    2  505  501 -0.48088435519E+02  0.45208755797E+02 -0.53999244362E+02  0.85277474300E+02  0.00000000000E+00 0. -1.
          2    1    1    2  501    0  0.84926309936E+01 -0.58392361483E+02 -0.45850064046E+03  0.46228198101E+03  0.00000000000E+00 0.  1.
<scales pt_clust_3="14000.00000" pt_clust_4="55.28217" pt_clust_5="95.12034" pt_clust_6="54.04289"></scales>
<clustering>
<clus scale="   55.282">  1  4  2 -1</clus>
<clus scale="   54.043">  2  6  1 -1</clus>
<clus scale="   95.120">  1  5  2 -1</clus>
<clus scale="   55.282">  1  3  2 -1</clus>
</clustering>
</event>
<event>
 6    0  0.1849053E+002  0.1282006E+03  0.7546771E-02  0.1230150E+00
         -2   -1    0    0    0  501 -0.00000000000E+00  0.00000000000E+00  0.21159667906E+04  0.21159667906E+04  0.00000000000E+00 0. -1.
         21   -1    0    0  504  502  0.00000000000E+00 -0.00000000000E+00 -0.99197170308E+02  0.99197170308E+02  0.00000000000E+00 0. -1.
         21    1    1    2  503  502 -0.13371438385E+03  0.61026596985E+01 -0.11760998139E+02  0.13436926725E+03  0.00000000000E+00 0. -1.
         21    1    1    2  504  501 -0.23662571134E+02 -0.29803511690E+02  0.72765721845E+03  0.72865162742E+03  0.00000000000E+00 0. -1.
         21    1    1    2  505  503  0.10895285035E+03 -0.53791573868E+02  0.13088656367E+03  0.17859325174E+03  0.00000000000E+00 0. -1.
         -2    1    1    2    0  505  0.48424104636E+02  0.77492425859E+02  0.11699868364E+04  0.11735498145E+04  0.00000000000E+00 0. -1.
<scales pt_clust_3="128.20063" pt_clust_4="38.05478" pt_clust_5="14000.00000" pt_clust_6="59.56003"></scales>
<clustering>
<clus scale="   38.055">  1  4  2 -1</clus>
<clus scale="   59.560">  1  6  2 -1</clus>
<clus scale="  128.201">  2  3  1 -1</clus>
<clus scale="  128.201">  2  3  1 -1</clus>
</clustering>
</event>
<event>
 6    0  0.1849053E+002  0.1506799E+03  0.7546771E-02  0.1199640E+00
         21   -1    0    0  505  502  0.00000000000E+00  0.00000000000E+00  0.67025280994E+03  0.67025280994E+03  0.00000000000E+00 0. -1.
          1   -1    0    0  503    0 -0.00000000000E+00 -0.00000000000E+00 -0.49676991452E+03  0.49676991452E+03  0.00000000000E+00 0.  1.
         21    1    1    2  503  502  0.36864804047E+01  0.71554824576E+02 -0.11732019939E+03  0.13746895011E+03  0.00000000000E+00 0. -1.
         21    1    1    2  504  501  0.39676538851E+01 -0.58321781802E+02  0.39181468218E+03  0.39615138228E+03  0.00000000000E+00 0. -1.
         21    1    1    2  505  504  0.31166344491E+02 -0.77522680676E+02  0.25563047832E+03  0.26893874487E+03  0.00000000000E+00 0. -1.
          1    1    1    2  501    0 -0.38820478781E+02  0.64289637902E+02 -0.35664206568E+03  0.36446364720E+03  0.00000000000E+00 0.  1.
<scales pt_clust_3="71.64972" pt_clust_4="49.28285" pt_clust_5="49.28285" pt_clust_6="138.68271"></scales>
<clustering>
<clus scale="   49.283">  4  5 -1 -1</clus>
<clus scale="   71.650">  2  3  1 -1</clus>
<clus scale="  138.683">  2  6  1 -1</clus>
<clus scale="  150.680">  1  3  2 -1</clus>
</clustering>
</event>
<event>
 6    0  0.1849053E+002  0.1097594E+03  0.7546771E-02  0.1261016E+00
          2   -1    0    0  505    0 -0.00000000000E+00  0.00000000000E+00  0.20536284215E+04  0.20536284215E+04  0.00000000000E+00 0.  1.
         21   -1    0    0  503  502  0.00000000000E+00 -0.00000000000E+00 -0.13342470929E+03  0.13342470929E+03  0.00000000000E+00 0.  1.
         21    1    1    2  503  501 -0.43697768455E+02  0.26115365036E+02  0.11014057313E+04  0.11025815581E+04  0.00000000000E+00 0.  1.
         21    1    1    2  504  502  0.35434160186E+02  0.65963521964E+02 -0.39633736678E+02  0.84720711878E+02  0.00000000000E+00 0.  1.
         21    1    1    2  505  504  0.65865863602E+02 -0.91206516664E+02 -0.24336241711E+02  0.11510514033E+03  0.00000000000E+00 0.  1.
          2    1    1    2  501    0 -0.57602255334E+02 -0.87237033594E+00  0.88276795931E+03  0.88464572052E+03  0.00000000000E+00 0.  1.
<scales pt_clust_3="32.94304" pt_clust_4="74.87834" pt_clust_5="104.01443" pt_clust_6="32.94304"></scales>
<clustering>
<clus scale="   32.943">  3  6 -1 -1</clus>
<clus scale="   74.878">  2  4  1 -1</clus>
<clus scale="  104.014">  2  5  1 -1</clus>
<clus scale="   74.878">  2  3  1 -1</clus>
</clustering>
</event>
<event>
 6    0  0.1849053E+002  0.1488150E+03  0.7546771E-02  0.1201937E+00
         21   -1    0    0  503  502  0.00000000000E+00  0.00000000000E+00  0.86690834958E+02  0.86690834958E+02  0.00000000000E+00 0.  1.
          1   -1    0    0  505    0 -0.00000000000E+00 -0.00000000000E+00 -0.68936385263E+03  0.68936385263E+03  0.00000000000E+00 0. -1.
         21    1    1    2  503  504 -0.61123952297E+01 -0.37133897350E+02  0.58700203094E+01  0.38088644584E+02  0.00000000000E+00 0.  1.
         21    1    1    2  504  501  0.32641131167E+02 -0.39557658538E+02  0.46020939855E+01  0.51492048531E+02  0.00000000000E+00 0.  1.
         21    1    1    2  505  502 -0.11965370047E+03 -0.64754615736E+02 -0.22406329837E+03  0.26213456463E+03  0.00000000000E+00 0. -1.
          1    1    1    2  501    0  0.93124964535E+02  0.14144617162E+03 -0.38908183360E+03  0.42433942985E+03  0.00000000000E+00 0. -1.
<scales pt_clust_3="31.23633" pt_clust_4="88.96648" pt_clust_5="148.81499" pt_clust_6="14000.00000"></scales>
<clustering>
<clus scale="   31.236">  3  4 -1 -1</clus>
<clus scale="   88.966">  1  3  2 -1</clus>
<clus scale="  148.815">  1  5  2 -1</clus>
<clus scale="   88.966">  1  3  2 -1</clus>
</clustering>
</event>
<event>
 6    0  0.1849053E+002  0.1003537E+03  0.7546771E-02  0.1279554E+00
         21   -1    0    0  505  502  0.00000000000E+00  0.00000000000E+00  0.12451568032E+04  0.12451568032E+04  0.00000000000E+00 0. -1.
          2   -1    0    0  504    0 -0.00000000000E+00 -0.00000000000E+00 -0.86687291313E+03  0.86687291313E+03  0.00000000000E+00 0.  1.
         21    1    1    2  503  502 -0.82238351722E+02 -0.41746605213E+02  0.82536248853E+03  0.83049934558E+03  0.00000000000E+00 0. -1.
         21    1    1    2  504  503 -0.31100816335E+02 -0.50495347933E+02 -0.51092114166E+02  0.78277998630E+02  0.00000000000E+00 0.  1.
         21    1    1    2  505  501  0.12586734662E+03  0.55822292309E+02  0.39140599971E+03  0.41491851474E+03  0.00000000000E+00 0. -1.
          2    1    1    2  501    0 -0.12528178560E+02  0.36419660837E+02 -0.78739248397E+03  0.78833385742E+03  0.00000000000E+00 0.  1.
<scales pt_clust_3="14000.00000" pt_clust_4="46.23915" pt_clust_5="100.35369" pt_clust_6="38.51424"></scales>
<clustering>
<clus scale="   38.514">  2  6  1 -1</clus>
<clus scale="   46.239">  2  4  1 -1</clus>
<clus scale="  100.354">  2  5  1 -1</clus>
<clus scale="  100.354">  1  3  2 -1</clus>
</clustering>
</event>
<event>
 6    0  0.1849053E+002  0.8804449E+02  0.7546771E-02  0.1307658E+00
         -4   -1    0    0    0  501 -0.00000000000E+00  0.00000000000E+00  0.20779799738E+03  0.20779799738E+03  0.00000000000E+00 0. -1.
         21   -1    0    0  505  502  0.00000000000E+00 -0.00000000000E+00 -0.43328328176E+03  0.43328328176E+03  0.00000000000E+00 0.  1.
         21    1    1    2  503  501 -0.55307578930E+02 -0.46653274903E+01  0.48393217288E+02  0.73638285200E+02  0.00000000000E+00 0. -1.
         21    1    1    2  504  502 -0.70615338973E+02  0.36446456155E+02 -0.60734958495E+02  0.10001802561E+03  0.00000000000E+00 0.  1.
         21    1    1    2  505  503 -0.12576980013E+02 -0.42637202353E+02 -0.30020238458E+03  0.30347583620E+03  0.00000000000E+00 0.  1.
         -4    1    1    2    0  504  0.13849989792E+03  0.10856073688E+02  0.87058841405E+02  0.16394913213E+03  0.00000000000E+00 0. -1.
<scales pt_clust_3="57.19018" pt_clust_4="88.04449" pt_clust_5="44.45348" pt_clust_6="14000.00000"></scales>
<clustering>
<clus scale="   44.453">  2  5  1 -1</clus>
<clus scale="   57.190">  1  3  2 -1</clus>
<clus scale="   88.044">  2  4  1 -1</clus>
<clus scale="   44.453">  2  3  1 -1</clus>
</clustering>
</event>
<event>
 6    0  0.1849053E+002  0.9899597E+02  0.7546771E-02  0.1282422E+00
          1   -1    0    0  504    0 -0.00000000000E+00  0.00000000000E+00  0.56390673828E+03  0.56390673828E+03  0.00000000000E+00 0.  1.
         21   -1    0    0  505  502  0.00000000000E+00 -0.00000000000E+00 -0.75291106566E+02  0.75291106566E+02  0.00000000000E+00 0.  1.
         21    1    1    2  503  502  0.44708937370E+02  0.81863705856E+01  0.59316827034E+02  0.74728787716E+02  0.00000000000E+00 0.  1.
         21    1    1    2  504  503  0.42802888346E+02 -0.49297392930E+02  0.24991739108E+02  0.69906417618E+02  0.00000000000E+00 0.  1.
         21    1    1    2  505  501 -0.13566316670E+02 -0.39268305103E+02 -0.27061650043E+02  0.49582029373E+02  0.00000000000E+00 0.  1.
          1    1    1    2  501    0 -0.73945509046E+02  0.80379327448E+02  0.43136871562E+03  0.44498061014E+03  0.00000000000E+00 0.  1.
<scales pt_clust_3="41.88114" pt_clust_4="98.99597" pt_clust_5="41.54569" pt_clust_6="14000.00000"></scales>
<clustering>
<clus scale="   41.546">  2  5  1 -1</clus>
<clus scale="   41.881">  2  3  1 -1</clus>
<clus scale="   98.996">  2  4  1 -1</clus>
<clus scale="   41.546">  2  3  1 -1</clus>
</clustering>
</event>
<event>
 6    0  0.1849053E+002  0.1327504E+03  0.7546771E-02  0.1223431E+00
         21   -1    0    0  503  502  0.00000000000E+00  0.00000000000E+00  0.24794387131E+03  0.24794387131E+03  0.00000000000E+00 0.  1.
          2   -1    0    0  505    0 -0.00000000000E+00 -0.00000000000E+00 -0.15153280981E+04  0.15153280981E+04  0.00000000000E+00 0.  1.
         21    1    1    2  503  504 -0.12958416353E+02 -0.45888902848E+02  0.13317609891E+03  0.14145524126E+03  0.00000000000E+00 0. -1.
         21    1    1    2  504  501 -0.52849856576E+02 -0.55996374943E+02  0.91743259416E+02  0.11977281409E+03  0.00000000000E+00 0.  1.
         21    1    1    2  505  502  0.38221040756E+02 -0.14331589628E+02 -0.19345967051E+03  0.19771921134E+03  0.00000000000E+00 0.  1.
          2    1    1    2  501    0  0.27587232173E+02  0.11621686742E+03 -0.12988439146E+04  0.13043247027E+04  0.00000000000E+00 0.  1.
<scales pt_clust_3="42.72097" pt_clust_4="42.72097" pt_clust_5="40.81963" pt_clust_6="121.17189"></scales>
<clustering>
<clus scale="   40.820">  2  5  1 -1</clus>
<clus scale="   42.721">  3  4 -1 -1</clus>
<clus scale="  121.172">  2  6  1 -1</clus>
<clus scale="  132.750">  1  3  2 -1</clus>
</clustering>
</event>
<event>
 6    0  0.1849053E+002  0.1117912E+03  0.7546771E-02  0.1257288E+00
         -1   -1    0    0    0  501 -0.00000000000E+00  0.00000000000E+00  0.42797306325E+03  0.42797306325E+03  0.00000000000E+00 0.  1.
         21   -1    0    0  505  502  0.00000000000E+00 -0.00000000000E+00 -0.47817031284E+02  0.47817031284E+02  0.00000000000E+00 0.  1.
         21    1    1    2  503  501 -0.14216395853E+02  0.10605670252E+03  0.11529999485E+03  0.15730295253E+03  0.00000000000E+00 0.  1.
         21    1    1    2  504  502 -0.23504015329E+02 -0.34987097210E+02  0.62099280147E+02  0.75052357075E+02  0.00000000000E+00 0.  1.
         21    1    1    2  505  503  0.39653860681E+02 -0.59572132956E+01  0.11990445278E+02  0.41853169953E+02  0.00000000000E+00 0.  1.
         -1    1    1    2    0  504 -0.19334494986E+01 -0.65112392017E+02  0.19076631169E+03  0.20158161498E+03  0.00000000000E+00 0.  1.
<scales pt_clust_3="102.85381" pt_clust_4="35.23163" pt_clust_5="40.09884" pt_clust_6="35.23163"></scales>
<clustering>
<clus scale="   35.232">  4  6 -1 -1</clus>
<clus scale="   40.099">  2  5  1 -1</clus>
<clus scale="  102.854">  2  3  1 -1</clus>
<clus scale="   40.099">  2  3  1 -1</clus>
</clustering>
</event>
<event>
 6    0  0.1849053E+002  0.1121138E+03  0.7546771E-02  0.1256705E+00
         21   -1    0    0  504  502  0.00000000000E+00  0.00000000000E+00  0.87192311576E+03  0.87192311576E+03  0.00000000000E+00 0. -1.
         -3   -1    0    0    0  501 -0.00000000000E+00 -0.00000000000E+00 -0.33711860033E+03  0.33711860033E+03  0.00000000000E+00 0.  1.
         21    1    1    2  503  505 -0.61791918236E+02 -0.27092242289E+02  0.67342934761E+03  0.67680079564E+03  0.00000000000E+00 0. -1.
         21    1    1    2  504  501  0.33794599547E+02  0.48291205906E+02 -0.20059808249E+03  0.20907822991E+03  0.00000000000E+00 0. -1.
         21    1    1    2  505  502 -0.50267688814E+02 -0.43788713505E+01  0.17642195054E+03  0.18349583016E+03  0.00000000000E+00 0. -1.
         -3    1    1    2    0  503  0.78265007503E+02 -0.16820092266E+02 -0.11444870024E+03  0.13966686038E+03  0.00000000000E+00 0.  1.
<scales pt_clust_3="112.11377" pt_clust_4="58.74352" pt_clust_5="50.45805" pt_clust_6="14000.00000"></scales>
<clustering>
<clus scale="   50.458">  1  5  2 -1</clus>
<clus scale="   58.744">  2  4  1 -1</clus>
<clus scale="  112.114">  1  3  2 -1</clus>
<clus scale="   50.458">  1  3  2 -1</clus>
</clustering>
</event>
<event>
 6    0  0.1849053E+002  0.8189378E+02  0.7546771E-02  0.1323761E+00
          1   -1    0    0  505    0 -0.00000000000E+00  0.00000000000E+00  0.22165136010E+04  0.22165136010E+04  0.00000000000E+00 0. -1.
         21   -1    0    0  503  502  0.00000000000E+00 -0.00000000000E+00 -0.18525633684E+02  0.18525633684E+02  0.00000000000E+00 0. -1.
         21    1    1    2  503  501 -0.53866017100E+01 -0.48420018417E+02  0.10061438201E+03  0.11178894189E+03  0.00000000000E+00 0. -1.
         21    1    1    2  504  502 -0.82694018239E+02  0.60850931395E+02  0.22643353272E+03  0.24862276896E+03  0.00000000000E+00 0. -1.
         21    1    1    2  505  504  0.34841577541E+02 -0.35733660481E+02  0.50715231081E+03  0.50960209613E+03  0.00000000000E+00 0. -1.
          1    1    1    2  501    0  0.53239042409E+02  0.23302747502E+02  0.13637877418E+04  0.13650254277E+04  0.00000000000E+00 0. -1.
<scales pt_clust_3="48.71872" pt_clust_4="14000.00000" pt_clust_5="52.95445" pt_clust_6="81.89378"></scales>
<clustering>
<clus scale="   48.719">  2  3  1 -1</clus>
<clus scale="   52.954">  1  5  2 -1</clus>
<clus scale="   81.894">  1  6  2 -1</clus>
<clus scale="   48.719">  2  3  1 -1</clus>
</clustering>
</event>
<event>
 6    0  0.1849053E+002  0.1230915E+03  0.7546771E-02  0.1238082E+00
         21   -1    0    0  504  502  0.00000000000E+00  0.00000000000E+00  0.80512038218E+02  0.80512038218E+02  0.00000000000E+00 0.  1.
          1   -1    0    0  505    0 -0.00000000000E+00 -0.00000000000E+00 -0.10744897384E+04  0.10744897384E+04  0.00000000000E+00 0. -1.
         21    1    1    2  503  501  0.54744313831E+02  0.34527537112E+02 -0.49187559250E+03  0.49611560065E+03  0.00000000000E+00 0.  1.
         21    1    1    2  504  503 -0.42250448708E+02 -0.38799627115E+02  0.35743615010E+02  0.67587850197E+02  0.00000000000E+00 0.  1.
         21    1    1    2  505  502 -0.75905722646E+02  0.17613648269E+02 -0.36969327955E+02  0.86247611823E+02  0.00000000000E+00 0.  1.
          1    1    1    2  501    0  0.63411857523E+02 -0.13341558267E+02 -0.50087639476E+03  0.50505071396E+03  0.00000000000E+00 0. -1.
<scales pt_clust_3="48.63067" pt_clust_4="57.36298" pt_clust_5="113.06528" pt_clust_6="48.63067"></scales>
<clustering>
<clus scale="   48.631">  3  6 -1 -1</clus>
<clus scale="   57.363">  1  4  2 -1</clus>
<clus scale="  113.065">  1  5  2 -1</clus>
<clus scale="   57.363">  1  3  2 -1</clus>
</clustering>
</event>
<event>
 6    0  0.1849053E+002  0.1201538E+03  0.7546771E-02  0.1242844E+00
          1   -1    0    0  503    0 -0.00000000000E+00  0.00000000000E+00  0.37739510031E+03  0.37739510031E+03  0.00000000000E+00 0.  1.
         21   -1    0    0  505  502  0.00000000000E+00 -0.00000000000E+00 -0.37595113473E+03  0.37595113473E+03  0.00000000000E+00 0.  1.
         21    1    1    2  503  504  0.27176666017E+02 -0.11682450914E+03  0.52313358239E+02  0.13085573950E+03  0.00000000000E+00 0.  1.
         21    1    1    2  504  502  0.38164736779E+01 -0.55852444502E+02 -0.66541231036E+02  0.86958590467E+02  0.00000000000E+00 0.  1.
         21    1    1    2  505  501 -0.65302191053E+02  0.53114073200E+02 -0.23830280542E+03  0.25273248307E+03  0.00000000000E+00 0.  1.
          1    1    1    2  501    0  0.34309051359E+02  0.11956288044E+03  0.25397464381E+03  0.28279942199E+03  0.00000000000E+00 0.  1.
<scales pt_clust_3="120.15381" pt_clust_4="55.98269" pt_clust_5="62.59559" pt_clust_6="14000.00000"></scales>
<clustering>
<clus scale="   55.983">  2  4  1 -1</clus>
<clus scale="   62.596">  2  5  1 -1</clus>
<clus scale="  120.154">  2  3  1 -1</clus>
<clus scale="   55.983">  2  3  1 -1</clus>
</clustering>
</event>
<event>
 6    0  0.1849053E+002  0.1284022E+03  0.7546771E-02  0.1229846E+00
          1   -1    0    0  503    0 -0.00000000000E+00  0.00000000000E+00  0.54864699720E+03  0.54864699720E+03  0.00000000000E+00 0. -1.
         21   -1    0    0  505  502  0.00000000000E+00 -0.00000000000E+00 -0.33046444245E+03  0.33046444245E+03  0.00000000000E+00 0. -1.
         21    1    1    2  503  504 -0.15584343561E+02  0.42692203258E+02  0.36242360244E+02  0.58129206595E+02  0.00000000000E+00 0. -1.
         21    1    1    2  504  502  0.39002047183E+02 -0.18227023484E+03 -0.88507851906E+02  0.20634252602E+03  0.00000000000E+00 0. -1.
         21    1    1    2  505  501  0.22297345730E+02  0.11093715532E+03 -0.15159108118E+03  0.18916680456E+03  0.00000000000E+00 0. -1.
          1    1    1    2  501    0 -0.45715049352E+02  0.28640876269E+02  0.42203912759E+03  0.42547290248E+03  0.00000000000E+00 0. -1.
<scales pt_clust_3="45.44773" pt_clust_4="14000.00000" pt_clust_5="128.40217" pt_clust_6="87.49714"></scales>
<clustering>
<clus scale="   45.448">  1  3  2 -1</clus>
<clus scale="   87.497">  1  6  2 -1</clus>
<clus scale="  128.402">  2  5  1 -1</clus>
<clus scale="  128.402">  2  3  1 -1</clus>
</clustering>
</event>
<event>
 6    0  0.1849053E+002  0.2831178E+03  0.7546771E-02  0.1093998E+00
          2   -1    0    0  503    0 -0.00000000000E+00  0.00000000000E+00  0.82106654799E+03  0.82106654799E+03  0.00000000000E+00 0.  1.
         21   -1    0    0  505  502  0.00000000000E+00 -0.00000000000E+00 -0.24163932556E+03  0.24163932556E+03  0.00000000000E+00 0. -1.
         21    1    1    2  503  504 -0.90755213059E+02 -0.13317640640E+03 -0.30846737317E+02  0.16408529831E+03  0.00000000000E+00 0. -1.
         21    1    1    2  504  502 -0.94283680503E+02 -0.59141307383E+02 -0.92570760443E+02  0.14476343577E+03  0.00000000000E+00 0. -1.
         21    1    1    2  505  501  0.73135097902E+02  0.39383709109E+02  0.20902725750E+03  0.22492712923E+03  0.00000000000E+00 0.  1.
          2    1    1    2  501    0  0.11190379566E+03  0.15293400468E+03  0.49381746269E+03  0.52893001023E+03  0.00000000000E+00 0.  1.
<scales pt_clust_3="78.53151" pt_clust_4="78.53151" pt_clust_5="36.76939" pt_clust_6="272.59840"></scales>
<clustering>
<clus scale="   36.769">  5  6 -1 -1</clus>
<clus scale="   78.532">  3  4 -1 -1</clus>
<clus scale="  272.598">  1  5  2 -1</clus>
<clus scale="  283.118">  2  3  1 -1</clus>
</clustering>
</event>
<event>
 6    0  0.1849053E+002  0.2360834E+03  0.7546771E-02  0.1122430E+00
         21   -1    0    0  503  502  0.00000000000E+00  0.00000000000E+00  0.91439698144E+02  0.91439698144E+02  0.00000000000E+00 0. -1.
          2   -1    0    0  505    0 -0.00000000000E+00 -0.00000000000E+00 -0.15488091468E+04  0.15488091468E+04  0.00000000000E+00 0.  1.
         21    1    1    2  503  504  0.13677190500E+03 -0.12304647931E+03 -0.13978872722E+03  0.23105817087E+03  0.00000000000E+00 0. -1.
         21    1    1    2  504  501 -0.95445098832E+02  0.40497299931E+02 -0.34373362433E+03  0.35903008604E+03  0.00000000000E+00 0.  1.
         21    1    1    2  505  502  0.57781255970E+02  0.22449917666E+02  0.70955045363E+01  0.62394058445E+02  0.00000000000E+00 0. -1.
          2    1    1    2  501    0 -0.99108062137E+02  0.60099261714E+02 -0.98094260168E+03  0.98776652961E+03  0.00000000000E+00 0.  1.
<scales pt_clust_3="211.21537" pt_clust_4="97.85887" pt_clust_5="61.98929" pt_clust_6="97.85887"></scales>
<clustering>
<clus scale="   61.989">  1  5  2 -1</clus>
<clus scale="   97.859">  4  6 -1 -1</clus>
<clus scale="  211.215">  1  3  2 -1</clus>
<clus scale="   61.989">  1  3  2 -1</clus>
</clustering>
</event>
<event>
 6    0  0.1849053E+002  0.1067162E+03  0.7546771E-02  0.1266775E+00
         21   -1    0    0  504  502  0.00000000000E+00  0.00000000000E+00  0.15280653381E+04  0.15280653381E+04  0.00000000000E+00 0.  1.
          4   -1    0    0  505    0 -0.00000000000E+00 -0.00000000000E+00 -0.38866327832E+03  0.38866327832E+03  0.00000000000E+00 0. -1.
         21    1    1    2  503  502 -0.35352473526E+02  0.20573518788E+01  0.52405661567E+02  0.63248584533E+02  0.00000000000E+00 0. -1.
         21    1    1    2  504  501 -0.63351597374E+02  0.43897037707E+02  0.14538542680E+04  0.14558958092E+04  0.00000000000E+00 0.  1.
         21    1    1    2  505  503  0.21159034149E+02 -0.68964807611E+02 -0.18395742023E+03  0.19759600672E+03  0.00000000000E+00 0. -1.
          4    1    1    2  501    0  0.77545036751E+02  0.23010418026E+02 -0.18290044955E+03  0.19998821592E+03  0.00000000000E+00 0. -1.
<scales pt_clust_3="35.41229" pt_clust_4="106.71618" pt_clust_5="72.08066" pt_clust_6="14000.00000"></scales>
<clustering>
<clus scale="   35.412">  1  3  2 -1</clus>
<clus scale="   72.081">  2  5  1 -1</clus>
<clus scale="  106.716">  1  4  2 -1</clus>
<clus scale="   35.412">  1  3  2 -1</clus>
</clustering>
</event>
<event>
 6    0  0.1849053E+002  0.1299638E+03  0.7546771E-02  0.1227509E+00
          1   -1    0    0  503    0 -0.00000000000E+00  0.00000000000E+00  0.19329419754E+04  0.19329419754E+04  0.00000000000E+00 0.  1.
         21   -1    0    0  505  502  0.00000000000E+00 -0.00000000000E+00 -0.35705668957E+02  0.35705668957E+02  0.00000000000E+00 0.  1.
         21    1    1    2  503  504 -0.13503914568E+02  0.39909853760E+02  0.76540154116E+03  0.76656028553E+03  0.00000000000E+00 0.  1.
         21    1    1    2  504  502 -0.95222307992E+02  0.53344279124E+02  0.10738695952E+03  0.15311714185E+03  0.00000000000E+00 0.  1.
         21    1    1    2  505  501 -0.30451430909E+02 -0.18463300450E+02  0.47707179533E+02  0.59532832009E+02  0.00000000000E+00 0. -1.
          1    1    1    2  501    0  0.13917765347E+03 -0.74790832434E+02  0.97674062624E+03  0.98943738498E+03  0.00000000000E+00 0.  1.
<scales pt_clust_3="41.98769" pt_clust_4="129.96378" pt_clust_5="35.61156" pt_clust_6="14000.00000"></scales>
<clustering>
<clus scale="   35.612">  2  5  1 -1</clus>
<clus scale="   41.988">  1  3  2 -1</clus>
<clus scale="  129.964">  2  4  1 -1</clus>
<clus scale="   35.612">  2  3  1 -1</clus>
</clustering>
</event>
<event>
 6    0  0.1849053E+002  0.2879913E+03  0.7546771E-02  0.1091403E+00
          2   -1    0    0  505    0 -0.00000000000E+00  0.00000000000E+00  0.58502805209E+03  0.58502805209E+03  0.00000000000E+00 0. -1.
         21   -1    0    0  504  502  0.00000000000E+00 -0.00000000000E+00 -0.25865009363E+03  0.25865009363E+03  0.00000000000E+00 0.  1.
         21    1    1    2  503  501 -0.19310758522E+03 -0.11221874842E+03  0.29845607216E+03  0.37277287184E+03  0.00000000000E+00 0. -1.
         21    1    1    2  504  503  0.19315435182E+03  0.22212350175E+03 -0.74152846223E+02  0.30355575808E+03  0.00000000000E+00 0.  1.
         21    1    1    2  505  502  0.46925155460E+01 -0.51939350304E+02  0.27168716726E+01  0.52221616251E+02  0.00000000000E+00 0.  1.
          2    1    1    2  501    0 -0.47392821488E+01 -0.57965403028E+02  0.99357860853E+02  0.11512789956E+03  0.00000000000E+00 0. -1.
<scales pt_clust_3="55.52850" pt_clust_4="266.93407" pt_clust_5="52.15089" pt_clust_6="55.52850"></scales>
<clustering>
<clus scale="   52.151">  2  5  1 -1</clus>
<clus scale="   55.528">  3  6 -1 -1</clus>
<clus scale="  266.934">  2  4  1 -1</clus>
<clus scale="   52.151">  2  3  1 -1</clus>
</clustering>
</event>
<event>
 6    0  0.1849053E+002  0.7958871E+02  0.7546771E-02  0.1330223E+00
         21   -1    0    0  505  502  0.00000000000E+00  0.00000000000E+00  0.19306596973E+02  0.19306596973E+02  0.00000000000E+00 0.  1.
          2   -1    0    0  503    0 -0.00000000000E+00 -0.00000000000E+00 -0.14731304522E+04  0.14731304522E+04  0.00000000000E+00 0.  1.
         21    1    1    2  503  504  0.80244403569E+02 -0.69951548183E+02 -0.41871429906E+03  0.43203477595E+03  0.00000000000E+00 0.  1.
         21    1    1    2  504  502  0.14235620538E+02  0.68869038626E+02 -0.13045848115E+03  0.14820598057E+03  0.00000000000E+00 0.  1.
         21    1    1    2  505  501 -0.56189716825E+02  0.25340324476E+02 -0.32624737602E+03  0.33201922637E+03  0.00000000000E+00 0.  1.
          2    1    1    2  501    0 -0.38290307282E+02 -0.24257814918E+02 -0.57840369897E+03  0.58017706625E+03  0.00000000000E+00 0.  1.
<scales pt_clust_3="79.58871" pt_clust_4="65.61062" pt_clust_5="14000.00000" pt_clust_6="45.32758"></scales>
<clustering>
<clus scale="   45.328">  2  6  1 -1</clus>
<clus scale="   65.611">  1  4  2 -1</clus>
<clus scale="   79.589">  1  3  2 -1</clus>
<clus scale="   65.611">  1  3  2 -1</clus>
</clustering>
</event>
<event>
 6    0  0.1849053E+002  0.1415220E+03  0.7546771E-02  0.1211296E+00
          2   -1    0    0  502    0 -0.00000000000E+00  0.00000000000E+00  0.19316054037E+03  0.19316054037E+03  0.00000000000E+00 0.  1.
         21   -1    0    0  503  502  0.00000000000E+00 -0.00000000000E+00 -0.11579665631E+03  0.11579665631E+03  0.00000000000E+00 0. -1.
         21    1    1    2  503  504 -0.62472454783E+00  0.93824035332E+02 -0.28250550689E+02  0.97986904743E+02  0.00000000000E+00 0. -1.
         21    1    1    2  504  505 -0.23954627936E+02  0.35659948301E+02  0.11636607261E+02  0.44506929134E+02  0.00000000000E+00 0. -1.
         21    1    1    2  505  501  0.28858069981E+02 -0.55469761989E+02  0.34485540026E+02  0.71406828588E+02  0.00000000000E+00 0.  1.
          2    1    1    2  501    0 -0.42787174976E+01 -0.74014221644E+02  0.59492287459E+02  0.95056534211E+02  0.00000000000E+00 0.  1.
<scales pt_clust_3="34.88669" pt_clust_4="34.88669" pt_clust_5="35.66254" pt_clust_6="137.39803"></scales>
<clustering>
<clus scale="   34.887">  3  4 -1 -1</clus>
<clus scale="   35.663">  5  6 -1 -1</clus>
<clus scale="  137.398">  1  5  2 -1</clus>
<clus scale="  141.522">  2  3  1 -1</clus>
</clustering>
</event>
<event>
 6    0  0.1849053E+002  0.1252272E+03  0.7546771E-02  0.1234715E+00
          2   -1    0    0  505    0 -0.00000000000E+00  0.00000000000E+00  0.56495986450E+03  0.56495986450E+03  0.00000000000E+00 0. -1.
         21   -1    0    0  504  502  0.00000000000E+00 -0.00000000000E+00 -0.12364722340E+03  0.12364722340E+03  0.00000000000E+00 0. -1.
         21    1    1    2  503  502 -0.18624675141E+02 -0.46181712427E+02 -0.11951853369E+02  0.51210115073E+02  0.00000000000E+00 0. -1.
         21    1    1    2  504  501  0.72667370444E+02  0.63071946823E+02  0.85345982924E+01  0.96599464653E+02  0.00000000000E+00 0. -1.
         21    1    1    2  505  503  0.44131706757E+02 -0.71085671468E+02  0.15867618523E+01  0.83685709906E+02  0.00000000000E+00 0. -1.
          2    1    1    2  501    0 -0.98174402059E+02  0.54195437072E+02  0.44314313432E+03  0.45711179826E+03  0.00000000000E+00 0. -1.
<scales pt_clust_3="46.84448" pt_clust_4="96.22171" pt_clust_5="46.84448" pt_clust_6="109.52010"></scales>
<clustering>
<clus scale="   46.844">  3  5 -1 -1</clus>
<clus scale="   96.222">  2  4  1 -1</clus>
<clus scale="  109.520">  1  6  2 -1</clus>
<clus scale="   96.222">  2  3  1 -1</clus>
</clustering>
</event>
<event>
 6    0  0.1849053E+002  0.1251443E+03  0.7546771E-02  0.1234844E+00
          3   -1    0    0  503    0 -0.00000000000E+00  0.00000000000E+00  0.78400204698E+03  0.78400204698E+03  0.00000000000E+00 0.  1.
         21   -1    0    0  505  502  0.00000000000E+00 -0.00000000000E+00 -0.11818992084E+04  0.11818992084E+04  0.00000000000E+00 0. -1.
         21    1    1    2  503  504  0.58526231317E+02  0.31448922299E+01  0.48842316330E+02  0.76294049334E+02  0.00000000000E+00 0. -1.
         21    1    1    2  504  502  0.78421397748E+02  0.18816572487E+02 -0.59852811454E+02  0.10043076254E+03  0.00000000000E+00 0. -1.
         21    1    1    2  505  501 -0.77335878567E+02 -0.14371939242E+03 -0.10752627772E+04  0.10875781084E+04  0.00000000000E+00 0. -1.
          3    1    1    2  501    0 -0.59611750497E+02  0.12175792770E+03  0.68837611090E+03  0.70159833510E+03  0.00000000000E+00 0.  1.
<scales pt_clust_3="58.61067" pt_clust_4="82.26894" pt_clust_5="125.14435" pt_clust_6="14000.00000"></scales>
<clustering>
<clus scale="   58.611">  1  3  2 -1</clus>
<clus scale="   82.269">  2  4  1 -1</clus>
<clus scale="  125.144">  2  5  1 -1</clus>
<clus scale="   82.269">  2  3  1 -1</clus>
</clustering>
</event>
<event>
 6    0  0.1849053E+002  0.1421604E+03  0.7546771E-02  0.1210451E+00
         21   -1    0    0  503  502  0.00000000000E+00  0.00000000000E+00  0.49599718755E+03  0.49599718755E+03  0.00000000000E+00 0.  1.
         -1   -1    0    0    0  501 -0.00000000000E+00 -0.00000000000E+00 -0.10652363655E+03  0.10652363655E+03  0.00000000000E+00 0.  1.
         21    1    1    2  503  501  0.36678139902E+02  0.27766148620E+02  0.22446492615E+03  0.22913041707E+03  0.00000000000E+00 0.  1.
         21    1    1    2  504  505  0.52666905347E+01 -0.50295286994E+02  0.65827460141E+01  0.50996926065E+02  0.00000000000E+00 0. -1.
         21    1    1    2  505  502  0.14780563128E+02  0.99019514961E+02  0.19594470143E+03  0.22004012227E+03  0.00000000000E+00 0.  1.
         -1    1    1    2    0  504 -0.56725393564E+02 -0.76490376588E+02 -0.37518822596E+02  0.10235335869E+03  0.00000000000E+00 0.  1.
<scales pt_clust_3="46.00266" pt_clust_4="45.13779" pt_clust_5="127.95668" pt_clust_6="45.13779"></scales>
<clustering>
<clus scale="   45.138">  4  6 -1 -1</clus>
<clus scale="   46.003">  1  3  2 -1</clus>
<clus scale="  127.957">  1  5  2 -1</clus>
<clus scale="   46.003">  1  3  2 -1</clus>
</clustering>
</event>
<event>
 6    0  0.1849053E+002  0.1787537E+03  0.7546771E-02  0.1169015E+00
         21   -1    0    0  504  502  0.00000000000E+00  0.00000000000E+00  0.39670380231E+03  0.39670380231E+03  0.00000000000E+00 0. -1.
          2   -1    0    0  505    0 -0.00000000000E+00 -0.00000000000E+00 -0.14327316972E+04  0.14327316972E+04  0.00000000000E+00 0. -1.
         21    1    1    2  503  501  0.95423684876E+02 -0.68367981233E+02  0.23018946714E+03  0.25839321059E+03  0.00000000000E+00 0. -1.
         21    1    1    2  504  503  0.89163356964E+02  0.34322215941E+02  0.12006019893E+03  0.15343588270E+03  0.00000000000E+00 0. -1.
         21    1    1    2  505  502 -0.97325867351E+02 -0.84422449013E+02 -0.39532644136E+03  0.41579137749E+03  0.00000000000E+00 0. -1.
          2    1    1    2  501    0 -0.87261174489E+02  0.11846821430E+03 -0.99095111963E+03  0.10018150288E+04  0.00000000000E+00 0. -1.
<scales pt_clust_3="14000.00000" pt_clust_4="95.54119" pt_clust_5="125.30899" pt_clust_6="178.75365"></scales>
<clustering>
<clus scale="   95.541">  1  4  2 -1</clus>
<clus scale="  125.309">  2  5  1 -1</clus>
<clus scale="  178.754">  2  6  1 -1</clus>
<clus scale="   95.541">  1  3  2 -1</clus>
</clustering>
</event>
<event>
 6    0  0.1849053E+002  0.9035675E+02  0.7546771E-02  0.1301990E+00
         21   -1    0    0  504  502  0.00000000000E+00  0.00000000000E+00  0.15193936446E+04  0.15193936446E+04  0.00000000000E+00 0.  1.
         -3   -1    0    0    0  501 -0.00000000000E+00 -0.00000000000E+00 -0.27401893254E+02  0.27401893254E+02  0.00000000000E+00 0.  1.
         21    1    1    2  503  501 -0.12292167279E+02 -0.78114742163E+02  0.28017846717E+03  0.29112365721E+03  0.00000000000E+00 0.  1.
         21    1    1    2  504  503 -0.10054249405E+02 -0.58748416734E+02  0.51121654323E+03  0.51467933558E+03  0.00000000000E+00 0.  1.
         21    1    1    2  505  502  0.22519230820E+02  0.41549850437E+02  0.60201959837E+03  0.60387176011E+03  0.00000000000E+00 0.  1.
         -3    1    1    2    0  505 -0.17281413532E+00  0.95313308460E+02  0.98577142616E+02  0.13712078501E+03  0.00000000000E+00 0.  1.
<scales pt_clust_3="90.35675" pt_clust_4="35.58391" pt_clust_5="47.25998" pt_clust_6="14000.00000"></scales>
<clustering>
<clus scale="   47.260">  1  5  2 -1</clus>
<clus scale="   35.584">  1  4  2 -1</clus>
<clus scale="   90.357">  1  3  2 -1</clus>
<clus scale="   47.260">  1  3  2 -1</clus>
</clustering>
</event>
<event>
 6    0  0.1849053E+002  0.1447250E+03  0.7546771E-02  0.1207109E+00
          2   -1    0    0  503    0 -0.00000000000E+00  0.00000000000E+00  0.17456620018E+04  0.17456620018E+04  0.00000000000E+00 0. -1.
         21   -1    0    0  505  502  0.00000000000E+00 -0.00000000000E+00 -0.53892013156E+02  0.53892013156E+02  0.00000000000E+00 0.  1.
         21    1    1    2  503  504 -0.75801718456E+02  0.22483101894E+02  0.11371002225E+01  0.79073910922E+02  0.00000000000E+00 0.  1.
         21    1    1    2  504  502 -0.46667774817E+02  0.52981730465E+02  0.97962400225E+02  0.12075420004E+03  0.00000000000E+00 0.  1.
         21    1    1    2  505  501  0.51814509438E+02 -0.81165996010E+01  0.54380173800E+03  0.54632495168E+03  0.00000000000E+00 0. -1.
          2    1    1    2  501    0  0.70654983835E+02 -0.67348232758E+02  0.10488687502E+04  0.10534009523E+04  0.00000000000E+00 0. -1.
<scales pt_clust_3="138.25832" pt_clust_4="70.60414" pt_clust_5="31.35666" pt_clust_6="31.35666"></scales>
<clustering>
<clus scale="   31.357">  5  6 -1 -1</clus>
<clus scale="   70.604">  2  4  1 -1</clus>
<clus scale="  138.258">  2  3  1 -1</clus>
<clus scale="   70.604">  2  3  1 -1</clus>
</clustering>
</event>
<event>
 6    0  0.1849053E+002  0.6380564E+02  0.7546771E-02  0.1382521E+00
         21   -1    0    0  501  502  0.00000000000E+00  0.00000000000E+00  0.18407529920E+04  0.18407529920E+04  0.00000000000E+00 0. -1.
          3   -1    0    0  503    0 -0.00000000000E+00 -0.00000000000E+00 -0.12349932734E+03  0.12349932734E+03  0.00000000000E+00 0.  1.
         21    1    1    2  503  504  0.67506559543E+02 -0.93325064830E+01  0.34922759674E+02  0.76575651495E+02  0.00000000000E+00 0. -1.
         21    1    1    2  504  505 -0.65668027362E+02  0.43838288836E+02  0.12500175942E+04  0.12525087111E+04  0.00000000000E+00 0. -1.
         21    1    1    2  505  502  0.49469862519E+02  0.81095673449E+01  0.52144200356E+03  0.52384615629E+03  0.00000000000E+00 0. -1.
          3    1    1    2  501    0 -0.51308394700E+02 -0.42615349698E+02 -0.89128692778E+02  0.11132180053E+03  0.00000000000E+00 0.  1.
<scales pt_clust_3="63.80564" pt_clust_4="54.82673" pt_clust_5="50.13015" pt_clust_6="14000.00000"></scales>
<clustering>
<clus scale="   50.130">  1  5  2 -1</clus>
<clus scale="   54.827">  1  4  2 -1</clus>
<clus scale="   63.806">  1  3  2 -1</clus>
<clus scale="   50.130">  1  3  2 -1</clus>
</clustering>
</event>
<event>
 6    0  0.1849053E+002  0.7334214E+02  0.7546771E-02  0.1349083E+00
          1   -1    0    0  503    0 -0.00000000000E+00  0.00000000000E+00  0.65076855350E+03  0.65076855350E+03  0.00000000000E+00 0.  1.
         21   -1    0    0  505  502  0.00000000000E+00 -0.00000000000E+00 -0.83656637121E+02  0.83656637121E+02  0.00000000000E+00 0.  1.
         21    1    1    2  503  504 -0.64621623820E+02 -0.64858120575E+02  0.21750833475E+02  0.94104350731E+02  0.00000000000E+00 0.  1.
         21    1    1    2  504  502 -0.22496951731E+02  0.57299572798E+02 -0.18940374370E+02  0.64405680349E+02  0.00000000000E+00 0.  1.
         21    1    1    2  505  501  0.45160965991E+02  0.26106559006E+02  0.14473521534E+03  0.15384845736E+03  0.00000000000E+00 0.  1.
          1    1    1    2  501    0  0.41957609560E+02 -0.18548011228E+02  0.41956624193E+03  0.42206670218E+03  0.00000000000E+00 0.  1.
<scales pt_clust_3="14000.00000" pt_clust_4="58.42226" pt_clust_5="73.34214" pt_clust_6="45.87450"></scales>
<clustering>
<clus scale="   45.874">  1  6  2 -1</clus>
<clus scale="   58.422">  2  4  1 -1</clus>
<clus scale="   73.342">  1  5  2 -1</clus>
<clus scale="   58.422">  2  3  1 -1</clus>
</clustering>
</event>
<event>
 6    0  0.1849053E+002  0.1010373E+03  0.7546771E-02  0.1278130E+00
         -2   -1    0    0    0  501 -0.00000000000E+00  0.00000000000E+00  0.17982634781E+04  0.17982634781E+04  0.00000000000E+00 0.  1.
         21   -1    0    0  503  502  0.00000000000E+00 -0.00000000000E+00 -0.33386885038E+03  0.33386885038E+03  0.00000000000E+00 0. -1.
         21    1    1    2  503  504  0.15109548709E+02 -0.33540163569E+02 -0.22840999590E+03  0.23135333855E+03  0.00000000000E+00 0. -1.
         21    1    1    2  504  505  0.43688562035E+02  0.39723908409E+01 -0.91670795937E+02  0.10162679356E+03  0.00000000000E+00 0. -1.
         21    1    1    2  505  501  0.59964422637E+02  0.25873947279E+02  0.20360617375E+03  0.21382391615E+03  0.00000000000E+00 0.  1.
         -2    1    1    2    0  502 -0.11876253338E+03  0.36938254490E+01  0.15808692458E+04  0.15853282802E+04  0.00000000000E+00 0.  1.
<scales pt_clust_3="36.78642" pt_clust_4="63.81888" pt_clust_5="101.03729" pt_clust_6="14000.00000"></scales>
<clustering>
<clus scale="   36.786">  2  3  1 -1</clus>
<clus scale="   63.819">  2  4  1 -1</clus>
<clus scale="  101.037">  2  5  1 -1</clus>
<clus scale="   36.786">  2  3  1 -1</clus>
</clustering>
</event>
<event>
 6    0  0.1849053E+002  0.2401480E+03  0.7546771E-02  0.1119694E+00
          2   -1    0    0  502    0 -0.00000000000E+00  0.00000000000E+00  0.23259656153E+04  0.23259656153E+04  0.00000000000E+00 0.  1.
         21   -1    0    0  503  502  0.00000000000E+00 -0.00000000000E+00 -0.81355470326E+02  0.81355470326E+02  0.00000000000E+00 0. -1.
         21    1    1    2  503  505 -0.50471715866E+02 -0.16412913824E+02  0.29692342383E+01  0.53156318483E+02  0.00000000000E+00 0. -1.
         21    1    1    2  504  501  0.80261740454E+02  0.37743288854E+02  0.99779006843E+03  0.10017242752E+04  0.00000000000E+00 0.  1.
         21    1    1    2  505  504 -0.15802785429E+03 -0.88136264184E+02  0.11506538129E+03  0.21443144771E+03  0.00000000000E+00 0. -1.
          2    1    1    2  501    0  0.12823782970E+03  0.66805889154E+02  0.11287854610E+04  0.11380090442E+04  0.00000000000E+00 0.  1.
<scales pt_clust_3="30.96251" pt_clust_4="32.59987" pt_clust_5="30.96251" pt_clust_6="236.92867"></scales>
<clustering>
<clus scale="   30.963">  3  5 -1 -1</clus>
<clus scale="   32.600">  4  6 -1 -1</clus>
<clus scale="  236.929">  1  4  2 -1</clus>
<clus scale="  240.148">  2  3  1 -1</clus>
</clustering>
</event>
<event>
 6    0  0.1849053E+002  0.2360270E+03  0.7546771E-02  0.1122468E+00
          2   -1    0    0  503    0 -0.00000000000E+00  0.00000000000E+00  0.18798743554E+04  0.18798743554E+04  0.00000000000E+00 0.  1.
         21   -1    0    0  501  502  0.00000000000E+00 -0.00000000000E+00 -0.57681315720E+02  0.57681315720E+02  0.00000000000E+00 0. -1.
         21    1    1    2  503  505 -0.22597127731E+02 -0.53597520167E+02  0.31036965757E+03  0.31577309684E+03  0.00000000000E+00 0.  1.
         21    1    1    2  504  502 -0.13087548746E+03  0.62659121627E+02  0.15824882741E+03  0.21470270170E+03  0.00000000000E+00 0. -1.
         21    1    1    2  505  504 -0.44459445912E+02  0.82566222151E+02  0.11010807005E+03  0.14462921717E+03  0.00000000000E+00 0. -1.
          2    1    1    2  501    0  0.19793206110E+03 -0.91627823611E+02  0.12434664847E+04  0.12624506554E+04  0.00000000000E+00 0.  1.
<scales pt_clust_3="58.16635" pt_clust_4="57.49255" pt_clust_5="57.49255" pt_clust_6="224.58288"></scales>
<clustering>
<clus scale="   58.166">  1  3  2 -1</clus>
<clus scale="   57.493">  4  5 -1 -1</clus>
<clus scale="  224.583">  1  6  2 -1</clus>
<clus scale="  236.027">  2  3  1 -1</clus>
</clustering>
</event>
<event>
 6    0  0.2538454E+002  0.1195042E+03  0.7546771E-02  0.1243917E+00
          2   -1    0    0  504    0 -0.00000000000E+00  0.00000000000E+00  0.26021955413E+04  0.26021955413E+04  0.00000000000E+00 0. -1.
         21   -1    0    0  503  502  0.00000000000E+00 -0.00000000000E+00 -0.33874215496E+03  0.33874215496E+03  0.00000000000E+00 0.  1.
         21    1    1    2  503  505  0.62989867768E+02 -0.85566622903E+01 -0.30186571905E+03  0.30848638909E+03  0.00000000000E+00 0.  1.
         21    1    1    2  504  502  0.21437169725E+02  0.22250505364E+02 -0.99921365164E+01  0.32472758228E+02  0.00000000000E+00 0. -1.
         21    1    1    2  505  501 -0.80008840243E+01  0.88595173886E+02  0.17535340333E+03  0.19662638439E+03  0.00000000000E+00 0. -1.
          2    1    1    2  501    0 -0.76426153469E+02 -0.10228901696E+03  0.23999578386E+04  0.24033521646E+04  0.00000000000E+00 0. -1.
<scales pt_clust_3="84.57308" pt_clust_4="30.89720" pt_clust_5="14000.00000" pt_clust_6="119.50423"></scales>
<clustering>
<clus scale="   30.897">  2  4  1 -1</clus>
<clus scale="   84.573">  2  3  1 -1</clus>
<clus scale="  119.504">  1  6  2 -1</clus>
<clus scale="   30.897">  2  3  1 -1</clus>
</clustering>
</event>
<event>
 6    0  0.1849053E+002  0.1508322E+03  0.7546771E-02  0.1199454E+00
          2   -1    0    0  503    0 -0.00000000000E+00  0.00000000000E+00  0.14916147191E+04  0.14916147191E+04  0.00000000000E+00 0. -1.
         21   -1    0    0  504  502  0.00000000000E+00 -0.00000000000E+00 -0.28608813261E+03  0.28608813261E+03  0.00000000000E+00 0. -1.
         21    1    1    2  503  505 -0.21802639875E+02  0.35702787598E+02  0.13098724134E+03  0.13750527823E+03  0.00000000000E+00 0. -1.
         21    1    1    2  504  501  0.96862847873E+02 -0.28517759455E+02 -0.24319159370E+03  0.26332076475E+03  0.00000000000E+00 0. -1.
         21    1    1    2  505  502  0.51261013483E+02 -0.10538375068E+02 -0.76556152733E+00  0.52338656238E+02  0.00000000000E+00 0.  1.
          2    1    1    2  501    0 -0.12632122148E+03  0.33533469254E+01  0.13184965004E+04  0.13245381525E+04  0.00000000000E+00 0. -1.
<scales pt_clust_3="41.83353" pt_clust_4="150.83218" pt_clust_5="51.79402" pt_clust_6="14000.00000"></scales>
<clustering>
<clus scale="   41.834">  1  3  2 -1</clus>
<clus scale="   51.794">  2  5  1 -1</clus>
<clus scale="  150.832">  2  4  1 -1</clus>
<clus scale="   51.794">  2  3  1 -1</clus>
</clustering>
</event>
<event>
 6    0  0.1849053E+002  0.1217000E+03  0.7546771E-02  0.1240319E+00
         21   -1    0    0  504  502  0.00000000000E+00  0.00000000000E+00  0.64867509956E+02  0.64867509956E+02  0.00000000000E+00 0. -1.
         -2   -1    0    0    0  501 -0.00000000000E+00 -0.00000000000E+00 -0.80617615982E+03  0.80617615982E+03  0.00000000000E+00 0. -1.
         21    1    1    2  503  505 -0.35822341207E+01  0.96137100681E+02 -0.17955983891E+03  0.20370790431E+03  0.00000000000E+00 0. -1.
         21    1    1    2  504  501 -0.32124686459E+02 -0.30147038434E+02 -0.64523775915E+02  0.78129105107E+02  0.00000000000E+00 0.  1.
         21    1    1    2  505  502 -0.15362897097E+02 -0.12697459877E+03 -0.53886535737E+02  0.13878878224E+03  0.00000000000E+00 0. -1.
         -2    1    1    2    0  503  0.51069817677E+02  0.60984536525E+02 -0.44333849930E+03  0.45041787813E+03  0.00000000000E+00 0. -1.
<scales pt_clust_3="14000.00000" pt_clust_4="44.05496" pt_clust_5="121.70002" pt_clust_6="76.87830"></scales>
<clustering>
<clus scale="   44.055">  1  4  2 -1</clus>
<clus scale="   76.878">  2  6  1 -1</clus>
<clus scale="  121.700">  1  5  2 -1</clus>
<clus scale="   44.055">  1  3  2 -1</clus>
</clustering>
</event>
<event>
 6    0  0.1849053E+002  0.1125702E+03  0.7546771E-02  0.1255883E+00
         21   -1    0    0  501  502  0.00000000000E+00  0.00000000000E+00  0.31824270698E+02  0.31824270698E+02  0.00000000000E+00 0. -1.
          2   -1    0    0  505    0 -0.00000000000E+00 -0.00000000000E+00 -0.17090885438E+04  0.17090885438E+04  0.00000000000E+00 0. -1.
         21    1    1    2  503  502  0.41201576054E+02  0.16380354197E+02 -0.37405698836E+02  0.58009242180E+02  0.00000000000E+00 0. -1.
         21    1    1    2  504  503  0.22656349468E+02  0.65459979477E+02 -0.63336634953E+02  0.93860792728E+02  0.00000000000E+00 0. -1.
         21    1    1    2  505  504 -0.57819105623E+02  0.25762083446E+02 -0.24081749353E+03  0.24899758856E+03  0.00000000000E+00 0.  1.
          2    1    1    2  501    0 -0.60388198987E+01 -0.10760241712E+03 -0.13357044458E+04  0.13400451910E+04  0.00000000000E+00 0. -1.
<scales pt_clust_3="37.00883" pt_clust_4="37.00883" pt_clust_5="63.29877" pt_clust_6="102.62668"></scales>
<clustering>
<clus scale="   37.009">  3  4 -1 -1</clus>
<clus scale="   63.299">  2  5  1 -1</clus>
<clus scale="  102.627">  2  6  1 -1</clus>
<clus scale="  112.570">  1  3  2 -1</clus>
</clustering>
</event>
<event>
 6    0  0.1849053E+002  0.9085617E+02  0.7546771E-02  0.1300792E+00
          2   -1    0    0  505    0 -0.00000000000E+00  0.00000000000E+00  0.61520338134E+03  0.61520338134E+03  0.00000000000E+00 0.  1.
         21   -1    0    0  503  502  0.00000000000E+00 -0.00000000000E+00 -0.58389924836E+02  0.58389924836E+02  0.00000000000E+00 0. -1.
         21    1    1    2  503  504 -0.17839606382E+02  0.36901840527E+02 -0.97674027354E+01  0.42135490342E+02  0.00000000000E+00 0. -1.
         21    1    1    2  504  501 -0.82378144980E+02  0.25910502597E+02  0.61340683543E+02  0.10592540948E+03  0.00000000000E+00 0. -1.
         21    1    1    2  505  502  0.68292202031E+02  0.23800187166E+01  0.18632577496E+03  0.19846103839E+03  0.00000000000E+00 0.  1.
          2    1    1    2  501    0  0.31925549331E+02 -0.65192361841E+02  0.31891440075E+03  0.32707136797E+03  0.00000000000E+00 0.  1.
<scales pt_clust_3="40.98777" pt_clust_4="90.85617" pt_clust_5="65.61521" pt_clust_6="14000.00000"></scales>
<clustering>
<clus scale="   40.988">  2  3  1 -1</clus>
<clus scale="   65.615">  1  5  2 -1</clus>
<clus scale="   90.856">  2  4  1 -1</clus>
<clus scale="   40.988">  2  3  1 -1</clus>
</clustering>
</event>
<event>
 6    0  0.3585027E+002  0.7431183E+02  0.7546771E-02  0.1346015E+00
         -4   -1    0    0    0  501 -0.00000000000E+00  0.00000000000E+00  0.11164488725E+04  0.11164488725E+04  0.00000000000E+00 0. -1.
         21   -1    0    0  504  502  0.00000000000E+00 -0.00000000000E+00 -0.73712734259E+03  0.73712734259E+03  0.00000000000E+00 0. -1.
         21    1    1    2  503  502 -0.34498488329E+02  0.30047444288E+02  0.15875016371E+01  0.45776792883E+02  0.00000000000E+00 0. -1.
         21    1    1    2  504  505  0.26177729385E+02 -0.73087199536E+02 -0.70538993564E+03  0.70964919049E+03  0.00000000000E+00 0. -1.
         21    1    1    2  505  501 -0.56916117117E+02 -0.59471946027E+01  0.13640560472E+03  0.14792329942E+03  0.00000000000E+00 0.  1.
         -4    1    1    2    0  503  0.65236876061E+02  0.48986949851E+02  0.94671835915E+03  0.95022693227E+03  0.00000000000E+00 0. -1.
<scales pt_clust_3="45.74926" pt_clust_4="44.07983" pt_clust_5="14000.00000" pt_clust_6="74.31183"></scales>
<clustering>
<clus scale="   45.749">  2  3  1 -1</clus>
<clus scale="   44.080">  2  4  1 -1</clus>
<clus scale="   74.312">  1  6  2 -1</clus>
<clus scale="   45.749">  2  3  1 -1</clus>
</clustering>
</event>
<event>
 6    0  0.1849053E+002  0.2017819E+03  0.7546771E-02  0.1148244E+00
          2   -1    0    0  502    0 -0.00000000000E+00  0.00000000000E+00  0.30634151242E+04  0.30634151242E+04  0.00000000000E+00 0.  1.
         21   -1    0    0  504  502  0.00000000000E+00 -0.00000000000E+00 -0.42697966944E+02  0.42697966944E+02  0.00000000000E+00 0.  1.
         21    1    1    2  503  501  0.70497357814E+02 -0.41160112693E+02  0.91633383118E+03  0.91996289191E+03  0.00000000000E+00 0.  1.
         21    1    1    2  504  505 -0.89703617455E+02  0.86890412414E+02  0.11572192406E+03  0.17025935059E+03  0.00000000000E+00 0.  1.
         21    1    1    2  505  503 -0.67062038444E+02  0.32459591594E+02  0.10562172722E+03  0.12925514051E+03  0.00000000000E+00 0. -1.
          2    1    1    2  501    0  0.86268298084E+02 -0.78189891314E+02  0.18830396748E+04  0.18866357082E+04  0.00000000000E+00 0.  1.
<scales pt_clust_3="34.35937" pt_clust_4="33.63222" pt_clust_5="33.63222" pt_clust_6="201.25525"></scales>
<clustering>
<clus scale="   33.632">  4  5 -1 -1</clus>
<clus scale="   34.359">  3  6 -1 -1</clus>
<clus scale="  201.255">  1  3  2 -1</clus>
<clus scale="  201.782">  2  3  1 -1</clus>
</clustering>
</event>
<event>
 6    0  0.1849053E+002  0.1175172E+03  0.7546771E-02  0.1247250E+00
         21   -1    0    0  505  502  0.00000000000E+00  0.00000000000E+00  0.38182627557E+02  0.38182627557E+02  0.00000000000E+00 0.  1.
          2   -1    0    0  504    0 -0.00000000000E+00 -0.00000000000E+00 -0.31650032688E+04  0.31650032688E+04  0.00000000000E+00 0.  1.
         21    1    1    2  503  501 -0.13661677224E+01 -0.70073215740E+02 -0.16900402449E+02  0.72095392234E+02  0.00000000000E+00 0.  1.
         21    1    1    2  504  502 -0.14725197821E+02  0.30889487820E+02 -0.22150003548E+03  0.22412777076E+03  0.00000000000E+00 0.  1.
         21    1    1    2  505  503 -0.57575929828E+02 -0.39235700731E+02 -0.13944218709E+03  0.15587992638E+03  0.00000000000E+00 0.  1.
          2    1    1    2  501    0  0.73667295372E+02  0.78419428651E+02 -0.27489780162E+04  0.27510828069E+04  0.00000000000E+00 0.  1.
<scales pt_clust_3="117.51718" pt_clust_4="34.21976" pt_clust_5="69.43216" pt_clust_6="14000.00000"></scales>
<clustering>
<clus scale="   34.220">  2  4  1 -1</clus>
<clus scale="   69.432">  1  5  2 -1</clus>
<clus scale="  117.517">  1  3  2 -1</clus>
<clus scale="   69.432">  1  3  2 -1</clus>
</clustering>
</event>
<event>
 6    0  0.1849053E+002  0.1078728E+03  0.7546771E-02  0.1264561E+00
         21   -1    0    0  505  502  0.00000000000E+00  0.00000000000E+00  0.15690324250E+03  0.15690324250E+03  0.00000000000E+00 0.  1.
          3   -1    0    0  502    0 -0.00000000000E+00 -0.00000000000E+00 -0.24529624910E+03  0.24529624910E+03  0.00000000000E+00 0.  1.
         21    1    1    2  503  501 -0.22543264868E+02 -0.69007774360E+02 -0.30949227226E+02  0.78918479325E+02  0.00000000000E+00 0.  1.
         21    1    1    2  504  503 -0.26771530562E+02  0.58774888985E+02  0.33759523297E+02  0.72875975720E+02  0.00000000000E+00 0.  1.
         21    1    1    2  505  504  0.17698166779E+01  0.62561876115E+02  0.57979847761E+02  0.85315785998E+02  0.00000000000E+00 0. -1.
          3    1    1    2  501    0  0.47544978752E+02 -0.52328990739E+02 -0.14918315043E+03  0.16508925056E+03  0.00000000000E+00 0.  1.
<scales pt_clust_3="101.86130" pt_clust_4="34.95456" pt_clust_5="34.95456" pt_clust_6="70.70253"></scales>
<clustering>
<clus scale="   34.955">  4  5 -1 -1</clus>
<clus scale="   70.703">  2  6  1 -1</clus>
<clus scale="  101.861">  2  3  1 -1</clus>
<clus scale="  107.873">  1  3  2 -1</clus>
</clustering>
</event>
<event>
 6    0  0.1849053E+002  0.8269261E+02  0.7546771E-02  0.1321579E+00
          2   -1    0    0  505    0 -0.00000000000E+00  0.00000000000E+00  0.28335754493E+04  0.28335754493E+04  0.00000000000E+00 0.  1.
         21   -1    0    0  504  502  0.00000000000E+00 -0.00000000000E+00 -0.47822433882E+02  0.47822433882E+02  0.00000000000E+00 0.  1.
         21    1    1    2  503  502  0.46626995200E+01 -0.34530638440E+02  0.20428737491E+02  0.40391076655E+02  0.00000000000E+00 0.  1.
         21    1    1    2  504  501 -0.45135714034E+02 -0.43331152402E+02  0.76969003454E+01  0.63040175482E+02  0.00000000000E+00 0.  1.
         21    1    1    2  505  503  0.54668978017E+02 -0.38577287171E+02  0.24129192085E+04  0.24138467248E+04  0.00000000000E+00 0.  1.
          2    1    1    2  501    0 -0.14195963503E+02  0.11643907801E+03  0.34470816910E+03  0.36411990623E+03  0.00000000000E+00 0.  1.
<scales pt_clust_3="34.84402" pt_clust_4="14000.00000" pt_clust_5="67.20108" pt_clust_6="82.69261"></scales>
<clustering>
<clus scale="   34.844">  2  3  1 -1</clus>
<clus scale="   67.201">  1  5  2 -1</clus>
<clus scale="   82.693">  1  6  2 -1</clus>
<clus scale="   34.844">  2  3  1 -1</clus>
</clustering>
</event>
<event>
 6    0  0.1849053E+002  0.3514449E+03  0.7546771E-02  0.1062024E+00
         21   -1    0    0  505  502  0.00000000000E+00  0.00000000000E+00  0.34572773318E+03  0.34572773318E+03  0.00000000000E+00 0. -1.
          2   -1    0    0  504    0 -0.00000000000E+00 -0.00000000000E+00 -0.21246856868E+04  0.21246856868E+04  0.00000000000E+00 0. -1.
         21    1    1    2  503  501 -0.25142304191E+03  0.14628057108E+03  0.14449570522E+03  0.32479310385E+03  0.00000000000E+00 0. -1.
         21    1    1    2  504  502  0.16292211010E+03 -0.33373487667E+02 -0.21362472917E+03  0.27072666760E+03  0.00000000000E+00 0. -1.
         21    1    1    2  505  503 -0.65172480614E+02 -0.76668410669E+00  0.63732493193E+02  0.91158492322E+02  0.00000000000E+00 0. -1.
          2    1    1    2  501    0  0.15367341243E+03 -0.11214039931E+03 -0.17735614229E+04  0.17837351562E+04  0.00000000000E+00 0. -1.
<scales pt_clust_3="42.99418" pt_clust_4="166.30515" pt_clust_5="42.99418" pt_clust_6="339.50517"></scales>
<clustering>
<clus scale="   42.994">  3  5 -1 -1</clus>
<clus scale="  166.305">  2  4  1 -1</clus>
<clus scale="  339.505">  2  6  1 -1</clus>
<clus scale="  351.445">  1  3  2 -1</clus>
</clustering>
</event>
<event>
 6    0  0.1849053E+002  0.1131491E+03  0.7546771E-02  0.1254847E+00
          1   -1    0    0  504    0 -0.00000000000E+00  0.00000000000E+00  0.76078946174E+03  0.76078946174E+03  0.00000000000E+00 0.  1.
         21   -1    0    0  505  502  0.00000000000E+00 -0.00000000000E+00 -0.11836143961E+03  0.11836143961E+03  0.00000000000E+00 0.  1.
         21    1    1    2  503  502  0.69366435300E+02  0.14270672531E+02 -0.65737268310E+02  0.96626822806E+02  0.00000000000E+00 0.  1.
         21    1    1    2  504  503 -0.46092397314E+02 -0.52289643779E+01  0.93942663866E+02  0.10477153837E+03  0.00000000000E+00 0. -1.
         21    1    1    2  505  501  0.66066576830E+02 -0.36800491459E+02  0.22815008533E+02  0.78991096713E+02  0.00000000000E+00 0.  1.
          1    1    1    2  501    0 -0.89340614816E+02  0.27758783306E+02  0.59140761804E+03  0.59876144346E+03  0.00000000000E+00 0.  1.
<scales pt_clust_3="69.74043" pt_clust_4="46.38805" pt_clust_5="113.14909" pt_clust_6="14000.00000"></scales>
<clustering>
<clus scale="   46.388">  1  4  2 -1</clus>
<clus scale="   69.740">  2  3  1 -1</clus>
<clus scale="  113.149">  2  5  1 -1</clus>
<clus scale="   69.740">  2  3  1 -1</clus>
</clustering>
</event>
<event>
 6    0  0.1849053E+002  0.1428948E+03  0.7546771E-02  0.1209486E+00
          2   -1    0    0  504    0 -0.00000000000E+00  0.00000000000E+00  0.18818237282E+04  0.18818237282E+04  0.00000000000E+00 0. -1.
         21   -1    0    0  501  502  0.00000000000E+00 -0.00000000000E+00 -0.14994472354E+03  0.14994472354E+03  0.00000000000E+00 0. -1.
         21    1    1    2  503  502  0.44070149550E+02  0.64661615368E+02 -0.26647988053E+02  0.82664489659E+02  0.00000000000E+00 0.  1.
         21    1    1    2  504  505  0.30070330831E+01 -0.42042897258E+02  0.82690389246E+02  0.92813511578E+02  0.00000000000E+00 0. -1.
         21    1    1    2  505  503  0.33843126750E+02  0.40658909126E+02 -0.80841285463E+02  0.96611684360E+02  0.00000000000E+00 0. -1.
          2    1    1    2  501    0 -0.80920309383E+02 -0.63277627237E+02  0.17566778889E+04  0.17596787661E+04  0.00000000000E+00 0. -1.
<scales pt_clust_3="48.20373" pt_clust_4="42.15030" pt_clust_5="48.20373" pt_clust_6="130.36794"></scales>
<clustering>
<clus scale="   42.150">  1  4  2 -1</clus>
<clus scale="   48.204">  3  5 -1 -1</clus>
<clus scale="  130.368">  1  6  2 -1</clus>
<clus scale="  142.895">  2  3  1 -1</clus>
</clustering>
</event>
<event>
 6    0  0.1849053E+002  0.2581600E+03  0.7546771E-02  0.1108254E+00
         21   -1    0    0  501  502  0.00000000000E+00  0.00000000000E+00  0.12366441939E+03  0.12366441939E+03  0.00000000000E+00 0. -1.
          2   -1    0    0  503    0 -0.00000000000E+00 -0.00000000000E+00 -0.43825165368E+04  0.43825165368E+04  0.00000000000E+00 0. -1.
         21    1    1    2  503  504 -0.39061354375E+02  0.57631923794E+01 -0.59796717065E+03  0.59926933925E+03  0.00000000000E+00 0. -1.
         21    1    1    2  504  505  0.39703340553E+02  0.72033214338E+02 -0.47493531593E+02  0.94977759303E+02  0.00000000000E+00 0. -1.
         21    1    1    2  505  502  0.10538571993E+03  0.12364795556E+03  0.26774595212E+02  0.16465675154E+03  0.00000000000E+00 0. -1.
          2    1    1    2  501    0 -0.10602770611E+03 -0.20144436227E+03 -0.36401660104E+04  0.36472771061E+04  0.00000000000E+00 0. -1.
<scales pt_clust_3="39.48422" pt_clust_4="62.16309" pt_clust_5="62.16309" pt_clust_6="242.91511"></scales>
<clustering>
<clus scale="   39.484">  2  3  1 -1</clus>
<clus scale="   62.163">  4  5 -1 -1</clus>
<clus scale="  242.915">  2  6  1 -1</clus>
<clus scale="  258.160">  1  3  2 -1</clus>
</clustering>
</event>
<event>
 6    0  0.1849053E+002  0.9095015E+02  0.7546771E-02  0.1300567E+00
          2   -1    0    0  505    0 -0.00000000000E+00  0.00000000000E+00  0.14949383650E+04  0.14949383650E+04  0.00000000000E+00 0.  1.
         21   -1    0    0  504  502  0.00000000000E+00 -0.00000000000E+00 -0.12338543938E+03  0.12338543938E+03  0.00000000000E+00 0. -1.
         21    1    1    2  503  501 -0.62498926719E+02 -0.18382501265E+01 -0.74638559572E+02  0.97367394848E+02  0.00000000000E+00 0. -1.
         21    1    1    2  504  503 -0.24049285811E+02 -0.25725394212E+02 -0.10930298329E+02  0.36873235238E+02  0.00000000000E+00 0. -1.
         21    1    1    2  505  502  0.12511243905E+03  0.36709581962E+02  0.31035587386E+03  0.33663256565E+03  0.00000000000E+00 0. -1.
          2    1    1    2  501    0 -0.38564226521E+02 -0.91459376232E+01  0.11467659097E+04  0.11474506087E+04  0.00000000000E+00 0.  1.
<scales pt_clust_3="14000.00000" pt_clust_4="35.21596" pt_clust_5="90.95015" pt_clust_6="39.73493"></scales>
<clustering>
<clus scale="   35.216">  2  4  1 -1</clus>
<clus scale="   39.735">  1  6  2 -1</clus>
<clus scale="   90.950">  1  5  2 -1</clus>
<clus scale="   35.216">  2  3  1 -1</clus>
</clustering>
</event>
<event>
 6    0  0.1849053E+002  0.1952038E+03  0.7546771E-02  0.1153850E+00
          3   -1    0    0  505    0 -0.00000000000E+00  0.00000000000E+00  0.32661596374E+03  0.32661596374E+03  0.00000000000E+00 0.  1.
         21   -1    0    0  504  502  0.00000000000E+00 -0.00000000000E+00 -0.48048435563E+03  0.48048435563E+03  0.00000000000E+00 0. -1.
         21    1    1    2  503  502  0.12443497764E+01 -0.36277884390E+02 -0.26252642926E+03  0.26502407317E+03  0.00000000000E+00 0. -1.
         21    1    1    2  504  501  0.46819182812E+02  0.54142538956E+02  0.13648802612E+03  0.15411823928E+03  0.00000000000E+00 0.  1.
         21    1    1    2  505  503 -0.85256080632E+02 -0.13404616621E+03 -0.14771130920E+03  0.21692303895E+03  0.00000000000E+00 0. -1.
          3    1    1    2  501    0  0.37192548044E+02  0.11618151165E+03  0.11988132045E+03  0.17103496798E+03  0.00000000000E+00 0.  1.
<scales pt_clust_3="36.29922" pt_clust_4="48.47104" pt_clust_5="184.86048" pt_clust_6="48.47104"></scales>
<clustering>
<clus scale="   36.299">  2  3  1 -1</clus>
<clus scale="   48.471">  4  6 -1 -1</clus>
<clus scale="  184.860">  2  5  1 -1</clus>
<clus scale="   36.299">  2  3  1 -1</clus>
</clustering>
</event>
<event>
 6    0  0.1849053E+002  0.9354207E+02  0.7546771E-02  0.1294494E+00
         21   -1    0    0  501  502  0.00000000000E+00  0.00000000000E+00  0.20976035582E+02  0.20976035582E+02  0.00000000000E+00 0. -1.
          2   -1    0    0  504    0 -0.00000000000E+00 -0.00000000000E+00 -0.21888991655E+04  0.21888991655E+04  0.00000000000E+00 0.  1.
         21    1    1    2  503  505 -0.45126784170E+02 -0.10022837279E+02 -0.83823026752E+02  0.95724520007E+02  0.00000000000E+00 0. -1.
         21    1    1    2  504  503 -0.85350557728E+01  0.83610480599E+02 -0.76529504965E+03  0.76989614407E+03  0.00000000000E+00 0. -1.
         21    1    1    2  505  502 -0.29019250686E+02 -0.34847404212E+02 -0.35200867666E+02  0.57406964517E+02  0.00000000000E+00 0. -1.
          2    1    1    2  501    0  0.82681090629E+02 -0.38740239108E+02 -0.12836041859E+04  0.12868475725E+04  0.00000000000E+00 0.  1.
<scales pt_clust_3="41.68852" pt_clust_4="84.04499" pt_clust_5="41.68852" pt_clust_6="83.53758"></scales>
<clustering>
<clus scale="   41.689">  3  5 -1 -1</clus>
<clus scale="   84.045">  2  4  1 -1</clus>
<clus scale="   83.538">  2  6  1 -1</clus>
<clus scale="   93.542">  1  3  2 -1</clus>
</clustering>
</event>
<event>
 6    0  0.1849053E+002  0.1345146E+03  0.7546771E-02  0.1220907E+00
         21   -1    0    0  505  502  0.00000000000E+00  0.00000000000E+00  0.10521907245E+02  0.10521907245E+02  0.00000000000E+00 0.  1.
          2   -1    0    0  503    0 -0.00000000000E+00 -0.00000000000E+00 -0.36626567879E+04  0.36626567879E+04  0.00000000000E+00 0.  1.
         21    1    1    2  503  504 -0.35580108956E+02  0.26365734407E+02 -0.60761137552E+03  0.60922301316E+03  0.00000000000E+00 0.  1.
         21    1    1    2  504  502 -0.32619298197E+02  0.13749569409E+03 -0.12094657640E+04  0.12176931136E+04  0.00000000000E+00 0.  1.
         21    1    1    2  505  501  0.10696587584E+02 -0.85636503440E+02 -0.47739748347E+03  0.48513542948E+03  0.00000000000E+00 0.  1.
          2    1    1    2  501    0  0.57502819568E+02 -0.78224925056E+02 -0.13576602576E+04  0.13611271389E+04  0.00000000000E+00 0.  1.
<scales pt_clust_3="36.92780" pt_clust_4="36.92780" pt_clust_5="86.30196" pt_clust_6="117.22929"></scales>
<clustering>
<clus scale="   36.928">  3  4 -1 -1</clus>
<clus scale="   86.302">  1  5  2 -1</clus>
<clus scale="  117.229">  2  6  1 -1</clus>
<clus scale="   86.302">  1  3  2 -1</clus>
</clustering>
</event>
<event>
 6    0  0.1849053E+002  0.8184870E+02  0.7546771E-02  0.1323885E+00
         21   -1    0    0  505  502  0.00000000000E+00  0.00000000000E+00  0.14734652493E+03  0.14734652493E+03  0.00000000000E+00 0. -1.
         -1   -1    0    0    0  501 -0.00000000000E+00 -0.00000000000E+00 -0.49268264405E+03  0.49268264405E+03  0.00000000000E+00 0. -1.
         21    1    1    2  503  502  0.51347736263E+02 -0.23308929586E+02  0.52743362398E+02  0.77212424485E+02  0.00000000000E+00 0. -1.
         21    1    1    2  504  501 -0.25253165813E+02  0.42643058164E+02 -0.61749621001E+02  0.79178080849E+02  0.00000000000E+00 0. -1.
         21    1    1    2  505  504 -0.25555022720E+02  0.95283265880E+02  0.27311278020E+02  0.10236144709E+03  0.00000000000E+00 0. -1.
         -1    1    1    2    0  503 -0.53954773006E+00 -0.11461739446E+03 -0.36364113854E+03  0.38127721656E+03  0.00000000000E+00 0. -1.
<scales pt_clust_3="55.21962" pt_clust_4="49.55959" pt_clust_5="14000.00000" pt_clust_6="81.84870"></scales>
<clustering>
<clus scale="   49.560">  2  4  1 -1</clus>
<clus scale="   55.220">  1  3  2 -1</clus>
<clus scale="   81.849">  2  6  1 -1</clus>
<clus scale="   55.220">  1  3  2 -1</clus>
</clustering>
</event>
<event>
 6    0  0.1849053E+002  0.1143441E+03  0.7546771E-02  0.1252730E+00
          2   -1    0    0  503    0 -0.00000000000E+00  0.00000000000E+00  0.23387372036E+04  0.23387372036E+04  0.00000000000E+00 0.  1.
         21   -1    0    0  501  502  0.00000000000E+00 -0.00000000000E+00 -0.31244565587E+02  0.31244565587E+02  0.00000000000E+00 0.  1.
         21    1    1    2  503  505 -0.95998626584E+02  0.39895620885E+02  0.91210634424E+03  0.91801164484E+03  0.00000000000E+00 0.  1.
         21    1    1    2  504  502  0.50953376147E+02 -0.42135923373E+02  0.61564865037E+02  0.90343318437E+02  0.00000000000E+00 0.  1.
         21    1    1    2  505  504 -0.81883541857E+02 -0.69948008553E+02  0.32713320779E+03  0.34440350458E+03  0.00000000000E+00 0.  1.
          2    1    1    2  501    0  0.12692879229E+03  0.72188311040E+02  0.10066882209E+04  0.10172233013E+04  0.00000000000E+00 0.  1.
<scales pt_clust_3="92.94549" pt_clust_4="66.11870" pt_clust_5="14000.00000" pt_clust_6="114.34408"></scales>
<clustering>
<clus scale="   66.119">  2  4  1 -1</clus>
<clus scale="   92.945">  1  3  2 -1</clus>
<clus scale="  114.344">  1  6  2 -1</clus>
<clus scale="   66.119">  2  3  1 -1</clus>
</clustering>
</event>
<event>
 6    0  0.1849053E+002  0.1107005E+03  0.7546771E-02  0.1259278E+00
         21   -1    0    0  503  502  0.00000000000E+00  0.00000000000E+00  0.56807442501E+02  0.56807442501E+02  0.00000000000E+00 0. -1.
          2   -1    0    0  504    0 -0.00000000000E+00 -0.00000000000E+00 -0.13899291490E+04  0.13899291490E+04  0.00000000000E+00 0. -1.
         21    1    1    2  503  501 -0.20567562768E+02 -0.84466638734E+02 -0.15415338075E+03  0.17697712421E+03  0.00000000000E+00 0. -1.
         21    1    1    2  504  505  0.32072456322E+02 -0.27100967108E+02 -0.31122564824E+03  0.31404539321E+03  0.00000000000E+00 0. -1.
         21    1    1    2  505  502 -0.98757553487E+02  0.67269100813E+02 -0.45801614920E+02  0.12796864547E+03  0.00000000000E+00 0. -1.
          2    1    1    2  501    0  0.87252659932E+02  0.44298505029E+02 -0.82194106256E+03  0.82774542858E+03  0.00000000000E+00 0. -1.
<scales pt_clust_3="90.00076" pt_clust_4="41.98934" pt_clust_5="110.70046" pt_clust_6="14000.00000"></scales>
<clustering>
<clus scale="   41.989">  2  4  1 -1</clus>
<clus scale="   90.001">  1  3  2 -1</clus>
<clus scale="  110.700">  1  5  2 -1</clus>
<clus scale="   90.001">  1  3  2 -1</clus>
</clustering>
</event>
<event>
 6    0  0.1849053E+002  0.2138636E+03  0.7546771E-02  0.1138542E+00
          1   -1    0    0  504    0 -0.00000000000E+00  0.00000000000E+00  0.24906520383E+04  0.24906520383E+04  0.00000000000E+00 0. -1.
         21   -1    0    0  503  502  0.00000000000E+00 -0.00000000000E+00 -0.27624902989E+03  0.27624902989E+03  0.00000000000E+00 0. -1.
         21    1    1    2  503  501  0.21762286974E+03 -0.13076820355E+02 -0.18837771701E+03  0.28812650161E+03  0.00000000000E+00 0. -1.
         21    1    1    2  504  505 -0.10102541302E+03 -0.14990836173E+03  0.88898482789E+03  0.90717841421E+03  0.00000000000E+00 0. -1.
         21    1    1    2  505  502  0.15376004632E+01  0.47423581477E+02 -0.13468125837E+01  0.47467612110E+02  0.00000000000E+00 0. -1.
          1    1    1    2  501    0 -0.11813505718E+03  0.11556160061E+03  0.15151427101E+04  0.15241285403E+04  0.00000000000E+00 0. -1.
<scales pt_clust_3="14000.00000" pt_clust_4="213.86359" pt_clust_5="47.44850" pt_clust_6="165.83170"></scales>
<clustering>
<clus scale="   47.449">  2  5  1 -1</clus>
<clus scale="  165.832">  1  6  2 -1</clus>
<clus scale="  213.864">  1  4  2 -1</clus>
<clus scale="   47.449">  2  3  1 -1</clus>
</clustering>
</event>
<event>
 6    0  0.1849053E+002  0.5396927E+03  0.7546771E-02  0.1003908E+00
         21   -1    0    0  503  502  0.00000000000E+00  0.00000000000E+00  0.98186862210E+03  0.98186862210E+03  0.00000000000E+00 0. -1.
         -4   -1    0    0    0  501 -0.00000000000E+00 -0.00000000000E+00 -0.11546737494E+04  0.11546737494E+04  0.00000000000E+00 0. -1.
         21    1    1    2  503  505  0.37924676820E+03  0.15748757600E+03  0.62662437735E+03  0.74919193674E+03  0.00000000000E+00 0. -1.
         21    1    1    2  504  501 -0.71866733500E+02  0.70208710074E+02 -0.12206035250E+03  0.15809117624E+03  0.00000000000E+00 0. -1.
         21    1    1    2  505  504  0.12954109031E+03 -0.30258130792E+02  0.19368391289E+03  0.23496788434E+03  0.00000000000E+00 0. -1.
         -4    1    1    2    0  502 -0.43692112502E+03 -0.19743815528E+03 -0.87105306506E+03  0.99429137420E+03  0.00000000000E+00 0. -1.
<scales pt_clust_3="81.71510" pt_clust_4="100.46935" pt_clust_5="81.71510" pt_clust_6="520.24588"></scales>
<clustering>
<clus scale="   81.715">  3  5 -1 -1</clus>
<clus scale="  100.469">  2  4  1 -1</clus>
<clus scale="  520.246">  2  6  1 -1</clus>
<clus scale="  539.693">  1  3  2 -1</clus>
</clustering>
</event>
<event>
 6    0  0.1849053E+002  0.1363265E+03  0.7546771E-02  0.1218359E+00
          1   -1    0    0  504    0 -0.00000000000E+00  0.00000000000E+00  0.90330473370E+03  0.90330473370E+03  0.00000000000E+00 0. -1.
         21   -1    0    0  503  502  0.00000000000E+00 -0.00000000000E+00 -0.41346598007E+03  0.41346598007E+03  0.00000000000E+00 0.  1.
         21    1    1    2  503  505 -0.29824503508E+02  0.12754493753E+02 -0.12797465683E+03  0.13202155472E+03  0.00000000000E+00 0.  1.
         21    1    1    2  504  502 -0.29163323699E+02  0.11497107591E+03 -0.26302665683E+03  0.28853400137E+03  0.00000000000E+00 0.  1.
         21    1    1    2  505  501  0.11527290581E+02 -0.84429417756E+02  0.30106936631E+03  0.31289609832E+03  0.00000000000E+00 0. -1.
          1    1    1    2  501    0  0.47460536626E+02 -0.43296151903E+02  0.57977070098E+03  0.58331905936E+03  0.00000000000E+00 0. -1.
<scales pt_clust_3="32.43730" pt_clust_4="14000.00000" pt_clust_5="136.32645" pt_clust_6="64.05052"></scales>
<clustering>
<clus scale="   32.437">  2  3  1 -1</clus>
<clus scale="   64.051">  1  6  2 -1</clus>
<clus scale="  136.326">  1  5  2 -1</clus>
<clus scale="   32.437">  2  3  1 -1</clus>
</clustering>
</event>
<event>
 6    0  0.1849053E+002  0.7206201E+02  0.7546771E-02  0.1353218E+00
         21   -1    0    0  501  502  0.00000000000E+00  0.00000000000E+00  0.11042337827E+02  0.11042337827E+02  0.00000000000E+00 0. -1.
          2   -1    0    0  503    0 -0.00000000000E+00 -0.00000000000E+00 -0.23268427309E+04  0.23268427309E+04  0.00000000000E+00 0.  1.
         21    1    1    2  503  504  0.60096508853E+02 -0.60978651660E+02 -0.71701428919E+03  0.72210766319E+03  0.00000000000E+00 0. -1.
         21    1    1    2  504  505  0.45260599463E+02  0.27456878847E+02 -0.18364309568E+03  0.19112087445E+03  0.00000000000E+00 0. -1.
         21    1    1    2  505  502 -0.35716598756E+02  0.20075117413E+02 -0.10675285796E+03  0.11434534729E+03  0.00000000000E+00 0. -1.
          2    1    1    2  501    0 -0.69640509560E+02  0.13446655399E+02 -0.13083901503E+04  0.13103111838E+04  0.00000000000E+00 0.  1.
<scales pt_clust_3="72.06201" pt_clust_4="46.36725" pt_clust_5="40.97177" pt_clust_6="14000.00000"></scales>
<clustering>
<clus scale="   40.972">  1  5  2 -1</clus>
<clus scale="   46.367">  1  4  2 -1</clus>
<clus scale="   72.062">  1  3  2 -1</clus>
<clus scale="   40.972">  1  3  2 -1</clus>
</clustering>
</event>
<event>
 6    0  0.1849053E+002  0.8876306E+02  0.7546771E-02  0.1305875E+00
          4   -1    0    0  504    0 -0.00000000000E+00  0.00000000000E+00  0.42873686390E+03  0.42873686390E+03  0.00000000000E+00 0. -1.
         21   -1    0    0  501  502  0.00000000000E+00 -0.00000000000E+00 -0.11607398897E+03  0.11607398897E+03  0.00000000000E+00 0. -1.
         21    1    1    2  503  502  0.38533982148E+02 -0.64355544330E+00 -0.42259177485E+01  0.38770353682E+02  0.00000000000E+00 0. -1.
         21    1    1    2  504  505 -0.55259743006E+02  0.36669494700E+01  0.11378470884E+03  0.12654661466E+03  0.00000000000E+00 0. -1.
         21    1    1    2  505  503  0.86689418363E+01  0.81760523618E+02 -0.60755076403E+02  0.10223068563E+03  0.00000000000E+00 0. -1.
          4    1    1    2  501    0  0.80568190214E+01 -0.84783917645E+02  0.26385916024E+03  0.27726319890E+03  0.00000000000E+00 0. -1.
<scales pt_clust_3="38.53936" pt_clust_4="52.78441" pt_clust_5="88.76306" pt_clust_6="14000.00000"></scales>
<clustering>
<clus scale="   38.539">  2  3  1 -1</clus>
<clus scale="   52.784">  1  4  2 -1</clus>
<clus scale="   88.763">  2  5  1 -1</clus>
<clus scale="   38.539">  2  3  1 -1</clus>
</clustering>
</event>
<event>
 6    0  0.1849053E+002  0.1480444E+03  0.7546771E-02  0.1202897E+00
         21   -1    0    0  505  502  0.00000000000E+00  0.00000000000E+00  0.37826075947E+02  0.37826075947E+02  0.00000000000E+00 0.  1.
          2   -1    0    0  503    0 -0.00000000000E+00 -0.00000000000E+00 -0.11179766238E+04  0.11179766238E+04  0.00000000000E+00 0.  1.
         21    1    1    2  503  504 -0.68483408963E+02 -0.11531069002E+03 -0.15743631497E+03  0.20681568076E+03  0.00000000000E+00 0.  1.
         21    1    1    2  504  502  0.29023116161E+02 -0.86631771278E+01 -0.25261063154E+02  0.39439995199E+02  0.00000000000E+00 0.  1.
         21    1    1    2  505  501 -0.82830919838E+01  0.73312572913E+02 -0.57153672187E+03  0.57627907077E+03  0.00000000000E+00 0.  1.
          2    1    1    2  501    0  0.47743384786E+02  0.50661294236E+02 -0.32591644782E+03  0.33326795298E+03  0.00000000000E+00 0.  1.
<scales pt_clust_3="130.34637" pt_clust_4="30.28848" pt_clust_5="69.42642" pt_clust_6="69.42642"></scales>
<clustering>
<clus scale="   30.288">  1  4  2 -1</clus>
<clus scale="   69.426">  5  6 -1 -1</clus>
<clus scale="  130.346">  1  3  2 -1</clus>
<clus scale="   30.288">  1  3  2 -1</clus>
</clustering>
</event>
<event>
 6    0  0.1849053E+002  0.2139268E+03  0.7546771E-02  0.1138494E+00
         21   -1    0    0  505  502  0.00000000000E+00  0.00000000000E+00  0.61041229490E+03  0.61041229490E+03  0.00000000000E+00 0. -1.
          2   -1    0    0  503    0 -0.00000000000E+00 -0.00000000000E+00 -0.10792119790E+04  0.10792119790E+04  0.00000000000E+00 0.  1.
         21    1    1    2  503  502 -0.30209281722E+02  0.28605003983E+02 -0.86664165854E+02  0.96132848694E+02  0.00000000000E+00 0. -1.
         21    1    1    2  504  501  0.28594350065E+01 -0.68709516386E+02  0.13180409492E+03  0.14866571040E+03  0.00000000000E+00 0. -1.
         21    1    1    2  505  504 -0.63112043395E+02 -0.12548572794E+03  0.44544259771E+03  0.46706413456E+03  0.00000000000E+00 0. -1.
          2    1    1    2  501    0  0.90461890111E+02  0.16559024034E+03 -0.95938221088E+03  0.97776158025E+03  0.00000000000E+00 0.  1.
<scales pt_clust_3="41.60345" pt_clust_4="47.22200" pt_clust_5="47.22200" pt_clust_6="202.97125"></scales>
<clustering>
<clus scale="   41.603">  2  3  1 -1</clus>
<clus scale="   47.222">  4  5 -1 -1</clus>
<clus scale="  202.971">  2  6  1 -1</clus>
<clus scale="  213.927">  1  3  2 -1</clus>
</clustering>
</event>
<event>
 6    0  0.1849053E+002  0.1324102E+03  0.7546771E-02  0.1223923E+00
          1   -1    0    0  504    0 -0.00000000000E+00  0.00000000000E+00  0.14120792899E+04  0.14120792899E+04  0.00000000000E+00 0. -1.
         21   -1    0    0  505  502  0.00000000000E+00 -0.00000000000E+00 -0.11235781173E+03  0.11235781173E+03  0.00000000000E+00 0.  1.
         21    1    1    2  503  501  0.32717937831E+01  0.71196872610E+02 -0.26985975002E+02  0.76209855995E+02  0.00000000000E+00 0.  1.
         21    1    1    2  504  502  0.25825523804E+02 -0.16840880673E+02  0.54246240665E+03  0.54333786502E+03  0.00000000000E+00 0. -1.
         21    1    1    2  505  503  0.42723198517E+02  0.42693822058E+02 -0.39613828733E+02  0.72230807557E+02  0.00000000000E+00 0.  1.
          1    1    1    2  501    0 -0.71820516104E+02 -0.97049813995E+02  0.82385887523E+03  0.83265857302E+03  0.00000000000E+00 0. -1.
<scales pt_clust_3="46.33240" pt_clust_4="30.83136" pt_clust_5="46.33240" pt_clust_6="122.55605"></scales>
<clustering>
<clus scale="   30.831">  1  4  2 -1</clus>
<clus scale="   46.332">  3  5 -1 -1</clus>
<clus scale="  122.556">  1  6  2 -1</clus>
<clus scale="  132.410">  2  3  1 -1</clus>
</clustering>
</event>
<event>
 6    0  0.1849053E+002  0.1966438E+03  0.7546771E-02  0.1152602E+00
         21   -1    0    0  505  502  0.00000000000E+00  0.00000000000E+00  0.61425052984E+03  0.61425052984E+03  0.00000000000E+00 0.  1.
          2   -1    0    0  504    0 -0.00000000000E+00 -0.00000000000E+00 -0.71400680975E+03  0.71400680975E+03  0.00000000000E+00 0. -1.
         21    1    1    2  503  501  0.56138158572E+02  0.63753348421E+02 -0.34145882227E+03  0.35186660766E+03  0.00000000000E+00 0. -1.
         21    1    1    2  504  502 -0.55153764911E+02  0.44660679386E+02  0.24055195488E+03  0.25080222699E+03  0.00000000000E+00 0.  1.
         21    1    1    2  505  503 -0.10290199681E+03 -0.15106794800E+03  0.33078728433E+03  0.37792932320E+03  0.00000000000E+00 0.  1.
          2    1    1    2  501    0  0.10191760315E+03  0.42653920193E+02 -0.32963669685E+03  0.34765918175E+03  0.00000000000E+00 0. -1.
<scales pt_clust_3="45.24926" pt_clust_4="70.96840" pt_clust_5="189.75186" pt_clust_6="45.24926"></scales>
<clustering>
<clus scale="   45.249">  3  6 -1 -1</clus>
<clus scale="   70.968">  1  4  2 -1</clus>
<clus scale="  189.752">  1  5  2 -1</clus>
<clus scale="   70.968">  1  3  2 -1</clus>
</clustering>
</event>
<event>
 6    0  0.1849053E+002  0.1505516E+03  0.7546771E-02  0.1199797E+00
         -2   -1    0    0    0  501 -0.00000000000E+00  0.00000000000E+00  0.15195030606E+04  0.15195030606E+04  0.00000000000E+00 0. -1.
         21   -1    0    0  505  502  0.00000000000E+00 -0.00000000000E+00 -0.74833989744E+02  0.74833989744E+02  0.00000000000E+00 0.  1.
         21    1    1    2  503  502  0.33090587373E+02 -0.26547784310E+02  0.60900125087E+02  0.74219923606E+02  0.00000000000E+00 0. -1.
         21    1    1    2  504  503 -0.46643365814E+02  0.15450716385E+02  0.30451728635E+03  0.30845600318E+03  0.00000000000E+00 0.  1.
         21    1    1    2  505  501  0.10838730128E+03  0.33680125772E+02 -0.13742088897E+02  0.11432848708E+03  0.00000000000E+00 0.  1.
         -2    1    1    2    0  504 -0.94834522839E+02 -0.22583057847E+02  0.10929937483E+04  0.10973326365E+04  0.00000000000E+00 0. -1.
<scales pt_clust_3="42.42372" pt_clust_4="39.76821" pt_clust_5="139.74282" pt_clust_6="39.76821"></scales>
<clustering>
<clus scale="   39.768">  4  6 -1 -1</clus>
<clus scale="   42.424">  2  3  1 -1</clus>
<clus scale="  139.743">  2  5  1 -1</clus>
<clus scale="   42.424">  2  3  1 -1</clus>
</clustering>
</event>
<event>
 6    0  0.1849053E+002  0.1073098E+03  0.7546771E-02  0.1265634E+00
         -2   -1    0    0    0  501 -0.00000000000E+00  0.00000000000E+00  0.36498095443E+03  0.36498095443E+03  0.00000000000E+00 0. -1.
         21   -1    0    0  503  502  0.00000000000E+00 -0.00000000000E+00 -0.35823977656E+03  0.35823977656E+03  0.00000000000E+00 0.  1.
         21    1    1    2  503  505 -0.10526377494E+03 -0.28763972717E+02 -0.31657291691E+03  0.33485256481E+03  0.00000000000E+00 0.  1.
         21    1    1    2  504  501  0.15302922541E+02 -0.40701218866E+02  0.35562169736E+01  0.43628148421E+02  0.00000000000E+00 0. -1.
         21    1    1    2  505  504  0.33087142069E+02  0.47196082189E+02  0.88987048704E+02  0.10602322378E+03  0.00000000000E+00 0. -1.
         -2    1    1    2    0  502  0.56873710329E+02  0.22269109395E+02  0.23077082911E+03  0.23871679398E+03  0.00000000000E+00 0. -1.
<scales pt_clust_3="107.30977" pt_clust_4="43.48297" pt_clust_5="51.65663" pt_clust_6="14000.00000"></scales>
<clustering>
<clus scale="   43.483">  1  4  2 -1</clus>
<clus scale="   51.657">  1  5  2 -1</clus>
<clus scale="  107.310">  2  3  1 -1</clus>
<clus scale="  107.310">  2  3  1 -1</clus>
</clustering>
</event>
<event>
 6    0  0.1849053E+002  0.1453483E+03  0.7546771E-02  0.1206308E+00
          1   -1    0    0  505    0 -0.00000000000E+00  0.00000000000E+00  0.86109848339E+03  0.86109848339E+03  0.00000000000E+00 0. -1.
         21   -1    0    0  504  502  0.00000000000E+00 -0.00000000000E+00 -0.14987326963E+03  0.14987326963E+03  0.00000000000E+00 0. -1.
         21    1    1    2  503  502 -0.40678451460E+02 -0.16376942350E+03 -0.66841216056E+02  0.18150181445E+03  0.00000000000E+00 0. -1.
         21    1    1    2  504  501  0.31964488767E+02  0.95583781965E+02  0.86646295166E+02  0.13291188202E+03  0.00000000000E+00 0. -1.
         21    1    1    2  505  503 -0.13762633119E+02  0.31502696482E+02  0.17471698780E+03  0.17806699801E+03  0.00000000000E+00 0. -1.
          1    1    1    2  501    0  0.22476595812E+02  0.36682945049E+02  0.51670314685E+03  0.51849105854E+03  0.00000000000E+00 0. -1.
<scales pt_clust_3="145.34835" pt_clust_4="14000.00000" pt_clust_5="34.37775" pt_clust_6="61.68997"></scales>
<clustering>
<clus scale="   34.378">  1  5  2 -1</clus>
<clus scale="   61.690">  1  6  2 -1</clus>
<clus scale="  145.348">  2  3  1 -1</clus>
<clus scale="  145.348">  2  3  1 -1</clus>
</clustering>
</event>
<event>
 6    0  0.1849053E+002  0.1200676E+03  0.7546771E-02  0.1242986E+00
         21   -1    0    0  505  502  0.00000000000E+00  0.00000000000E+00  0.17899647623E+03  0.17899647623E+03  0.00000000000E+00 0.  1.
          1   -1    0    0  504    0 -0.00000000000E+00 -0.00000000000E+00 -0.60320255896E+03  0.60320255896E+03  0.00000000000E+00 0. -1.
         21    1    1    2  503  502 -0.33062934587E+02  0.25770765815E+02 -0.16769687379E+02  0.45149888472E+02  0.00000000000E+00 0. -1.
         21    1    1    2  504  503  0.77200981781E+02  0.10217242335E+02 -0.37320392894E+03  0.38124212281E+03  0.00000000000E+00 0.  1.
         21    1    1    2  505  501 -0.90810226115E+02  0.13896052809E+02  0.14068477925E+03  0.16802322626E+03  0.00000000000E+00 0.  1.
          1    1    1    2  501    0  0.46672178921E+02 -0.49884060959E+02 -0.17491724568E+03  0.18778379764E+03  0.00000000000E+00 0. -1.
<scales pt_clust_3="41.92004" pt_clust_4="120.06762" pt_clust_5="14000.00000" pt_clust_6="66.69748"></scales>
<clustering>
<clus scale="   41.920">  1  3  2 -1</clus>
<clus scale="   66.697">  2  6  1 -1</clus>
<clus scale="  120.068">  2  4  1 -1</clus>
<clus scale="   41.920">  1  3  2 -1</clus>
</clustering>
</event>
<event>
 6    0  0.1849053E+002  0.1041903E+03  0.7546771E-02  0.1271723E+00
         21   -1    0    0  504  502  0.00000000000E+00  0.00000000000E+00  0.29801257407E+03  0.29801257407E+03  0.00000000000E+00 0. -1.
         -2   -1    0    0    0  501 -0.00000000000E+00 -0.00000000000E+00 -0.14550923466E+03  0.14550923466E+03  0.00000000000E+00 0. -1.
         21    1    1    2  503  505 -0.80424844277E+02  0.11156503713E+02  0.13432494893E+03  0.15695800412E+03  0.00000000000E+00 0. -1.
         21    1    1    2  504  501 -0.31671180753E+02 -0.79853380451E+02  0.33346133541E+02  0.92149827357E+02  0.00000000000E+00 0. -1.
         21    1    1    2  505  502  0.46190393404E+02 -0.26499521671E+02  0.39568944418E+02  0.66343639137E+02  0.00000000000E+00 0. -1.
         -2    1    1    2    0  503  0.65905631625E+02  0.95196398410E+02 -0.54736687478E+02  0.12807033812E+03  0.00000000000E+00 0. -1.
<scales pt_clust_3="53.17175" pt_clust_4="104.19030" pt_clust_5="53.25201" pt_clust_6="14000.00000"></scales>
<clustering>
<clus scale="   53.252">  1  5  2 -1</clus>
<clus scale="   53.172">  1  3  2 -1</clus>
<clus scale="  104.190">  1  4  2 -1</clus>
<clus scale="   53.252">  1  3  2 -1</clus>
</clustering>
</event>
<event>
 6    0  0.1849053E+002  0.1353237E+03  0.7546771E-02  0.1219764E+00
         21   -1    0    0  504  502  0.00000000000E+00  0.00000000000E+00  0.47688571621E+03  0.47688571621E+03  0.00000000000E+00 0. -1.
         -2   -1    0    0    0  501 -0.00000000000E+00 -0.00000000000E+00 -0.90363313812E+03  0.90363313812E+03  0.00000000000E+00 0.  1.
         21    1    1    2  503  501 -0.28703019788E+02 -0.25519803577E+02 -0.49103771826E+02  0.62340228802E+02  0.00000000000E+00 0.  1.
         21    1    1    2  504  503 -0.32567323093E+02  0.30004862964E+02  0.16286086627E+03  0.16877376603E+03  0.00000000000E+00 0. -1.
         21    1    1    2  505  502  0.24671659745E+02  0.10672622189E+03  0.29035819773E+03  0.31033378840E+03  0.00000000000E+00 0. -1.
         -2    1    1    2    0  505  0.36598683137E+02 -0.11121128128E+03 -0.83086271409E+03  0.83907107110E+03  0.00000000000E+00 0.  1.
<scales pt_clust_3="38.40734" pt_clust_4="44.29581" pt_clust_5="135.32366" pt_clust_6="14000.00000"></scales>
<clustering>
<clus scale="   38.407">  2  3  1 -1</clus>
<clus scale="   44.296">  1  4  2 -1</clus>
<clus scale="  135.324">  1  5  2 -1</clus>
<clus scale="   44.296">  1  3  2 -1</clus>
</clustering>
</event>
<event>
 6    0  0.1849053E+002  0.2299116E+03  0.7546771E-02  0.1126702E+00
         21   -1    0    0  504  502  0.00000000000E+00  0.00000000000E+00  0.41865722143E+03  0.41865722143E+03  0.00000000000E+00 0. -1.
          2   -1    0    0  502    0 -0.00000000000E+00 -0.00000000000E+00 -0.30201065900E+04  0.30201065900E+04  0.00000000000E+00 0.  1.
         21    1    1    2  503  505 -0.15732739376E+02  0.12367146307E+03  0.19972692449E+03  0.23544212502E+03  0.00000000000E+00 0. -1.
         21    1    1    2  504  503  0.14286075627E+02  0.93296191726E+02  0.18532960459E+03  0.20797916647E+03  0.00000000000E+00 0. -1.
         21    1    1    2  505  501 -0.20114156709E+02 -0.62759450408E+02 -0.56394830214E+03  0.56778606482E+03  0.00000000000E+00 0. -1.
          2    1    1    2  501    0  0.21560820458E+02 -0.15420820439E+03 -0.24225575955E+04  0.24275564551E+04  0.00000000000E+00 0.  1.
<scales pt_clust_3="219.89523" pt_clust_4="31.09148" pt_clust_5="49.47086" pt_clust_6="49.47086"></scales>
<clustering>
<clus scale="   31.091">  3  4 -1 -1</clus>
<clus scale="   49.471">  5  6 -1 -1</clus>
<clus scale="  219.895">  1  3  2 -1</clus>
<clus scale="  219.895">  1  3  2 -1</clus>
</clustering>
</event>
<event>
 6    0  0.1849053E+002  0.1195763E+03  0.7546771E-02  0.1243798E+00
          3   -1    0    0  503    0 -0.00000000000E+00  0.00000000000E+00  0.95540416382E+02  0.95540416382E+02  0.00000000000E+00 0. -1.
         21   -1    0    0  501  502  0.00000000000E+00 -0.00000000000E+00 -0.30083060964E+03  0.30083060964E+03  0.00000000000E+00 0. -1.
         21    1    1    2  503  505  0.22358586072E+02  0.26886135570E+02  0.33605529574E+02  0.48498477037E+02  0.00000000000E+00 0. -1.
         21    1    1    2  504  502  0.15559086187E+02  0.60486201808E+02 -0.11995437404E+03  0.13523948248E+03  0.00000000000E+00 0. -1.
         21    1    1    2  505  504  0.30797635726E+02  0.27969669066E+02 -0.34310468269E+02  0.53925921288E+02  0.00000000000E+00 0. -1.
          3    1    1    2  501    0 -0.68715307985E+02 -0.11534200644E+03 -0.84630880523E+02  0.15870714521E+03  0.00000000000E+00 0. -1.
<scales pt_clust_3="34.96814" pt_clust_4="37.93143" pt_clust_5="37.93143" pt_clust_6="110.84207"></scales>
<clustering>
<clus scale="   34.968">  1  3  2 -1</clus>
<clus scale="   37.931">  4  5 -1 -1</clus>
<clus scale="  110.842">  1  6  2 -1</clus>
<clus scale="  119.576">  2  3  1 -1</clus>
</clustering>
</event>
<event>
 6    0  0.1849053E+002  0.8950510E+02  0.7546771E-02  0.1304055E+00
         21   -1    0    0  503  502  0.00000000000E+00  0.00000000000E+00  0.45881052478E+02  0.45881052478E+02  0.00000000000E+00 0. -1.
         -3   -1    0    0    0  501 -0.00000000000E+00 -0.00000000000E+00 -0.69235621256E+03  0.69235621256E+03  0.00000000000E+00 0. -1.
         21    1    1    2  503  504 -0.44143698690E+01 -0.46312919661E+02 -0.28803518825E+02  0.54717601240E+02  0.00000000000E+00 0.  1.
         21    1    1    2  504  501  0.57694038825E+02  0.23543044820E+02 -0.43195145347E+02  0.75820166558E+02  0.00000000000E+00 0. -1.
         21    1    1    2  505  502 -0.85252127092E+02  0.89452445126E+02 -0.33495595545E+03  0.35702262842E+03  0.00000000000E+00 0. -1.
         -3    1    1    2    0  505  0.31972458136E+02 -0.66682570285E+02 -0.23952054046E+03  0.25067686882E+03  0.00000000000E+00 0. -1.
<scales pt_clust_3="46.52282" pt_clust_4="55.51011" pt_clust_5="14000.00000" pt_clust_6="89.50510"></scales>
<clustering>
<clus scale="   46.523">  1  3  2 -1</clus>
<clus scale="   55.510">  1  4  2 -1</clus>
<clus scale="   89.505">  2  6  1 -1</clus>
<clus scale="   46.523">  1  3  2 -1</clus>
</clustering>
</event>
<event>
 6    0  0.1849053E+002  0.1214902E+03  0.7546771E-02  0.1240659E+00
         21   -1    0    0  501  502  0.00000000000E+00  0.00000000000E+00  0.31515675215E+03  0.31515675215E+03  0.00000000000E+00 0. -1.
          1   -1    0    0  505    0 -0.00000000000E+00 -0.00000000000E+00 -0.28279828355E+03  0.28279828355E+03  0.00000000000E+00 0. -1.
         21    1    1    2  503  504  0.59356451459E+02  0.32730277994E+02  0.11046862602E+03  0.12960623736E+03  0.00000000000E+00 0. -1.
         21    1    1    2  504  502  0.43249440235E+02  0.12770567303E+02  0.16390663454E+03  0.16999701855E+03  0.00000000000E+00 0. -1.
         21    1    1    2  505  503  0.63891299480E+01  0.36596574439E+02 -0.64715944704E+02  0.74620933665E+02  0.00000000000E+00 0. -1.
          1    1    1    2  501    0 -0.10899502164E+03 -0.82097419736E+02 -0.17730084726E+03  0.22373084613E+03  0.00000000000E+00 0. -1.
<scales pt_clust_3="35.38517" pt_clust_4="35.38517" pt_clust_5="37.15010" pt_clust_6="113.48054"></scales>
<clustering>
<clus scale="   35.385">  3  4 -1 -1</clus>
<clus scale="   37.150">  2  5  1 -1</clus>
<clus scale="  113.481">  2  6  1 -1</clus>
<clus scale="  121.490">  1  3  2 -1</clus>
</clustering>
</event>
<event>
 6    0  0.1849053E+002  0.1430848E+03  0.7546771E-02  0.1209237E+00
          2   -1    0    0  503    0 -0.00000000000E+00  0.00000000000E+00  0.34237642511E+03  0.34237642511E+03  0.00000000000E+00 0.  1.
         21   -1    0    0  505  502  0.00000000000E+00 -0.00000000000E+00 -0.35428965303E+03  0.35428965303E+03  0.00000000000E+00 0. -1.
         21    1    1    2  503  502 -0.28184254249E+02  0.17886628548E+02  0.91066538004E+01  0.34600792069E+02  0.00000000000E+00 0.  1.
         21    1    1    2  504  501  0.53063358168E+02  0.54548637680E+02 -0.14639824334E+03  0.16499611967E+03  0.00000000000E+00 0. -1.
         21    1    1    2  505  504  0.62339838275E+02  0.23578938843E+02 -0.16558814096E+03  0.17849833114E+03  0.00000000000E+00 0. -1.
          2    1    1    2  501    0 -0.87218942194E+02 -0.96014205070E+02  0.29096650258E+03  0.31857083526E+03  0.00000000000E+00 0.  1.
<scales pt_clust_3="33.38089" pt_clust_4="32.83646" pt_clust_5="32.83646" pt_clust_6="138.71606"></scales>
<clustering>
<clus scale="   32.836">  4  5 -1 -1</clus>
<clus scale="   33.381">  1  3  2 -1</clus>
<clus scale="  138.716">  1  6  2 -1</clus>
<clus scale="  143.085">  2  3  1 -1</clus>
</clustering>
</event>
<event>
 6    0  0.1849053E+002  0.8130441E+02  0.7546771E-02  0.1325390E+00
         21   -1    0    0  503  502  0.00000000000E+00  0.00000000000E+00  0.50179702122E+03  0.50179702122E+03  0.00000000000E+00 0.  1.
          2   -1    0    0  504    0 -0.00000000000E+00 -0.00000000000E+00 -0.35029036109E+04  0.35029036109E+04  0.00000000000E+00 0. -1.
         21    1    1    2  503  501  0.30328919405E+02 -0.28560440461E+02  0.42978923384E+03  0.43180357529E+03  0.00000000000E+00 0.  1.
         21    1    1    2  504  505  0.61273932463E+02  0.75493701035E+01 -0.28384277340E+03  0.29047927258E+03  0.00000000000E+00 0.  1.
         21    1    1    2  505  502 -0.13068525554E+01 -0.49658558252E+02  0.57401822496E+02  0.75912116932E+02  0.00000000000E+00 0. -1.
          2    1    1    2  501    0 -0.90295999312E+02  0.70669628609E+02 -0.32044548726E+04  0.32065056673E+04  0.00000000000E+00 0. -1.
<scales pt_clust_3="41.65984" pt_clust_4="62.99864" pt_clust_5="14000.00000" pt_clust_6="81.30441"></scales>
<clustering>
<clus scale="   41.660">  1  3  2 -1</clus>
<clus scale="   62.999">  2  4  1 -1</clus>
<clus scale="   81.304">  2  6  1 -1</clus>
<clus scale="   41.660">  1  3  2 -1</clus>
</clustering>
</event>
<event>
 6    0  0.1849053E+002  0.9678222E+02  0.7546771E-02  0.1287212E+00
         21   -1    0    0  501  502  0.00000000000E+00  0.00000000000E+00  0.29592559471E+02  0.29592559471E+02  0.00000000000E+00 0. -1.
          1   -1    0    0  505    0 -0.00000000000E+00 -0.00000000000E+00 -0.16507378576E+04  0.16507378576E+04  0.00000000000E+00 0.  1.
         21    1    1    2  503  502 -0.31008184584E+02  0.35996864683E+02 -0.20215193493E+02  0.51632701132E+02  0.00000000000E+00 0. -1.
         21    1    1    2  504  503 -0.41710761741E+02  0.13676944503E+02 -0.44054835190E+02  0.62190634019E+02  0.00000000000E+00 0. -1.
         21    1    1    2  505  504 -0.42684538432E+02  0.72218359114E+01 -0.48771081780E+03  0.48962839637E+03  0.00000000000E+00 0. -1.
          1    1    1    2  501    0  0.11540348476E+03 -0.56895645097E+02 -0.10691644516E+04  0.10768786855E+04  0.00000000000E+00 0.  1.
<scales pt_clust_3="31.43565" pt_clust_4="31.43565" pt_clust_5="43.29116" pt_clust_6="91.08906"></scales>
<clustering>
<clus scale="   31.436">  3  4 -1 -1</clus>
<clus scale="   43.291">  2  5  1 -1</clus>
<clus scale="   91.089">  2  6  1 -1</clus>
<clus scale="   96.782">  1  3  2 -1</clus>
</clustering>
</event>
<event>
 6    0  0.1849053E+002  0.1168195E+03  0.7546771E-02  0.1248438E+00
         21   -1    0    0  504  502  0.00000000000E+00  0.00000000000E+00  0.11642915936E+03  0.11642915936E+03  0.00000000000E+00 0.  1.
         -1   -1    0    0    0  501 -0.00000000000E+00 -0.00000000000E+00 -0.75800993008E+03  0.75800993008E+03  0.00000000000E+00 0. -1.
         21    1    1    2  503  501 -0.28575917176E+02  0.20996264041E+02 -0.68282773433E+02  0.76941297713E+02  0.00000000000E+00 0. -1.
         21    1    1    2  504  503 -0.65812750747E+02  0.93789092926E+02  0.61508518862E+02  0.13004233928E+03  0.00000000000E+00 0.  1.
         21    1    1    2  505  502  0.54806303187E+02 -0.14524774178E+03 -0.50701495660E+03  0.53024975585E+03  0.00000000000E+00 0. -1.
         -1    1    1    2    0  505  0.39582364737E+02  0.30462384817E+02 -0.12779155955E+03  0.13720569660E+03  0.00000000000E+00 0. -1.
<scales pt_clust_3="35.46021" pt_clust_4="116.81949" pt_clust_5="14000.00000" pt_clust_6="48.49412"></scales>
<clustering>
<clus scale="   35.460">  2  3  1 -1</clus>
<clus scale="   48.494">  2  6  1 -1</clus>
<clus scale="  116.819">  1  4  2 -1</clus>
<clus scale="  116.819">  1  3  2 -1</clus>
</clustering>
</event>
<event>
 6    0  0.1849053E+002  0.1491440E+03  0.7546771E-02  0.1201529E+00
         21   -1    0    0  503  502  0.00000000000E+00  0.00000000000E+00  0.51074720119E+02  0.51074720119E+02  0.00000000000E+00 0. -1.
          2   -1    0    0  505    0 -0.00000000000E+00 -0.00000000000E+00 -0.80544927543E+03  0.80544927543E+03  0.00000000000E+00 0. -1.
         21    1    1    2  503  501  0.63531526898E+02 -0.50356419065E+01 -0.23722682734E+03  0.24563831177E+03  0.00000000000E+00 0.  1.
         21    1    1    2  504  502 -0.57628347353E+02 -0.73656688744E+01 -0.45827463104E+02  0.73996188221E+02  0.00000000000E+00 0. -1.
         21    1    1    2  505  504 -0.75624742334E+02  0.47786112078E+02 -0.39056642133E+02  0.97611656350E+02  0.00000000000E+00 0. -1.
          2    1    1    2  501    0  0.69721562789E+02 -0.35384801297E+02 -0.43226362273E+03  0.43927783921E+03  0.00000000000E+00 0. -1.
<scales pt_clust_3="34.99542" pt_clust_4="43.05037" pt_clust_5="43.05037" pt_clust_6="144.54297"></scales>
<clustering>
<clus scale="   34.995">  3  6 -1 -1</clus>
<clus scale="   43.050">  4  5 -1 -1</clus>
<clus scale="  144.543">  2  3  1 -1</clus>
<clus scale="  149.144">  1  3  2 -1</clus>
</clustering>
</event>
<event>
 6    0  0.1849053E+002  0.1312528E+03  0.7546771E-02  0.1225609E+00
         21   -1    0    0  503  502  0.00000000000E+00  0.00000000000E+00  0.11406163846E+03  0.11406163846E+03  0.00000000000E+00 0. -1.
          1   -1    0    0  505    0 -0.00000000000E+00 -0.00000000000E+00 -0.18119273453E+04  0.18119273453E+04  0.00000000000E+00 0. -1.
         21    1    1    2  503  501 -0.10410954118E+03 -0.14582917704E+03 -0.13435832701E+03  0.22395782075E+03  0.00000000000E+00 0. -1.
         21    1    1    2  504  502  0.31126803555E+02  0.11532124931E+03  0.14788401742E+02  0.12036014817E+03  0.00000000000E+00 0. -1.
         21    1    1    2  505  504  0.26358342245E+02  0.34417326125E+02 -0.38046468330E+03  0.38292648091E+03  0.00000000000E+00 0. -1.
          1    1    1    2  501    0  0.46624395380E+02 -0.39093983986E+01 -0.11978310983E+04  0.11987445340E+04  0.00000000000E+00 0. -1.
<scales pt_clust_3="14000.00000" pt_clust_4="131.25279" pt_clust_5="43.35106" pt_clust_6="73.08990"></scales>
<clustering>
<clus scale="   43.351">  2  5  1 -1</clus>
<clus scale="   73.090">  2  6  1 -1</clus>
<clus scale="  131.253">  1  4  2 -1</clus>
<clus scale="  131.253">  1  3  2 -1</clus>
</clustering>
</event>
<event>
 6    0  0.1849053E+002  0.1779469E+03  0.7546771E-02  0.1169805E+00
         21   -1    0    0  505  502  0.00000000000E+00  0.00000000000E+00  0.46418733303E+03  0.46418733303E+03  0.00000000000E+00 0. -1.
          2   -1    0    0  504    0 -0.00000000000E+00 -0.00000000000E+00 -0.30854863221E+03  0.30854863221E+03  0.00000000000E+00 0.  1.
         21    1    1    2  503  501 -0.73462183056E+02  0.17891805253E+01 -0.93769961902E+02  0.11913311572E+03  0.00000000000E+00 0.  1.
         21    1    1    2  504  502  0.10744856493E+03  0.57874615741E+02  0.38108391379E+03  0.40014949032E+03  0.00000000000E+00 0. -1.
         21    1    1    2  505  503  0.38216827758E+02  0.18541965234E+02  0.35439658075E+02  0.55319976167E+02  0.00000000000E+00 0. -1.
          2    1    1    2  501    0 -0.72203209630E+02 -0.78205761500E+02 -0.16711490915E+03  0.19813338303E+03  0.00000000000E+00 0.  1.
<scales pt_clust_3="61.78400" pt_clust_4="161.63505" pt_clust_5="42.47741" pt_clust_6="61.78400"></scales>
<clustering>
<clus scale="   42.477">  1  5  2 -1</clus>
<clus scale="   61.784">  3  6 -1 -1</clus>
<clus scale="  161.635">  1  4  2 -1</clus>
<clus scale="   42.477">  1  3  2 -1</clus>
</clustering>
</event>
<event>
 6    0  0.1849053E+002  0.1371269E+03  0.7546771E-02  0.1217248E+00
         21   -1    0    0  505  502  0.00000000000E+00  0.00000000000E+00  0.10885168140E+04  0.10885168140E+04  0.00000000000E+00 0. -1.
          2   -1    0    0  504    0 -0.00000000000E+00 -0.00000000000E+00 -0.31240082384E+03  0.31240082384E+03  0.00000000000E+00 0.  1.
         21    1    1    2  503  501 -0.14962895672E+03 -0.48314230455E+01  0.74731298900E+03  0.76216065949E+03  0.00000000000E+00 0. -1.
         21    1    1    2  504  502 -0.13208323694E+01  0.36383795003E+02  0.37650485207E+01  0.36601922454E+02  0.00000000000E+00 0.  1.
         21    1    1    2  505  503  0.17383683924E+02  0.38541378798E+02  0.29225812568E+03  0.29530059664E+03  0.00000000000E+00 0. -1.
          2    1    1    2  501    0  0.13356610517E+03 -0.70093750756E+02 -0.26722017300E+03  0.30685445931E+03  0.00000000000E+00 0.  1.
<scales pt_clust_3="14000.00000" pt_clust_4="36.40776" pt_clust_5="42.44813" pt_clust_6="137.12694"></scales>
<clustering>
<clus scale="   36.408">  2  4  1 -1</clus>
<clus scale="   42.448">  1  5  2 -1</clus>
<clus scale="  137.127">  2  6  1 -1</clus>
<clus scale="   42.448">  1  3  2 -1</clus>
</clustering>
</event>
<event>
 6    0  0.1849053E+002  0.2295864E+03  0.7546771E-02  0.1126931E+00
         21   -1    0    0  504  502  0.00000000000E+00  0.00000000000E+00  0.14167801532E+03  0.14167801532E+03  0.00000000000E+00 0.  1.
          2   -1    0    0  505    0 -0.00000000000E+00 -0.00000000000E+00 -0.62818950388E+03  0.62818950388E+03  0.00000000000E+00 0.  1.
         21    1    1    2  503  502  0.98519485804E+02 -0.11374282128E+03 -0.20409612889E+02  0.15185542722E+03  0.00000000000E+00 0.  1.
         21    1    1    2  504  501 -0.88479706984E+02  0.74207432517E+02 -0.22098413745E+03  0.24933790445E+03  0.00000000000E+00 0.  1.
         21    1    1    2  505  503  0.64044887899E+02 -0.35774843211E+02  0.25898186356E+02  0.77796549598E+02  0.00000000000E+00 0.  1.
          2    1    1    2  501    0 -0.74084666719E+02  0.75310231979E+02 -0.27101592458E+03  0.29087763795E+03  0.00000000000E+00 0.  1.
<scales pt_clust_3="43.75554" pt_clust_4="30.03438" pt_clust_5="43.75554" pt_clust_6="223.08916"></scales>
<clustering>
<clus scale="   30.034">  4  6 -1 -1</clus>
<clus scale="   43.756">  3  5 -1 -1</clus>
<clus scale="  223.089">  2  4  1 -1</clus>
<clus scale="  229.586">  1  3  2 -1</clus>
</clustering>
</event>
<event>
 6    0  0.1849053E+002  0.1113350E+03  0.7546771E-02  0.1258117E+00
          2   -1    0    0  502    0 -0.00000000000E+00  0.00000000000E+00  0.37016241836E+04  0.37016241836E+04  0.00000000000E+00 0. -1.
         21   -1    0    0  504  502  0.00000000000E+00 -0.00000000000E+00 -0.65485435250E+02  0.65485435250E+02  0.00000000000E+00 0.  1.
         21    1    1    2  503  505  0.26930812400E+02 -0.63166779519E+02  0.29171272716E+02  0.74607465063E+02  0.00000000000E+00 0.  1.
         21    1    1    2  504  503  0.50917961631E+02 -0.27759197247E+02 -0.20781513076E+02  0.61604246073E+02  0.00000000000E+00 0.  1.
         21    1    1    2  505  501 -0.17539143579E+02  0.82865387273E+02  0.16044131749E+04  0.16066474192E+04  0.00000000000E+00 0.  1.
          2    1    1    2  501    0 -0.60309630452E+02  0.80605894930E+01  0.20233358139E+04  0.20242504885E+04  0.00000000000E+00 0. -1.
<scales pt_clust_3="14000.00000" pt_clust_4="57.99321" pt_clust_5="111.33502" pt_clust_6="59.82781"></scales>
<clustering>
<clus scale="   57.993">  2  4  1 -1</clus>
<clus scale="   59.828">  1  6  2 -1</clus>
<clus scale="  111.335">  1  5  2 -1</clus>
<clus scale="   57.993">  2  3  1 -1</clus>
</clustering>
</event>
<event>
 6    0  0.1849053E+002  0.1002916E+03  0.7546771E-02  0.1279684E+00
         21   -1    0    0  501  502  0.00000000000E+00  0.00000000000E+00  0.24227063855E+02  0.24227063855E+02  0.00000000000E+00 0. -1.
          1   -1    0    0  505    0 -0.00000000000E+00 -0.00000000000E+00 -0.99954933680E+03  0.99954933680E+03  0.00000000000E+00 0. -1.
         21    1    1    2  503  504  0.79663120650E+02 -0.31704922337E+02 -0.18142663785E+03  0.20066648902E+03  0.00000000000E+00 0. -1.
         21    1    1    2  504  502  0.39995074883E+02  0.95112646721E+01 -0.47194961053E+02  0.62589412199E+02  0.00000000000E+00 0. -1.
         21    1    1    2  505  503 -0.83594670907E+02 -0.52730534476E+00 -0.64285275941E+03  0.64826539113E+03  0.00000000000E+00 0. -1.
          1    1    1    2  501    0 -0.36063524626E+02  0.22720963010E+02 -0.10384791463E+03  0.11225510831E+03  0.00000000000E+00 0. -1.
<scales pt_clust_3="32.66384" pt_clust_4="32.66384" pt_clust_5="88.50547" pt_clust_6="42.62417"></scales>
<clustering>
<clus scale="   32.664">  3  4 -1 -1</clus>
<clus scale="   42.624">  1  6  2 -1</clus>
<clus scale="   88.505">  2  5  1 -1</clus>
<clus scale="   42.624">  1  3  2 -1</clus>
</clustering>
</event>
<event>
 6    0  0.1849053E+002  0.1597741E+03  0.7546771E-02  0.1188952E+00
         21   -1    0    0  505  502  0.00000000000E+00  0.00000000000E+00  0.31915388487E+02  0.31915388487E+02  0.00000000000E+00 0. -1.
          2   -1    0    0  502    0 -0.00000000000E+00 -0.00000000000E+00 -0.13195955321E+04  0.13195955321E+04  0.00000000000E+00 0.  1.
         21    1    1    2  503  504  0.55960308578E+02  0.74626692986E+02 -0.13664874011E+03  0.16544962259E+03  0.00000000000E+00 0. -1.
         21    1    1    2  504  501 -0.40234636740E+02 -0.48792400749E+02 -0.53092276450E+03  0.53467607598E+03  0.00000000000E+00 0.  1.
         21    1    1    2  505  503  0.10025530811E+02  0.64442265840E+02 -0.80172274611E+02  0.10334849061E+03  0.00000000000E+00 0.  1.
          2    1    1    2  501    0 -0.25751202649E+02 -0.90276558078E+02 -0.53993636443E+03  0.54803673144E+03  0.00000000000E+00 0.  1.
<scales pt_clust_3="158.87439" pt_clust_4="35.14432" pt_clust_5="32.88560" pt_clust_6="35.14432"></scales>
<clustering>
<clus scale="   32.886">  3  5 -1 -1</clus>
<clus scale="   35.144">  4  6 -1 -1</clus>
<clus scale="  158.874">  1  3  2 -1</clus>
<clus scale="  158.874">  1  3  2 -1</clus>
</clustering>
</event>
<event>
 6    0  0.1849053E+002  0.4083019E+03  0.7546771E-02  0.1040942E+00
         21   -1    0    0  501  502  0.00000000000E+00  0.00000000000E+00  0.12752406371E+04  0.12752406371E+04  0.00000000000E+00 0.  1.
          2   -1    0    0  504    0 -0.00000000000E+00 -0.00000000000E+00 -0.22704284666E+04  0.22704284666E+04  0.00000000000E+00 0. -1.
         21    1    1    2  503  505 -0.92746682418E+00  0.16433870040E+03  0.53931346624E+03  0.56379702332E+03  0.00000000000E+00 0.  1.
         21    1    1    2  504  503 -0.31515136205E+02  0.10972740680E+03 -0.10953975677E+03  0.15821588393E+03  0.00000000000E+00 0.  1.
         21    1    1    2  505  502 -0.51278122145E+02  0.23490330653E+03  0.64606938966E+03  0.68935815473E+03  0.00000000000E+00 0.  1.
          2    1    1    2  501    0  0.83720725175E+02 -0.50896941373E+03 -0.20710309286E+04  0.21342980417E+04  0.00000000000E+00 0. -1.
<scales pt_clust_3="46.37018" pt_clust_4="114.16351" pt_clust_5="46.37018" pt_clust_6="404.43130"></scales>
<clustering>
<clus scale="   46.370">  3  5 -1 -1</clus>
<clus scale="  114.164">  2  4  1 -1</clus>
<clus scale="  404.431">  2  6  1 -1</clus>
<clus scale="  408.302">  1  3  2 -1</clus>
</clustering>
</event>
<event>
 6    0  0.1849053E+002  0.1548581E+03  0.7546771E-02  0.1194627E+00
         21   -1    0    0  501  502  0.00000000000E+00  0.00000000000E+00  0.16921862162E+03  0.16921862162E+03  0.00000000000E+00 0. -1.
          1   -1    0    0  504    0 -0.00000000000E+00 -0.00000000000E+00 -0.10507568360E+04  0.10507568360E+04  0.00000000000E+00 0.  1.
         21    1    1    2  503  502  0.21761341334E+02 -0.90639374739E+02  0.10973598984E+03  0.14398277569E+03  0.00000000000E+00 0. -1.
         21    1    1    2  504  505 -0.17053074833E+02  0.26477716334E+02 -0.71951456355E+02  0.78542274573E+02  0.00000000000E+00 0. -1.
         21    1    1    2  505  503 -0.21900238040E+02 -0.48963794711E+02  0.15356425554E+02  0.55793309854E+02  0.00000000000E+00 0. -1.
          1    1    1    2  501    0  0.17191971538E+02  0.11312545312E+03 -0.93467917346E+03  0.94165709753E+03  0.00000000000E+00 0.  1.
<scales pt_clust_3="52.38244" pt_clust_4="31.49408" pt_clust_5="52.38244" pt_clust_6="138.59188"></scales>
<clustering>
<clus scale="   31.494">  2  4  1 -1</clus>
<clus scale="   52.382">  3  5 -1 -1</clus>
<clus scale="  138.592">  2  6  1 -1</clus>
<clus scale="  154.858">  1  3  2 -1</clus>
</clustering>
</event>
<event>
 6    0  0.1849053E+002  0.1263483E+03  0.7546771E-02  0.1232977E+00
          1   -1    0    0  505    0 -0.00000000000E+00  0.00000000000E+00  0.69426967112E+03  0.69426967112E+03  0.00000000000E+00 0. -1.
         21   -1    0    0  503  502  0.00000000000E+00 -0.00000000000E+00 -0.15986934771E+03  0.15986934771E+03  0.00000000000E+00 0.  1.
         21    1    1    2  503  501  0.26469789236E+02 -0.42523043298E+02  0.17492463961E+03  0.18195463307E+03  0.00000000000E+00 0. -1.
         21    1    1    2  504  502 -0.32919821632E+02  0.36939299035E+02 -0.10930966070E+03  0.11998678424E+03  0.00000000000E+00 0.  1.
         21    1    1    2  505  504  0.26111927062E+02  0.80100886901E+02  0.75713515176E+01  0.84589066557E+02  0.00000000000E+00 0.  1.
          1    1    1    2  501    0 -0.19661894666E+02 -0.74517142638E+02  0.46121399298E+03  0.46760853496E+03  0.00000000000E+00 0. -1.
<scales pt_clust_3="47.79785" pt_clust_4="49.47956" pt_clust_5="111.57375" pt_clust_6="47.79785"></scales>
<clustering>
<clus scale="   47.798">  3  6 -1 -1</clus>
<clus scale="   49.480">  2  4  1 -1</clus>
<clus scale="  111.574">  2  5  1 -1</clus>
<clus scale="   49.480">  2  3  1 -1</clus>
</clustering>
</event>
<event>
 6    0  0.1849053E+002  0.1645568E+03  0.7546771E-02  0.1183646E+00
          2   -1    0    0  504    0 -0.00000000000E+00  0.00000000000E+00  0.91451481520E+03  0.91451481520E+03  0.00000000000E+00 0. -1.
         21   -1    0    0  503  502  0.00000000000E+00 -0.00000000000E+00 -0.46602726067E+02  0.46602726067E+02  0.00000000000E+00 0.  1.
         21    1    1    2  503  505 -0.59861939802E+02  0.67010244307E+02  0.12133211012E+03  0.15098114328E+03  0.00000000000E+00 0.  1.
         21    1    1    2  504  502  0.39290360155E+02  0.32430999249E+01  0.23691867847E+03  0.24017641496E+03  0.00000000000E+00 0. -1.
         21    1    1    2  505  501 -0.73805092466E+02  0.32126707205E+02  0.63353243764E+02  0.10243510377E+03  0.00000000000E+00 0.  1.
          2    1    1    2  501    0  0.94376672113E+02 -0.10238005144E+03  0.44630805678E+03  0.46752487925E+03  0.00000000000E+00 0. -1.
<scales pt_clust_3="46.47785" pt_clust_4="39.42398" pt_clust_5="46.47785" pt_clust_6="157.04406"></scales>
<clustering>
<clus scale="   39.424">  1  4  2 -1</clus>
<clus scale="   46.478">  3  5 -1 -1</clus>
<clus scale="  157.044">  1  6  2 -1</clus>
<clus scale="  164.557">  2  3  1 -1</clus>
</clustering>
</event>
<event>
 6    0  0.1849053E+002  0.1978165E+03  0.7546771E-02  0.1151594E+00
          2   -1    0    0  504    0 -0.00000000000E+00  0.00000000000E+00  0.49637673262E+03  0.49637673262E+03  0.00000000000E+00 0. -1.
         21   -1    0    0  501  502  0.00000000000E+00 -0.00000000000E+00 -0.20778009790E+03  0.20778009790E+03  0.00000000000E+00 0.  1.
         21    1    1    2  503  502  0.29650962031E+02 -0.57318433817E+02  0.50498513335E+01  0.64730853564E+02  0.00000000000E+00 0.  1.
         21    1    1    2  504  505  0.90810231247E+01  0.11685135181E+03  0.63582331783E+02  0.13333947771E+03  0.00000000000E+00 0. -1.
         21    1    1    2  505  503  0.61486952828E+02 -0.12338858907E+03 -0.96346225321E+02  0.16819032200E+03  0.00000000000E+00 0.  1.
          2    1    1    2  501    0 -0.10021893798E+03  0.63855671070E+02  0.31631067692E+03  0.33789617724E+03  0.00000000000E+00 0. -1.
<scales pt_clust_3="48.16634" pt_clust_4="117.20368" pt_clust_5="48.16634" pt_clust_6="184.86552"></scales>
<clustering>
<clus scale="   48.166">  3  5 -1 -1</clus>
<clus scale="  117.204">  1  4  2 -1</clus>
<clus scale="  184.866">  1  6  2 -1</clus>
<clus scale="  197.816">  2  3  1 -1</clus>
</clustering>
</event>
<event>
 6    0  0.1849053E+002  0.1365467E+03  0.7546771E-02  0.1218053E+00
          4   -1    0    0  504    0 -0.00000000000E+00  0.00000000000E+00  0.26818201076E+03  0.26818201076E+03  0.00000000000E+00 0. -1.
         21   -1    0    0  503  502  0.00000000000E+00 -0.00000000000E+00 -0.14250044269E+03  0.14250044269E+03  0.00000000000E+00 0. -1.
         21    1    1    2  503  501  0.50324710241E+02 -0.75150949382E+01  0.41123091489E+02  0.65422945259E+02  0.00000000000E+00 0. -1.
         21    1    1    2  504  505 -0.48003671838E+02  0.15645106478E+02 -0.42330976763E+01  0.50665974604E+02  0.00000000000E+00 0. -1.
         21    1    1    2  505  502 -0.74009139624E+02  0.12841537302E+02 -0.80168396723E+02  0.10986004579E+03  0.00000000000E+00 0. -1.
          4    1    1    2  501    0  0.71688101222E+02 -0.20971548841E+02  0.16895997099E+03  0.18473348780E+03  0.00000000000E+00 0. -1.
<scales pt_clust_3="43.24107" pt_clust_4="44.50189" pt_clust_5="44.50189" pt_clust_6="135.80629"></scales>
<clustering>
<clus scale="   43.241">  3  6 -1 -1</clus>
<clus scale="   44.502">  4  5 -1 -1</clus>
<clus scale="  135.806">  1  3  2 -1</clus>
<clus scale="  136.547">  2  3  1 -1</clus>
</clustering>
</event>
<event>
 6    0  0.1849053E+002  0.1634769E+03  0.7546771E-02  0.1184826E+00
         -2   -1    0    0    0  501 -0.00000000000E+00  0.00000000000E+00  0.14968086393E+04  0.14968086393E+04  0.00000000000E+00 0. -1.
         21   -1    0    0  505  502  0.00000000000E+00 -0.00000000000E+00 -0.96851737923E+02  0.96851737923E+02  0.00000000000E+00 0.  1.
         21    1    1    2  503  504 -0.12915179874E+03  0.60593525974E+02  0.17580879474E+03  0.22640780644E+03  0.00000000000E+00 0.  1.
         21    1    1    2  504  502 -0.49351882289E+02 -0.43624400628E+02 -0.46849645495E+02  0.80830600014E+02  0.00000000000E+00 0.  1.
         21    1    1    2  505  501  0.30787126652E+02  0.54059491519E+01  0.76838261883E+02  0.82952938121E+02  0.00000000000E+00 0.  1.
         -2    1    1    2    0  503  0.14771655438E+03 -0.22375074498E+02  0.11941594903E+04  0.12034690327E+04  0.00000000000E+00 0. -1.
<scales pt_clust_3="163.47690" pt_clust_4="65.54954" pt_clust_5="31.25814" pt_clust_6="14000.00000"></scales>
<clustering>
<clus scale="   31.258">  1  5  2 -1</clus>
<clus scale="   65.550">  2  4  1 -1</clus>
<clus scale="  163.477">  2  3  1 -1</clus>
<clus scale="   65.550">  2  3  1 -1</clus>
</clustering>
</event>
<event>
 6    0  0.1849053E+002  0.1163838E+03  0.7546771E-02  0.1249185E+00
          2   -1    0    0  505    0 -0.00000000000E+00  0.00000000000E+00  0.16886037541E+04  0.16886037541E+04  0.00000000000E+00 0.  1.
         21   -1    0    0  504  502  0.00000000000E+00 -0.00000000000E+00 -0.55810315050E+02  0.55810315050E+02  0.00000000000E+00 0. -1.
         21    1    1    2  503  501  0.58990921085E+02 -0.31541409831E+02  0.15269259298E+02  0.68614426939E+02  0.00000000000E+00 0. -1.
         21    1    1    2  504  503  0.37795695124E+02  0.28970588063E+02  0.11930430464E+01  0.47636466015E+02  0.00000000000E+00 0. -1.
         21    1    1    2  505  502  0.13751038440E+02 -0.46905272306E+02  0.17336478939E+03  0.18012369591E+03  0.00000000000E+00 0.  1.
          2    1    1    2  501    0 -0.11053765465E+03  0.49476094075E+02  0.14429663473E+04  0.14480394802E+04  0.00000000000E+00 0.  1.
<scales pt_clust_3="116.38378" pt_clust_4="47.62152" pt_clust_5="47.32382" pt_clust_6="14000.00000"></scales>
<clustering>
<clus scale="   47.622">  2  4  1 -1</clus>
<clus scale="   47.324">  2  5  1 -1</clus>
<clus scale="  116.384">  2  3  1 -1</clus>
<clus scale="   47.622">  2  3  1 -1</clus>
</clustering>
</event>
<event>
 6    0  0.1849053E+002  0.1503617E+03  0.7546771E-02  0.1200029E+00
         21   -1    0    0  505  502  0.00000000000E+00  0.00000000000E+00  0.40081802374E+02  0.40081802374E+02  0.00000000000E+00 0.  1.
          2   -1    0    0  504    0 -0.00000000000E+00 -0.00000000000E+00 -0.31485242658E+04  0.31485242658E+04  0.00000000000E+00 0.  1.
         21    1    1    2  503  501 -0.25755321077E+02  0.34669514136E+02 -0.93887291777E+03  0.93986577100E+03  0.00000000000E+00 0.  1.
         21    1    1    2  504  502  0.34175267923E+02 -0.69217380558E+02 -0.15057974387E+03  0.16921363413E+03  0.00000000000E+00 0.  1.
         21    1    1    2  505  503  0.99645379139E+02  0.13209201072E+02 -0.59222454322E+02  0.11666612050E+03  0.00000000000E+00 0.  1.
          2    1    1    2  501    0 -0.10806532598E+03  0.21338665350E+02 -0.19597673474E+04  0.19628605425E+04  0.00000000000E+00 0.  1.
<scales pt_clust_3="32.29348" pt_clust_4="77.19453" pt_clust_5="141.24042" pt_clust_6="32.29348"></scales>
<clustering>
<clus scale="   32.293">  3  6 -1 -1</clus>
<clus scale="   77.195">  1  4  2 -1</clus>
<clus scale="  141.240">  1  5  2 -1</clus>
<clus scale="   77.195">  1  3  2 -1</clus>
</clustering>
</event>
<event>
 6    0  0.1849053E+002  0.9865494E+02  0.7546771E-02  0.1283150E+00
         21   -1    0    0  504  502  0.00000000000E+00  0.00000000000E+00  0.33383849062E+03  0.33383849062E+03  0.00000000000E+00 0.  1.
          1   -1    0    0  505    0 -0.00000000000E+00 -0.00000000000E+00 -0.12308035389E+03  0.12308035389E+03  0.00000000000E+00 0.  1.
         21    1    1    2  503  501  0.45903142908E+02  0.94222649605E+01  0.81716995433E+02  0.94199495478E+02  0.00000000000E+00 0.  1.
         21    1    1    2  504  503  0.30638192405E+02  0.26483359960E+02  0.17269978432E+03  0.17738456160E+03  0.00000000000E+00 0.  1.
         21    1    1    2  505  502  0.29404264728E+02  0.40052735868E+02 -0.97427371662E+01  0.50633520144E+02  0.00000000000E+00 0.  1.
          1    1    1    2  501    0 -0.10594560004E+03 -0.75958360789E+02 -0.33915905852E+02  0.13470126730E+03  0.00000000000E+00 0.  1.
<scales pt_clust_3="40.33181" pt_clust_4="40.33181" pt_clust_5="49.68735" pt_clust_6="88.60352"></scales>
<clustering>
<clus scale="   40.332">  3  4 -1 -1</clus>
<clus scale="   49.687">  2  5  1 -1</clus>
<clus scale="   88.604">  2  6  1 -1</clus>
<clus scale="   98.655">  1  3  2 -1</clus>
</clustering>
</event>
<event>
 6    0  0.1849053E+002  0.1759283E+03  0.7546771E-02  0.1171803E+00
          1   -1    0    0  505    0 -0.00000000000E+00  0.00000000000E+00  0.70545509724E+03  0.70545509724E+03  0.00000000000E+00 0. -1.
         21   -1    0    0  503  502  0.00000000000E+00 -0.00000000000E+00 -0.39596086162E+03  0.39596086162E+03  0.00000000000E+00 0. -1.
         21    1    1    2  503  504 -0.79963431689E+02 -0.16153496409E+03 -0.33475352446E+03  0.38019418350E+03  0.00000000000E+00 0. -1.
         21    1    1    2  504  501  0.59187477719E+02  0.85752370417E+02  0.29192075784E+03  0.30995863500E+03  0.00000000000E+00 0. -1.
         21    1    1    2  505  502 -0.18235623726E+02  0.29775950987E+02 -0.15730067098E+02  0.38295955932E+02  0.00000000000E+00 0. -1.
          1    1    1    2  501    0  0.39011577696E+02  0.46006642684E+02  0.36805706934E+03  0.37296718443E+03  0.00000000000E+00 0. -1.
<scales pt_clust_3="164.73406" pt_clust_4="46.93573" pt_clust_5="34.91626" pt_clust_6="46.93573"></scales>
<clustering>
<clus scale="   34.916">  2  5  1 -1</clus>
<clus scale="   46.936">  4  6 -1 -1</clus>
<clus scale="  164.734">  2  3  1 -1</clus>
<clus scale="   34.916">  2  3  1 -1</clus>
</clustering>
</event>
<event>
 6    0  0.1849053E+002  0.1719885E+03  0.7546771E-02  0.1175790E+00
          2   -1    0    0  504    0 -0.00000000000E+00  0.00000000000E+00  0.74979236235E+03  0.74979236235E+03  0.00000000000E+00 0.  1.
         21   -1    0    0  503  502  0.00000000000E+00 -0.00000000000E+00 -0.14480229096E+04  0.14480229096E+04  0.00000000000E+00 0. -1.
         21    1    1    2  503  505 -0.14380331432E+03  0.13190914772E+02 -0.13543132613E+04  0.13619903829E+04  0.00000000000E+00 0. -1.
         21    1    1    2  504  502 -0.17442734871E+02 -0.35148916279E+02 -0.75056443318E+02  0.84694539369E+02  0.00000000000E+00 0.  1.
         21    1    1    2  505  501  0.37809040279E+02 -0.14203760430E+02  0.12040733917E+03  0.12700077820E+03  0.00000000000E+00 0. -1.
          2    1    1    2  501    0  0.12343700891E+03  0.36161761936E+02  0.61073181820E+03  0.62412957145E+03  0.00000000000E+00 0.  1.
<scales pt_clust_3="162.57352" pt_clust_4="39.23895" pt_clust_5="31.44972" pt_clust_6="31.44972"></scales>
<clustering>
<clus scale="   31.450">  5  6 -1 -1</clus>
<clus scale="   39.239">  2  4  1 -1</clus>
<clus scale="  162.574">  2  3  1 -1</clus>
<clus scale="   39.239">  2  3  1 -1</clus>
</clustering>
</event>
<event>
 6    0  0.1849053E+002  0.8930198E+02  0.7546771E-02  0.1304551E+00
         21   -1    0    0  503  502  0.00000000000E+00  0.00000000000E+00  0.21363967195E+03  0.21363967195E+03  0.00000000000E+00 0.  1.
          2   -1    0    0  504    0 -0.00000000000E+00 -0.00000000000E+00 -0.10427946150E+04  0.10427946150E+04  0.00000000000E+00 0.  1.
         21    1    1    2  503  501  0.11627381082E+03 -0.11384709193E+02  0.11657828761E+03  0.16504456316E+03  0.00000000000E+00 0.  1.
         21    1    1    2  504  505 -0.14204515450E+02 -0.26834613161E+02 -0.93924455962E+02  0.98710020517E+02  0.00000000000E+00 0. -1.
         21    1    1    2  505  502 -0.68297545125E+02 -0.20904919036E+02  0.50710002526E+02  0.87596088190E+02  0.00000000000E+00 0.  1.
          2    1    1    2  501    0 -0.33771750245E+02  0.59124241390E+02 -0.90251877725E+03  0.90508361510E+03  0.00000000000E+00 0.  1.
<scales pt_clust_3="14000.00000" pt_clust_4="30.36223" pt_clust_5="89.30198" pt_clust_6="57.99051"></scales>
<clustering>
<clus scale="   30.362">  2  4  1 -1</clus>
<clus scale="   57.991">  2  6  1 -1</clus>
<clus scale="   89.302">  1  5  2 -1</clus>
<clus scale="   89.302">  1  3  2 -1</clus>
</clustering>
</event>
<event>
 6    0  0.1849053E+002  0.1175009E+03  0.7546771E-02  0.1247278E+00
         21   -1    0    0  505  502  0.00000000000E+00  0.00000000000E+00  0.47214905219E+03  0.47214905219E+03  0.00000000000E+00 0.  1.
          2   -1    0    0  503    0 -0.00000000000E+00 -0.00000000000E+00 -0.78279586372E+03  0.78279586372E+03  0.00000000000E+00 0. -1.
         21    1    1    2  503  502  0.90726843124E+02 -0.41474495923E+02 -0.24944847996E+03  0.26865598454E+03  0.00000000000E+00 0. -1.
         21    1    1    2  504  501 -0.67842120751E+02  0.37884603680E+02  0.63227671640E+02  0.10017751746E+03  0.00000000000E+00 0.  1.
         21    1    1    2  505  504 -0.34496995845E+02  0.40983632505E+02  0.37819372863E+03  0.38196884327E+03  0.00000000000E+00 0.  1.
          2    1    1    2  501    0  0.11612273472E+02 -0.37393740263E+02 -0.50261973183E+03  0.50414257064E+03  0.00000000000E+00 0. -1.
<scales pt_clust_3="117.50092" pt_clust_4="14000.00000" pt_clust_5="53.32591" pt_clust_6="39.15529"></scales>
<clustering>
<clus scale="   39.155">  2  6  1 -1</clus>
<clus scale="   53.326">  1  5  2 -1</clus>
<clus scale="  117.501">  2  3  1 -1</clus>
<clus scale="   53.326">  1  3  2 -1</clus>
</clustering>
</event>
<event>
 6    0  0.1849053E+002  0.1006647E+03  0.7546771E-02  0.1278904E+00
          3   -1    0    0  505    0 -0.00000000000E+00  0.00000000000E+00  0.16040386413E+03  0.16040386413E+03  0.00000000000E+00 0. -1.
         21   -1    0    0  504  502  0.00000000000E+00 -0.00000000000E+00 -0.17740898120E+04  0.17740898120E+04  0.00000000000E+00 0. -1.
         21    1    1    2  503  502  0.26152788401E+02  0.26753447311E+02 -0.19715032319E+03  0.20066879483E+03  0.00000000000E+00 0. -1.
         21    1    1    2  504  501  0.75082555065E+02 -0.86094842867E+01 -0.14677956189E+04  0.14697399403E+04  0.00000000000E+00 0. -1.
         21    1    1    2  505  503 -0.22327772553E+02  0.89584844066E+02 -0.41773698173E+02  0.10133615136E+03  0.00000000000E+00 0. -1.
          3    1    1    2  501    0 -0.78907570912E+02 -0.10772880709E+03  0.93033692350E+02  0.16274878966E+03  0.00000000000E+00 0. -1.
<scales pt_clust_3="37.41277" pt_clust_4="100.66469" pt_clust_5="93.22852" pt_clust_6="14000.00000"></scales>
<clustering>
<clus scale="   37.413">  2  3  1 -1</clus>
<clus scale="   93.229">  1  5  2 -1</clus>
<clus scale="  100.665">  2  4  1 -1</clus>
<clus scale="   37.413">  2  3  1 -1</clus>
</clustering>
</event>
<event>
 6    0  0.1849053E+002  0.2718591E+03  0.7546771E-02  0.1100220E+00
          1   -1    0    0  505    0 -0.00000000000E+00  0.00000000000E+00  0.39160078744E+04  0.39160078744E+04  0.00000000000E+00 0. -1.
         21   -1    0    0  503  502  0.00000000000E+00 -0.00000000000E+00 -0.40273052583E+02  0.40273052583E+02  0.00000000000E+00 0. -1.
         21    1    1    2  503  501 -0.15528917868E+02 -0.57537949647E+02  0.45587986726E+03  0.45975886757E+03  0.00000000000E+00 0. -1.
         21    1    1    2  504  502  0.11143644697E+03  0.18703029688E+03  0.36852538047E+03  0.42802963649E+03  0.00000000000E+00 0. -1.
         21    1    1    2  505  504  0.49166849770E+02  0.12376610334E+02  0.12162664740E+03  0.13177101714E+03  0.00000000000E+00 0. -1.
          1    1    1    2  501    0 -0.14507437887E+03 -0.14186895757E+03  0.29297029267E+04  0.29367214058E+04  0.00000000000E+00 0. -1.
<scales pt_clust_3="49.52477" pt_clust_4="270.42145" pt_clust_5="41.99031" pt_clust_6="49.52477"></scales>
<clustering>
<clus scale="   41.990">  4  5 -1 -1</clus>
<clus scale="   49.525">  3  6 -1 -1</clus>
<clus scale="  270.421">  2  4  1 -1</clus>
<clus scale="  270.421">  2  3  1 -1</clus>
</clustering>
</event>
<event>
 6    0  0.1849053E+002  0.1764173E+03  0.7546771E-02  0.1171316E+00
         21   -1    0    0  504  502  0.00000000000E+00  0.00000000000E+00  0.96360463616E+03  0.96360463616E+03  0.00000000000E+00 0. -1.
          4   -1    0    0  505    0 -0.00000000000E+00 -0.00000000000E+00 -0.68782147765E+02  0.68782147765E+02  0.00000000000E+00 0. -1.
         21    1    1    2  503  502  0.17587499864E+03  0.44186270128E+02  0.73027070255E+03  0.75244916149E+03  0.00000000000E+00 0. -1.
         21    1    1    2  504  501 -0.63605912297E+02 -0.22641657227E+02  0.22554105430E+02  0.71183174928E+02  0.00000000000E+00 0. -1.
         21    1    1    2  505  503 -0.67214112354E+02  0.37097489853E+02  0.90298570849E+02  0.11852338398E+03  0.00000000000E+00 0. -1.
          4    1    1    2  501    0 -0.45054973984E+02 -0.58642102754E+02  0.51699109562E+02  0.90231063529E+02  0.00000000000E+00 0. -1.
<scales pt_clust_3="170.28291" pt_clust_4="44.06454" pt_clust_5="76.77213" pt_clust_6="44.06454"></scales>
<clustering>
<clus scale="   44.065">  4  6 -1 -1</clus>
<clus scale="   76.772">  2  5  1 -1</clus>
<clus scale="  170.283">  1  3  2 -1</clus>
<clus scale="  170.283">  1  3  2 -1</clus>
</clustering>
</event>
<event>
 6    0  0.1849053E+002  0.1321158E+03  0.7546771E-02  0.1224350E+00
          1   -1    0    0  505    0 -0.00000000000E+00  0.00000000000E+00  0.31494984744E+03  0.31494984744E+03  0.00000000000E+00 0.  1.
         21   -1    0    0  504  502  0.00000000000E+00 -0.00000000000E+00 -0.36331262205E+03  0.36331262205E+03  0.00000000000E+00 0. -1.
         21    1    1    2  503  501 -0.17590331406E+02 -0.39683348358E+02  0.59900832966E+02  0.73974980135E+02  0.00000000000E+00 0.  1.
         21    1    1    2  504  503  0.46479199788E+02  0.77985111845E+02 -0.23662203890E+03  0.25344029469E+03  0.00000000000E+00 0. -1.
         21    1    1    2  505  502  0.52062037625E+02 -0.92288245017E+01 -0.96535005970E+02  0.11006649963E+03  0.00000000000E+00 0. -1.
          1    1    1    2  501    0 -0.80950906007E+02 -0.29072938985E+02  0.22489343729E+03  0.24078069503E+03  0.00000000000E+00 0.  1.
<scales pt_clust_3="42.18054" pt_clust_4="118.02134" pt_clust_5="52.87369" pt_clust_6="42.18054"></scales>
<clustering>
<clus scale="   42.181">  3  6 -1 -1</clus>
<clus scale="   52.874">  2  5  1 -1</clus>
<clus scale="  118.021">  2  4  1 -1</clus>
<clus scale="   52.874">  2  3  1 -1</clus>
</clustering>
</event>
<event>
 6    0  0.1849053E+002  0.1104088E+03  0.7546771E-02  0.1259815E+00
          2   -1    0    0  504    0 -0.00000000000E+00  0.00000000000E+00  0.41271964959E+03  0.41271964959E+03  0.00000000000E+00 0. -1.
         21   -1    0    0  505  502  0.00000000000E+00 -0.00000000000E+00 -0.10018392911E+03  0.10018392911E+03  0.00000000000E+00 0.  1.
         21    1    1    2  503  502  0.54171708445E+02 -0.14080100969E+03  0.88951242622E+02  0.17513372573E+03  0.00000000000E+00 0.  1.
         21    1    1    2  504  503 -0.93661547806E+00  0.37508707484E+02  0.30703168128E+02  0.48481593608E+02  0.00000000000E+00 0. -1.
         21    1    1    2  505  501 -0.35209798655E+02  0.29543148357E+02 -0.29291154668E+02  0.54502286906E+02  0.00000000000E+00 0.  1.
          2    1    1    2  501    0 -0.18025294313E+02  0.73749153845E+02  0.22217246439E+03  0.23478597245E+03  0.00000000000E+00 0. -1.
<scales pt_clust_3="110.40879" pt_clust_4="37.52040" pt_clust_5="46.81063" pt_clust_6="14000.00000"></scales>
<clustering>
<clus scale="   37.520">  1  4  2 -1</clus>
<clus scale="   46.811">  2  5  1 -1</clus>
<clus scale="  110.409">  2  3  1 -1</clus>
<clus scale="   46.811">  2  3  1 -1</clus>
</clustering>
</event>
<event>
 6    0  0.1849053E+002  0.2708257E+03  0.7546771E-02  0.1100808E+00
         21   -1    0    0  501  502  0.00000000000E+00  0.00000000000E+00  0.24680150339E+03  0.24680150339E+03  0.00000000000E+00 0.  1.
         -2   -1    0    0    0  501 -0.00000000000E+00 -0.00000000000E+00 -0.45386771648E+03  0.45386771648E+03  0.00000000000E+00 0. -1.
         21    1    1    2  503  502  0.17181372446E+03 -0.14753349698E+03  0.11885088616E+03  0.25575695843E+03  0.00000000000E+00 0.  1.
         21    1    1    2  504  503  0.33182521437E+02 -0.65941657145E+01 -0.11262166963E+02  0.35656684578E+02  0.00000000000E+00 0. -1.
         21    1    1    2  505  504 -0.96786358361E+02  0.70913867459E+02 -0.10708179382E+03  0.16081942149E+03  0.00000000000E+00 0.  1.
         -2    1    1    2    0  505 -0.10820988754E+03  0.83213795238E+02 -0.20757313846E+03  0.24843615536E+03  0.00000000000E+00 0. -1.
<scales pt_clust_3="33.62361" pt_clust_4="33.62361" pt_clust_5="48.74822" pt_clust_6="261.69142"></scales>
<clustering>
<clus scale="   33.624">  3  4 -1 -1</clus>
<clus scale="   48.748">  5  6 -1 -1</clus>
<clus scale="  261.691">  2  5  1 -1</clus>
<clus scale="  270.826">  1  3  2 -1</clus>
</clustering>
</event>
<event>
 6    0  0.1849053E+002  0.9671495E+02  0.7546771E-02  0.1287360E+00
         21   -1    0    0  505  502  0.00000000000E+00  0.00000000000E+00  0.47266323562E+02  0.47266323562E+02  0.00000000000E+00 0.  1.
          2   -1    0    0  503    0 -0.00000000000E+00 -0.00000000000E+00 -0.27381008104E+04  0.27381008104E+04  0.00000000000E+00 0.  1.
         21    1    1    2  503  504  0.22634587126E+02 -0.53577571476E+02 -0.19297587308E+03  0.20155041129E+03  0.00000000000E+00 0.  1.
         21    1    1    2  504  502 -0.42305981868E+02 -0.90789876735E+01  0.16066477646E+02  0.46155777785E+02  0.00000000000E+00 0.  1.
         21    1    1    2  505  501 -0.56136883093E+02 -0.51067863332E+01 -0.62642719145E+02  0.84270630542E+02  0.00000000000E+00 0.  1.
          2    1    1    2  501    0  0.75808277835E+02  0.67763345483E+02 -0.24512823722E+04  0.24533903143E+04  0.00000000000E+00 0.  1.
<scales pt_clust_3="57.13728" pt_clust_4="43.26921" pt_clust_5="96.71495" pt_clust_6="14000.00000"></scales>
<clustering>
<clus scale="   43.269">  1  4  2 -1</clus>
<clus scale="   57.137">  1  3  2 -1</clus>
<clus scale="   96.715">  1  5  2 -1</clus>
<clus scale="   43.269">  1  3  2 -1</clus>
</clustering>
</event>
<event>
 6    0  0.1849053E+002  0.1065475E+03  0.7546771E-02  0.1267100E+00
         21   -1    0    0  501  502  0.00000000000E+00  0.00000000000E+00  0.25878268500E+03  0.25878268500E+03  0.00000000000E+00 0. -1.
          3   -1    0    0  505    0 -0.00000000000E+00 -0.00000000000E+00 -0.14703997304E+03  0.14703997304E+03  0.00000000000E+00 0. -1.
         21    1    1    2  503  502  0.73487545904E+02  0.32097215280E+02  0.13953391239E+03  0.16093589823E+03  0.00000000000E+00 0. -1.
         21    1    1    2  504  503  0.43054756886E+01  0.30507203605E+02  0.62719289595E+02  0.69878007127E+02  0.00000000000E+00 0. -1.
         21    1    1    2  505  504 -0.63476396514E+02  0.14412171251E+02 -0.16298026776E+02  0.67101335839E+02  0.00000000000E+00 0.  1.
          3    1    1    2  501    0 -0.14316625078E+02 -0.77016590136E+02 -0.74212463241E+02  0.10790741684E+03  0.00000000000E+00 0. -1.
<scales pt_clust_3="30.35080" pt_clust_4="30.35080" pt_clust_5="65.09196" pt_clust_6="94.62942"></scales>
<clustering>
<clus scale="   30.351">  3  4 -1 -1</clus>
<clus scale="   65.092">  2  5  1 -1</clus>
<clus scale="   94.629">  2  6  1 -1</clus>
<clus scale="  106.547">  1  3  2 -1</clus>
</clustering>
</event>
<event>
 6    0  0.1849053E+002  0.1031212E+03  0.7546771E-02  0.1273866E+00
         21   -1    0    0  505  502  0.00000000000E+00  0.00000000000E+00  0.24705081127E+03  0.24705081127E+03  0.00000000000E+00 0. -1.
          2   -1    0    0  503    0 -0.00000000000E+00 -0.00000000000E+00 -0.24355334816E+04  0.24355334816E+04  0.00000000000E+00 0. -1.
         21    1    1    2  503  504  0.80815950963E+02 -0.38071053744E+02 -0.14484741958E+03  0.17018048661E+03  0.00000000000E+00 0.  1.
         21    1    1    2  504  502  0.59126117504E+02 -0.41012778258E+00  0.21648472702E+03  0.22441413282E+03  0.00000000000E+00 0. -1.
         21    1    1    2  505  501  0.41523318899E+02  0.27152426594E+02 -0.50118627880E+02  0.70521749431E+02  0.00000000000E+00 0.  1.
          2    1    1    2  501    0 -0.18146538737E+03  0.11328754932E+02 -0.22100013499E+04  0.22174679240E+04  0.00000000000E+00 0. -1.
<scales pt_clust_3="90.75254" pt_clust_4="14000.00000" pt_clust_5="49.61290" pt_clust_6="103.12120"></scales>
<clustering>
<clus scale="   49.613">  1  5  2 -1</clus>
<clus scale="   90.753">  2  3  1 -1</clus>
<clus scale="  103.121">  2  6  1 -1</clus>
<clus scale="   49.613">  1  3  2 -1</clus>
</clustering>
</event>
<event>
 6    0  0.1849053E+002  0.8307403E+02  0.7546771E-02  0.1320547E+00
          3   -1    0    0  503    0 -0.00000000000E+00  0.00000000000E+00  0.71997988125E+03  0.71997988125E+03  0.00000000000E+00 0. -1.
         21   -1    0    0  504  502  0.00000000000E+00 -0.00000000000E+00 -0.61564761802E+02  0.61564761802E+02  0.00000000000E+00 0. -1.
         21    1    1    2  503  505  0.42281380098E+02 -0.36104345327E+02  0.20779822655E+03  0.21510774466E+03  0.00000000000E+00 0. -1.
         21    1    1    2  504  501  0.22444893941E+02 -0.27427332700E+02  0.75184907067E+01  0.36229263663E+02  0.00000000000E+00 0. -1.
         21    1    1    2  505  502 -0.10549193118E+03  0.60363143848E+01  0.28196532035E+02  0.10936191775E+03  0.00000000000E+00 0. -1.
          3    1    1    2  501    0  0.40765657139E+02  0.57495363642E+02  0.41490187016E+03  0.42084571698E+03  0.00000000000E+00 0. -1.
<scales pt_clust_3="58.30115" pt_clust_4="35.44054" pt_clust_5="83.07403" pt_clust_6="14000.00000"></scales>
<clustering>
<clus scale="   35.441">  2  4  1 -1</clus>
<clus scale="   58.301">  1  3  2 -1</clus>
<clus scale="   83.074">  2  5  1 -1</clus>
<clus scale="   35.441">  2  3  1 -1</clus>
</clustering>
</event>
<event>
 6    0  0.1849053E+002  0.1124390E+03  0.7546771E-02  0.1256119E+00
         21   -1    0    0  505  502  0.00000000000E+00  0.00000000000E+00  0.10556334328E+04  0.10556334328E+04  0.00000000000E+00 0. -1.
          2   -1    0    0  503    0 -0.00000000000E+00 -0.00000000000E+00 -0.47268849528E+02  0.47268849528E+02  0.00000000000E+00 0. -1.
         21    1    1    2  503  504 -0.36775510652E+02  0.23010326550E+02  0.91008290490E+02  0.10081875941E+03  0.00000000000E+00 0.  1.
         21    1    1    2  504  502 -0.48623360014E+02 -0.75980163624E+02  0.66996407126E+03  0.67600966945E+03  0.00000000000E+00 0. -1.
         21    1    1    2  505  501  0.40101567886E+02 -0.48093148770E+02  0.19257513297E+03  0.20250004579E+03  0.00000000000E+00 0. -1.
          2    1    1    2  501    0  0.45297302780E+02  0.10106298584E+03  0.54817088542E+02  0.12357380767E+03  0.00000000000E+00 0. -1.
<scales pt_clust_3="43.38102" pt_clust_4="112.43901" pt_clust_5="57.81127" pt_clust_6="14000.00000"></scales>
<clustering>
<clus scale="   43.381">  2  3  1 -1</clus>
<clus scale="   57.811">  1  5  2 -1</clus>
<clus scale="  112.439">  1  4  2 -1</clus>
<clus scale="   57.811">  1  3  2 -1</clus>
</clustering>
</event>
<event>
 6    0  0.2002752E+002  0.8666137E+02  0.7546771E-02  0.1311144E+00
          2   -1    0    0  504    0 -0.00000000000E+00  0.00000000000E+00  0.11273782951E+04  0.11273782951E+04  0.00000000000E+00 0.  1.
         21   -1    0    0  505  502  0.00000000000E+00 -0.00000000000E+00 -0.63491096977E+03  0.63491096977E+03  0.00000000000E+00 0. -1.
         21    1    1    2  503  502 -0.32776993183E+02 -0.11264616839E+01 -0.31420702577E+02  0.45418726848E+02  0.00000000000E+00 0.  1.
         21    1    1    2  504  503  0.44462328772E+02 -0.11120298692E+02  0.33836261478E+02  0.56968871444E+02  0.00000000000E+00 0. -1.
         21    1    1    2  505  501  0.57775419787E+02 -0.81389081543E+02 -0.57747008535E+03  0.58603232095E+03  0.00000000000E+00 0. -1.
          2    1    1    2  501    0 -0.69460755376E+02  0.93635841919E+02  0.10675218518E+04  0.10738693457E+04  0.00000000000E+00 0.  1.
<scales pt_clust_3="32.79634" pt_clust_4="45.22093" pt_clust_5="86.66137" pt_clust_6="14000.00000"></scales>
<clustering>
<clus scale="   32.796">  2  3  1 -1</clus>
<clus scale="   45.221">  1  4  2 -1</clus>
<clus scale="   86.661">  2  5  1 -1</clus>
<clus scale="   32.796">  2  3  1 -1</clus>
</clustering>
</event>
<event>
 6    0  0.1849053E+002  0.1259421E+03  0.7546771E-02  0.1233604E+00
          1   -1    0    0  504    0 -0.00000000000E+00  0.00000000000E+00  0.20091465390E+03  0.20091465390E+03  0.00000000000E+00 0.  1.
         21   -1    0    0  501  502  0.00000000000E+00 -0.00000000000E+00 -0.17503354911E+03  0.17503354911E+03  0.00000000000E+00 0.  1.
         21    1    1    2  503  505 -0.41211929429E+02  0.44473567932E+02 -0.71325512633E+02  0.93614369219E+02  0.00000000000E+00 0.  1.
         21    1    1    2  504  503 -0.29782466151E+02 -0.97468378854E+01  0.29462980123E+02  0.43012362601E+02  0.00000000000E+00 0.  1.
         21    1    1    2  505  502 -0.24354895220E+02  0.55965397914E+02 -0.36787211761E+02  0.71264196017E+02  0.00000000000E+00 0.  1.
          1    1    1    2  501    0  0.95349290800E+02 -0.90692127961E+02  0.10453084906E+03  0.16805727516E+03  0.00000000000E+00 0.  1.
<scales pt_clust_3="33.27837" pt_clust_4="31.33682" pt_clust_5="33.27837" pt_clust_6="121.45714"></scales>
<clustering>
<clus scale="   31.337">  1  4  2 -1</clus>
<clus scale="   33.278">  3  5 -1 -1</clus>
<clus scale="  121.457">  1  6  2 -1</clus>
<clus scale="  125.942">  2  3  1 -1</clus>
</clustering>
</event>
<event>
 6    0  0.1849053E+002  0.2056011E+03  0.7546771E-02  0.1145098E+00
         21   -1    0    0  504  502  0.00000000000E+00  0.00000000000E+00  0.28708747708E+02  0.28708747708E+02  0.00000000000E+00 0.  1.
          3   -1    0    0  505    0 -0.00000000000E+00 -0.00000000000E+00 -0.14470864609E+04  0.14470864609E+04  0.00000000000E+00 0.  1.
         21    1    1    2  503  502 -0.97041281676E+02 -0.25601851936E+02 -0.24426710535E+03  0.26408120707E+03  0.00000000000E+00 0.  1.
         21    1    1    2  504  501  0.67204164058E+02  0.11239169709E+02 -0.17001550095E+03  0.18316110167E+03  0.00000000000E+00 0. -1.
         21    1    1    2  505  503 -0.85980806184E+02 -0.37691112574E+02 -0.35843432445E+03  0.37052460640E+03  0.00000000000E+00 0.  1.
          3    1    1    2  501    0  0.11581792380E+03  0.52053794801E+02 -0.64566078247E+03  0.65802829350E+03  0.00000000000E+00 0.  1.
<scales pt_clust_3="198.68449" pt_clust_4="50.58593" pt_clust_5="42.95393" pt_clust_6="50.58593"></scales>
<clustering>
<clus scale="   42.954">  3  5 -1 -1</clus>
<clus scale="   50.586">  4  6 -1 -1</clus>
<clus scale="  198.684">  1  3  2 -1</clus>
<clus scale="  198.684">  1  3  2 -1</clus>
</clustering>
</event>
<event>
 6    0  0.1849053E+002  0.1136967E+03  0.7546771E-02  0.1253873E+00
         21   -1    0    0  505  502  0.00000000000E+00  0.00000000000E+00  0.14139658575E+04  0.14139658575E+04  0.00000000000E+00 0.  1.
          2   -1    0    0  504    0 -0.00000000000E+00 -0.00000000000E+00 -0.93334161743E+03  0.93334161743E+03  0.00000000000E+00 0.  1.
         21    1    1    2  503  502 -0.11815229927E+03 -0.11603596613E+02  0.10323658814E+04  0.10391698236E+04  0.00000000000E+00 0.  1.
         21    1    1    2  504  503  0.83400324414E+02  0.89102943842E+02  0.36568510061E+03  0.38551334805E+03  0.00000000000E+00 0.  1.
         21    1    1    2  505  501  0.36899313388E+02 -0.46166004892E+02 -0.41134587152E+03  0.41556983210E+03  0.00000000000E+00 0.  1.
          2    1    1    2  501    0 -0.21473385368E+01 -0.31333342336E+02 -0.50608087037E+03  0.50705447120E+03  0.00000000000E+00 0.  1.
<scales pt_clust_3="14000.00000" pt_clust_4="113.69670" pt_clust_5="84.07098" pt_clust_6="31.40684"></scales>
<clustering>
<clus scale="   31.407">  2  6  1 -1</clus>
<clus scale="   84.071">  2  5  1 -1</clus>
<clus scale="  113.697">  2  4  1 -1</clus>
<clus scale="  113.697">  1  3  2 -1</clus>
</clustering>
</event>
<event>
 6    0  0.1849053E+002  0.2336523E+03  0.7546771E-02  0.1124095E+00
          1   -1    0    0  503    0 -0.00000000000E+00  0.00000000000E+00  0.45256146380E+03  0.45256146380E+03  0.00000000000E+00 0. -1.
         21   -1    0    0  505  502  0.00000000000E+00 -0.00000000000E+00 -0.16966899761E+03  0.16966899761E+03  0.00000000000E+00 0. -1.
         21    1    1    2  503  504 -0.31346348567E+02  0.24919179872E+01  0.49287980013E+02  0.58464589261E+02  0.00000000000E+00 0.  1.
         21    1    1    2  504  502 -0.13379751963E+03  0.16504551755E+03 -0.12811270242E+02  0.21285189163E+03  0.00000000000E+00 0. -1.
         21    1    1    2  505  501  0.45193245382E+02 -0.19333818529E+02  0.96765778919E+02  0.10853498025E+03  0.00000000000E+00 0. -1.
          1    1    1    2  501    0  0.11995062282E+03 -0.14820361701E+03  0.14964997751E+03  0.24237900028E+03  0.00000000000E+00 0. -1.
<scales pt_clust_3="31.44524" pt_clust_4="217.97882" pt_clust_5="40.38798" pt_clust_6="40.38798"></scales>
<clustering>
<clus scale="   31.445">  1  3  2 -1</clus>
<clus scale="   40.388">  5  6 -1 -1</clus>
<clus scale="  217.979">  2  4  1 -1</clus>
<clus scale="  217.979">  2  3  1 -1</clus>
</clustering>
</event>
<event>
 6    0  0.1849053E+002  0.1272424E+03  0.7546771E-02  0.1231606E+00
         21   -1    0    0  504  502  0.00000000000E+00  0.00000000000E+00  0.79381648770E+03  0.79381648770E+03  0.00000000000E+00 0. -1.
          2   -1    0    0  503    0 -0.00000000000E+00 -0.00000000000E+00 -0.27145226008E+04  0.27145226008E+04  0.00000000000E+00 0.  1.
         21    1    1    2  503  505 -0.82131611730E+02  0.30383603349E+02 -0.16909119878E+04  0.16931781109E+04  0.00000000000E+00 0.  1.
         21    1    1    2  504  501  0.24947184346E+02 -0.68341959809E+02  0.76720410435E+03  0.77064591299E+03  0.00000000000E+00 0. -1.
         21    1    1    2  505  502  0.55099558699E+02 -0.32883453541E+02 -0.23337375782E+02  0.68278224889E+02  0.00000000000E+00 0. -1.
          2    1    1    2  501    0  0.20848686846E+01  0.70841810001E+02 -0.97366085389E+03  0.97623683967E+03  0.00000000000E+00 0.  1.
<scales pt_clust_3="14000.00000" pt_clust_4="127.24239" pt_clust_5="64.16606" pt_clust_6="70.82037"></scales>
<clustering>
<clus scale="   64.166">  1  5  2 -1</clus>
<clus scale="   70.820">  2  6  1 -1</clus>
<clus scale="  127.242">  1  4  2 -1</clus>
<clus scale="   64.166">  1  3  2 -1</clus>
</clustering>
</event>
<event>
 6    0  0.1849053E+002  0.9546004E+02  0.7546771E-02  0.1290143E+00
         21   -1    0    0  503  502  0.00000000000E+00  0.00000000000E+00  0.16311661581E+03  0.16311661581E+03  0.00000000000E+00 0. -1.
         -3   -1    0    0    0  501 -0.00000000000E+00 -0.00000000000E+00 -0.23888555593E+03  0.23888555593E+03  0.00000000000E+00 0.  1.
         21    1    1    2  503  504 -0.32215175592E+02  0.85249038462E+01  0.12671054482E+02  0.35651748144E+02  0.00000000000E+00 0.  1.
         21    1    1    2  504  501 -0.24515708620E+02 -0.23829540881E+02 -0.12677637511E+02  0.36463536315E+02  0.00000000000E+00 0.  1.
         21    1    1    2  505  502  0.10958252612E+03  0.51977084092E+02  0.90686509703E+02  0.15143972512E+03  0.00000000000E+00 0. -1.
         -3    1    1    2    0  505 -0.52851641910E+02 -0.36672447057E+02 -0.16644886679E+03  0.17844716216E+03  0.00000000000E+00 0.  1.
<scales pt_clust_3="33.32404" pt_clust_4="35.74101" pt_clust_5="95.46004" pt_clust_6="14000.00000"></scales>
<clustering>
<clus scale="   33.324">  1  3  2 -1</clus>
<clus scale="   35.741">  2  4  1 -1</clus>
<clus scale="   95.460">  1  5  2 -1</clus>
<clus scale="   33.324">  1  3  2 -1</clus>
</clustering>
</event>
<event>
 6    0  0.1849053E+002  0.1074996E+03  0.7546771E-02  0.1265272E+00
         21   -1    0    0  504  502  0.00000000000E+00  0.00000000000E+00  0.65558911388E+03  0.65558911388E+03  0.00000000000E+00 0.  1.
          1   -1    0    0  503    0 -0.00000000000E+00 -0.00000000000E+00 -0.83955181487E+02  0.83955181487E+02  0.00000000000E+00 0.  1.
         21    1    1    2  503  505  0.61002502687E+02  0.51944193721E+02  0.21906989838E+03  0.23326192354E+03  0.00000000000E+00 0.  1.
         21    1    1    2  504  501  0.22142741764E+02 -0.26964440032E+02  0.45891628160E+02  0.57649142008E+02  0.00000000000E+00 0.  1.
         21    1    1    2  505  502 -0.49833991343E+01  0.56961835705E+02  0.32838733691E+03  0.33332825869E+03  0.00000000000E+00 0.  1.
          1    1    1    2  501    0 -0.78161845317E+02 -0.81941589394E+02 -0.21714931068E+02  0.11530497113E+03  0.00000000000E+00 0.  1.
<scales pt_clust_3="107.49955" pt_clust_4="34.89100" pt_clust_5="42.78842" pt_clust_6="14000.00000"></scales>
<clustering>
<clus scale="   34.891">  1  4  2 -1</clus>
<clus scale="   42.788">  1  5  2 -1</clus>
<clus scale="  107.500">  1  3  2 -1</clus>
<clus scale="   34.891">  1  3  2 -1</clus>
</clustering>
</event>
<event>
 6    0  0.1849053E+002  0.1947100E+03  0.7546771E-02  0.1154281E+00
         21   -1    0    0  503  502  0.00000000000E+00  0.00000000000E+00  0.13753582389E+03  0.13753582389E+03  0.00000000000E+00 0. -1.
         -2   -1    0    0    0  501 -0.00000000000E+00 -0.00000000000E+00 -0.10526485950E+04  0.10526485950E+04  0.00000000000E+00 0. -1.
         21    1    1    2  503  505  0.60967015106E+02  0.14560547735E+02  0.51995805826E+02  0.81440470927E+02  0.00000000000E+00 0. -1.
         21    1    1    2  504  501  0.63267082665E-01 -0.38963633632E+02 -0.97396892180E+02  0.10490149358E+03  0.00000000000E+00 0.  1.
         21    1    1    2  505  504  0.90762230199E+02  0.80083865199E+02 -0.18581025639E+01  0.12105643494E+03  0.00000000000E+00 0. -1.
         -2    1    1    2    0  502 -0.15179251239E+03 -0.55680779302E+02 -0.86785358217E+03  0.88278601942E+03  0.00000000000E+00 0. -1.
<scales pt_clust_3="58.40596" pt_clust_4="38.96368" pt_clust_5="58.40596" pt_clust_6="177.20075"></scales>
<clustering>
<clus scale="   38.964">  2  4  1 -1</clus>
<clus scale="   58.406">  3  5 -1 -1</clus>
<clus scale="  177.201">  2  6  1 -1</clus>
<clus scale="  194.710">  1  3  2 -1</clus>
</clustering>
</event>
<event>
 6    0  0.1849053E+002  0.1039500E+03  0.7546771E-02  0.1272202E+00
         -1   -1    0    0    0  501 -0.00000000000E+00  0.00000000000E+00  0.92894345449E+03  0.92894345449E+03  0.00000000000E+00 0. -1.
         21   -1    0    0  504  502  0.00000000000E+00 -0.00000000000E+00 -0.17330223686E+03  0.17330223686E+03  0.00000000000E+00 0. -1.
         21    1    1    2  503  501  0.53533148865E+02  0.21297219540E+02  0.29925582073E+03  0.30475140004E+03  0.00000000000E+00 0.  1.
         21    1    1    2  504  503 -0.69033002444E+02  0.13289025598E+03 -0.60367306684E+02  0.16146079176E+03  0.00000000000E+00 0. -1.
         21    1    1    2  505  502  0.22541365156E+02 -0.76242338206E+02 -0.29051896221E+02  0.84646440872E+02  0.00000000000E+00 0.  1.
         -1    1    1    2    0  505 -0.70415115775E+01 -0.77945137309E+02  0.54580459980E+03  0.55138705868E+03  0.00000000000E+00 0. -1.
<scales pt_clust_3="57.61397" pt_clust_4="103.94999" pt_clust_5="14000.00000" pt_clust_6="71.42681"></scales>
<clustering>
<clus scale="   57.614">  1  3  2 -1</clus>
<clus scale="   71.427">  1  6  2 -1</clus>
<clus scale="  103.950">  1  4  2 -1</clus>
<clus scale="  103.950">  2  3  1 -1</clus>
</clustering>
</event>
<event>
 6    0  0.1849053E+002  0.1739010E+03  0.7546771E-02  0.1173840E+00
         21   -1    0    0  501  502  0.00000000000E+00  0.00000000000E+00  0.40596186311E+02  0.40596186311E+02  0.00000000000E+00 0. -1.
          1   -1    0    0  503    0 -0.00000000000E+00 -0.00000000000E+00 -0.30494600940E+04  0.30494600940E+04  0.00000000000E+00 0. -1.
         21    1    1    2  503  505  0.17592493558E+03  0.84178085267E+02 -0.11269621175E+04  0.11437128780E+04  0.00000000000E+00 0. -1.
         21    1    1    2  504  502  0.40709134090E+02 -0.57432103804E+02 -0.19313424030E+03  0.20556389499E+03  0.00000000000E+00 0. -1.
         21    1    1    2  505  504 -0.85083734510E+02 -0.14078750288E+03 -0.30888884248E+03  0.34996096904E+03  0.00000000000E+00 0. -1.
          1    1    1    2  501    0 -0.13155033516E+03  0.11404152142E+03 -0.13798787074E+04  0.13908185383E+04  0.00000000000E+00 0. -1.
<scales pt_clust_3="14000.00000" pt_clust_4="70.39659" pt_clust_5="173.90095" pt_clust_6="163.24323"></scales>
<clustering>
<clus scale="   70.397">  1  4  2 -1</clus>
<clus scale="  163.243">  2  6  1 -1</clus>
<clus scale="  173.901">  1  5  2 -1</clus>
<clus scale="   70.397">  1  3  2 -1</clus>
</clustering>
</event>
<event>
 6    0  0.1849053E+002  0.1332927E+03  0.7546771E-02  0.1222650E+00
          2   -1    0    0  502    0 -0.00000000000E+00  0.00000000000E+00  0.26757868742E+04  0.26757868742E+04  0.00000000000E+00 0. -1.
         21   -1    0    0  503  502  0.00000000000E+00 -0.00000000000E+00 -0.42906043170E+03  0.42906043170E+03  0.00000000000E+00 0.  1.
         21    1    1    2  503  505 -0.48292430382E+02 -0.71076499254E+02 -0.32657455278E+03  0.33769063668E+03  0.00000000000E+00 0.  1.
         21    1    1    2  504  501  0.40028139635E+02  0.18100696955E+02  0.14188278886E+04  0.14195078248E+04  0.00000000000E+00 0. -1.
         21    1    1    2  505  504 -0.37914328846E+02 -0.13965266208E+02 -0.90977420224E+02  0.99546049559E+02  0.00000000000E+00 0.  1.
          2    1    1    2  501    0  0.46178619592E+02  0.66941068507E+02  0.12454505270E+04  0.12481027949E+04  0.00000000000E+00 0. -1.
<scales pt_clust_3="129.71611" pt_clust_4="40.94316" pt_clust_5="31.88790" pt_clust_6="40.94316"></scales>
<clustering>
<clus scale="   31.888">  3  5 -1 -1</clus>
<clus scale="   40.943">  4  6 -1 -1</clus>
<clus scale="  129.716">  2  3  1 -1</clus>
<clus scale="  129.716">  2  3  1 -1</clus>
</clustering>
</event>
<event>
 6    0  0.1849053E+002  0.1560504E+03  0.7546771E-02  0.1193229E+00
         -2   -1    0    0    0  501 -0.00000000000E+00  0.00000000000E+00  0.21596685560E+03  0.21596685560E+03  0.00000000000E+00 0.  1.
         21   -1    0    0  504  502  0.00000000000E+00 -0.00000000000E+00 -0.72023975365E+03  0.72023975365E+03  0.00000000000E+00 0.  1.
         21    1    1    2  503  501 -0.45339456210E+02  0.12137151894E+02  0.76897122178E+01  0.47561627595E+02  0.00000000000E+00 0.  1.
         21    1    1    2  504  503  0.30256226905E+01  0.80415788772E+02 -0.21117574557E+03  0.22598904618E+03  0.00000000000E+00 0.  1.
         21    1    1    2  505  502  0.58738228495E+01 -0.22981804092E+03 -0.41896747155E+03  0.47789598863E+03  0.00000000000E+00 0.  1.
         -2    1    1    2    0  505  0.36440010670E+02  0.13726510025E+03  0.11818060685E+03  0.18475994685E+03  0.00000000000E+00 0.  1.
<scales pt_clust_3="46.93588" pt_clust_4="80.90263" pt_clust_5="14000.00000" pt_clust_6="156.05035"></scales>
<clustering>
<clus scale="   46.936">  1  3  2 -1</clus>
<clus scale="   80.903">  2  4  1 -1</clus>
<clus scale="  156.050">  1  6  2 -1</clus>
<clus scale="   80.903">  2  3  1 -1</clus>
</clustering>
</event>
<event>
 6    0  0.1849053E+002  0.3121016E+03  0.7546771E-02  0.1079343E+00
          2   -1    0    0  505    0 -0.00000000000E+00  0.00000000000E+00  0.14579160669E+04  0.14579160669E+04  0.00000000000E+00 0. -1.
         21   -1    0    0  504  502  0.00000000000E+00 -0.00000000000E+00 -0.29843662041E+03  0.29843662041E+03  0.00000000000E+00 0. -1.
         21    1    1    2  503  502  0.64817383380E+02 -0.54731658562E+02 -0.62347415964E+02  0.10528080506E+03  0.00000000000E+00 0. -1.
         21    1    1    2  504  501 -0.89088820637E+02  0.32397886833E+03  0.42022032813E+03  0.53803740508E+03  0.00000000000E+00 0. -1.
         21    1    1    2  505  503  0.12908588654E+03 -0.18013193770E+03 -0.68627716712E+02  0.23199233734E+03  0.00000000000E+00 0. -1.
          2    1    1    2  501    0 -0.10481444928E+03 -0.89115272065E+02  0.87023425104E+03  0.88104213984E+03  0.00000000000E+00 0. -1.
<scales pt_clust_3="38.33696" pt_clust_4="305.88901" pt_clust_5="38.33696" pt_clust_6="137.57762"></scales>
<clustering>
<clus scale="   38.337">  3  5 -1 -1</clus>
<clus scale="  137.578">  1  6  2 -1</clus>
<clus scale="  305.889">  1  4  2 -1</clus>
<clus scale="  312.102">  2  3  1 -1</clus>
</clustering>
</event>
<event>
 6    0  0.1849053E+002  0.8552410E+02  0.7546771E-02  0.1314068E+00
         21   -1    0    0  503  502  0.00000000000E+00  0.00000000000E+00  0.34611864746E+03  0.34611864746E+03  0.00000000000E+00 0.  1.
          2   -1    0    0  504    0 -0.00000000000E+00 -0.00000000000E+00 -0.18562292766E+03  0.18562292766E+03  0.00000000000E+00 0.  1.
         21    1    1    2  503  501  0.33125887242E+02 -0.97634596304E+02  0.12885177644E+03  0.16502308655E+03  0.00000000000E+00 0.  1.
         21    1    1    2  504  505 -0.27451907356E+02  0.90251564412E+02 -0.47104831685E+02  0.10544106062E+03  0.00000000000E+00 0.  1.
         21    1    1    2  505  502 -0.47712458905E+02  0.61514233042E+02  0.14587198406E+03  0.16534544244E+03  0.00000000000E+00 0.  1.
          2    1    1    2  501    0  0.42038479019E+02 -0.54131201150E+02 -0.67123209019E+02  0.95931985517E+02  0.00000000000E+00 0.  1.
<scales pt_clust_3="14000.00000" pt_clust_4="50.69928" pt_clust_5="85.52410" pt_clust_6="68.53773"></scales>
<clustering>
<clus scale="   68.538">  2  6  1 -1</clus>
<clus scale="   50.699">  2  4  1 -1</clus>
<clus scale="   85.524">  1  5  2 -1</clus>
<clus scale="   85.524">  1  3  2 -1</clus>
</clustering>
</event>
<event>
 6    0  0.1849053E+002  0.1271233E+03  0.7546771E-02  0.1231788E+00
          3   -1    0    0  505    0 -0.00000000000E+00  0.00000000000E+00  0.23804957906E+03  0.23804957906E+03  0.00000000000E+00 0. -1.
         21   -1    0    0  504  502  0.00000000000E+00 -0.00000000000E+00 -0.98075852236E+03  0.98075852236E+03  0.00000000000E+00 0. -1.
         21    1    1    2  503  502 -0.41877695667E+02 -0.10119160515E+03 -0.62734918620E+03  0.63683630846E+03  0.00000000000E+00 0. -1.
         21    1    1    2  504  501  0.74605010774E+02  0.43147320269E+02 -0.69866603027E+02  0.11094566732E+03  0.00000000000E+00 0.  1.
         21    1    1    2  505  503 -0.33313391713E+02 -0.60146845149E+02 -0.23656439481E+03  0.24635368465E+03  0.00000000000E+00 0. -1.
          3    1    1    2  501    0  0.58607660570E+00  0.11819113003E+03  0.19107124074E+03  0.22467244099E+03  0.00000000000E+00 0. -1.
<scales pt_clust_3="35.38283" pt_clust_4="86.18352" pt_clust_5="35.38283" pt_clust_6="119.02200"></scales>
<clustering>
<clus scale="   35.383">  3  5 -1 -1</clus>
<clus scale="   86.184">  2  4  1 -1</clus>
<clus scale="  119.022">  1  6  2 -1</clus>
<clus scale="   86.184">  2  3  1 -1</clus>
</clustering>
</event>
<event>
 6    0  0.1849053E+002  0.1192066E+03  0.7546771E-02  0.1244412E+00
         21   -1    0    0  504  502  0.00000000000E+00  0.00000000000E+00  0.35125182008E+02  0.35125182008E+02  0.00000000000E+00 0. -1.
          2   -1    0    0  505    0 -0.00000000000E+00 -0.00000000000E+00 -0.18114188852E+04  0.18114188852E+04  0.00000000000E+00 0.  1.
         21    1    1    2  503  502  0.32877618998E+02 -0.10345353084E+03 -0.29220802468E+03  0.31171958643E+03  0.00000000000E+00 0. -1.
         21    1    1    2  504  501 -0.24780921998E+02  0.12291313891E+03 -0.14495424507E+03  0.19165976879E+03  0.00000000000E+00 0. -1.
         21    1    1    2  505  503  0.20753222291E+02 -0.48627892306E+02 -0.45139686295E+03  0.45448266857E+03  0.00000000000E+00 0. -1.
          2    1    1    2  501    0 -0.28849919291E+02  0.29168284241E+02 -0.88773457053E+03  0.88868204346E+03  0.00000000000E+00 0.  1.
<scales pt_clust_3="119.20655" pt_clust_4="14000.00000" pt_clust_5="34.94625" pt_clust_6="41.02568"></scales>
<clustering>
<clus scale="   41.026">  2  6  1 -1</clus>
<clus scale="   34.946">  2  5  1 -1</clus>
<clus scale="  119.207">  2  3  1 -1</clus>
<clus scale="  119.207">  1  3  2 -1</clus>
</clustering>
</event>
<event>
 6    0  0.1849053E+002  0.1218898E+03  0.7546771E-02  0.1240012E+00
         21   -1    0    0  503  502  0.00000000000E+00  0.00000000000E+00  0.12369454015E+03  0.12369454015E+03  0.00000000000E+00 0.  1.
         -3   -1    0    0    0  501 -0.00000000000E+00 -0.00000000000E+00 -0.36794997815E+03  0.36794997815E+03  0.00000000000E+00 0. -1.
         21    1    1    2  503  501 -0.47651077286E+01  0.47468369316E+02  0.53249166255E+02  0.71494237838E+02  0.00000000000E+00 0.  1.
         21    1    1    2  504  505 -0.34955753301E+02 -0.24114470106E+02 -0.13883782507E+03  0.14518730670E+03  0.00000000000E+00 0. -1.
         21    1    1    2  505  502  0.46042562889E+02  0.61185451330E+02  0.18307049667E+02  0.78731982824E+02  0.00000000000E+00 0.  1.
         -3    1    1    2    0  504 -0.63217018593E+01 -0.84539350540E+02 -0.17697382886E+03  0.19623099094E+03  0.00000000000E+00 0. -1.
<scales pt_clust_3="47.70694" pt_clust_4="40.78083" pt_clust_5="107.41114" pt_clust_6="40.78083"></scales>
<clustering>
<clus scale="   40.781">  4  6 -1 -1</clus>
<clus scale="   47.707">  1  3  2 -1</clus>
<clus scale="  107.411">  1  5  2 -1</clus>
<clus scale="   47.707">  1  3  2 -1</clus>
</clustering>
</event>
<event>
 6    0  0.1849053E+002  0.1142656E+03  0.7546771E-02  0.1252869E+00
         21   -1    0    0  501  502  0.00000000000E+00  0.00000000000E+00  0.46405467800E+02  0.46405467800E+02  0.00000000000E+00 0. -1.
          2   -1    0    0  504    0 -0.00000000000E+00 -0.00000000000E+00 -0.17227979592E+04  0.17227979592E+04  0.00000000000E+00 0. -1.
         21    1    1    2  503  502 -0.59478970051E+01 -0.32949902042E+02  0.45598341081E+01  0.33791502045E+02  0.00000000000E+00 0. -1.
         21    1    1    2  504  505  0.14135986102E+02 -0.63213372766E+02 -0.56545003497E+03  0.56914804633E+03  0.00000000000E+00 0. -1.
         21    1    1    2  505  503 -0.30111318382E+02 -0.77770588087E+02 -0.78443083886E+02  0.11449136769E+03  0.00000000000E+00 0. -1.
          2    1    1    2  501    0  0.21923229285E+02  0.17393386289E+03 -0.10370592066E+04  0.10517725109E+04  0.00000000000E+00 0. -1.
<scales pt_clust_3="33.48244" pt_clust_4="66.87583" pt_clust_5="14000.00000" pt_clust_6="114.26559"></scales>
<clustering>
<clus scale="   33.482">  1  3  2 -1</clus>
<clus scale="   66.876">  2  4  1 -1</clus>
<clus scale="  114.266">  2  6  1 -1</clus>
<clus scale="   33.482">  1  3  2 -1</clus>
</clustering>
</event>
<event>
 6    0  0.1849053E+002  0.1607129E+03  0.7546771E-02  0.1187894E+00
         21   -1    0    0  505  502  0.00000000000E+00  0.00000000000E+00  0.58377413500E+02  0.58377413500E+02  0.00000000000E+00 0.  1.
          1   -1    0    0  503    0 -0.00000000000E+00 -0.00000000000E+00 -0.58803597762E+03  0.58803597762E+03  0.00000000000E+00 0.  1.
         21    1    1    2  503  504 -0.83183224262E+02  0.60763162570E+01 -0.80699123946E+02  0.11605481043E+03  0.00000000000E+00 0.  1.
         21    1    1    2  504  502 -0.54228881755E+02  0.46496241332E+02 -0.22307330038E+02  0.74835078993E+02  0.00000000000E+00 0.  1.
         21    1    1    2  505  501  0.23958206307E+02 -0.34100912387E+02 -0.78360822209E+02  0.88754077835E+02  0.00000000000E+00 0.  1.
          1    1    1    2  501    0  0.11345389971E+03 -0.18471645202E+02 -0.34829128793E+03  0.36676942387E+03  0.00000000000E+00 0.  1.
<scales pt_clust_3="59.85218" pt_clust_4="59.85218" pt_clust_5="37.23334" pt_clust_6="159.59210"></scales>
<clustering>
<clus scale="   37.233">  5  6 -1 -1</clus>
<clus scale="   59.852">  3  4 -1 -1</clus>
<clus scale="  159.592">  2  5  1 -1</clus>
<clus scale="  160.713">  1  3  2 -1</clus>
</clustering>
</event>
<event>
 6    0  0.1849053E+002  0.1106670E+03  0.7546771E-02  0.1259340E+00
          2   -1    0    0  505    0 -0.00000000000E+00  0.00000000000E+00  0.18566373775E+04  0.18566373775E+04  0.00000000000E+00 0. -1.
         21   -1    0    0  503  502  0.00000000000E+00 -0.00000000000E+00 -0.22730416366E+03  0.22730416366E+03  0.00000000000E+00 0. -1.
         21    1    1    2  503  504  0.24895040802E+02  0.22205131621E+02 -0.27364369288E+02  0.43146722162E+02  0.00000000000E+00 0. -1.
         21    1    1    2  504  501  0.85207458291E+02 -0.31572189604E+01 -0.17972335866E+03  0.19892401722E+03  0.00000000000E+00 0. -1.
         21    1    1    2  505  502 -0.28083740623E+02 -0.44755047691E+02  0.53065456825E+03  0.53327852159E+03  0.00000000000E+00 0. -1.
          2    1    1    2  501    0 -0.82018758469E+02  0.25707135031E+02  0.13057663735E+04  0.13085922802E+04  0.00000000000E+00 0. -1.
<scales pt_clust_3="33.35912" pt_clust_4="110.66700" pt_clust_5="52.61779" pt_clust_6="14000.00000"></scales>
<clustering>
<clus scale="   33.359">  2  3  1 -1</clus>
<clus scale="   52.618">  1  5  2 -1</clus>
<clus scale="  110.667">  2  4  1 -1</clus>
<clus scale="   33.359">  2  3  1 -1</clus>
</clustering>
</event>
<event>
 6    0  0.1849053E+002  0.1368753E+03  0.7546771E-02  0.1217596E+00
         -3   -1    0    0    0  501 -0.00000000000E+00  0.00000000000E+00  0.44284294447E+03  0.44284294447E+03  0.00000000000E+00 0. -1.
         21   -1    0    0  505  502  0.00000000000E+00 -0.00000000000E+00 -0.76882427528E+03  0.76882427528E+03  0.00000000000E+00 0.  1.
         21    1    1    2  503  504  0.49204769350E+02  0.10701418972E+03 -0.76205213720E+02  0.14028678029E+03  0.00000000000E+00 0. -1.
         21    1    1    2  504  502  0.17487350837E+02 -0.25022314675E+02 -0.38646641358E+03  0.38767023680E+03  0.00000000000E+00 0.  1.
         21    1    1    2  505  501  0.53462550514E+02 -0.80484652927E+01 -0.25849888341E+03  0.26409220895E+03  0.00000000000E+00 0.  1.
         -3    1    1    2    0  503 -0.12015467070E+03 -0.73943409748E+02  0.39518917991E+03  0.41961799372E+03  0.00000000000E+00 0. -1.
<scales pt_clust_3="14000.00000" pt_clust_4="30.52742" pt_clust_5="70.10793" pt_clust_6="136.87534"></scales>
<clustering>
<clus scale="   30.527">  2  4  1 -1</clus>
<clus scale="   70.108">  2  5  1 -1</clus>
<clus scale="  136.875">  1  6  2 -1</clus>
<clus scale="   30.527">  2  3  1 -1</clus>
</clustering>
</event>
<event>
 6    0  0.1849053E+002  0.8955227E+02  0.7546771E-02  0.1303940E+00
          4   -1    0    0  503    0 -0.00000000000E+00  0.00000000000E+00  0.34343484370E+03  0.34343484370E+03  0.00000000000E+00 0.  1.
         21   -1    0    0  504  502  0.00000000000E+00 -0.00000000000E+00 -0.42444272623E+03  0.42444272623E+03  0.00000000000E+00 0.  1.
         21    1    1    2  503  502  0.40860809027E+02 -0.23201901534E+02  0.23928783763E+02  0.52730642339E+02  0.00000000000E+00 0.  1.
         21    1    1    2  504  505 -0.59782951084E+01 -0.93914467682E+02 -0.37035921966E+03  0.38212775199E+03  0.00000000000E+00 0.  1.
         21    1    1    2  505  501 -0.17252690139E+01  0.63671314160E+02  0.36525169624E+01  0.63799323508E+02  0.00000000000E+00 0. -1.
          4    1    1    2  501    0 -0.33157244905E+02  0.53445055056E+02  0.26177003640E+03  0.26921985209E+03  0.00000000000E+00 0.  1.
<scales pt_clust_3="46.98866" pt_clust_4="89.55227" pt_clust_5="14000.00000" pt_clust_6="33.34174"></scales>
<clustering>
<clus scale="   46.989">  1  3  2 -1</clus>
<clus scale="   33.342">  1  6  2 -1</clus>
<clus scale="   89.552">  2  4  1 -1</clus>
<clus scale="   89.552">  2  3  1 -1</clus>
</clustering>
</event>
<event>
 6    0  0.1849053E+002  0.1021442E+03  0.7546771E-02  0.1275851E+00
         21   -1    0    0  503  502  0.00000000000E+00  0.00000000000E+00  0.30515636882E+03  0.30515636882E+03  0.00000000000E+00 0.  1.
          2   -1    0    0  504    0 -0.00000000000E+00 -0.00000000000E+00 -0.59752804225E+03  0.59752804225E+03  0.00000000000E+00 0. -1.
         21    1    1    2  503  505  0.75209615192E+02 -0.78098899010E+02  0.23659582605E+03  0.26025662171E+03  0.00000000000E+00 0.  1.
         21    1    1    2  504  502  0.38971442406E+02  0.92485703015E+01 -0.11982039023E+03  0.12633778252E+03  0.00000000000E+00 0. -1.
         21    1    1    2  505  501 -0.93528397868E+02  0.14896681044E+02  0.79226440667E+01  0.95038100795E+02  0.00000000000E+00 0. -1.
          2    1    1    2  501    0 -0.20652659731E+02  0.53953647664E+02 -0.41706975332E+03  0.42105190604E+03  0.00000000000E+00 0. -1.
<scales pt_clust_3="102.14420" pt_clust_4="40.05383" pt_clust_5="14000.00000" pt_clust_6="63.63017"></scales>
<clustering>
<clus scale="   40.054">  2  4  1 -1</clus>
<clus scale="   63.630">  2  6  1 -1</clus>
<clus scale="  102.144">  1  3  2 -1</clus>
<clus scale="  102.144">  1  3  2 -1</clus>
</clustering>
</event>
<event>
 6    0  0.1849053E+002  0.1179773E+03  0.7546771E-02  0.1246472E+00
         21   -1    0    0  501  502  0.00000000000E+00  0.00000000000E+00  0.26477732604E+02  0.26477732604E+02  0.00000000000E+00 0.  1.
          1   -1    0    0  504    0 -0.00000000000E+00 -0.00000000000E+00 -0.90002421428E+03  0.90002421428E+03  0.00000000000E+00 0. -1.
         21    1    1    2  503  502  0.25438664461E+02 -0.30859216725E+02 -0.29797176417E+02  0.49872724298E+02  0.00000000000E+00 0.  1.
         21    1    1    2  504  505 -0.28049719114E+02 -0.21255669081E+02 -0.18064956833E+03  0.18404580068E+03  0.00000000000E+00 0. -1.
         21    1    1    2  505  503  0.63108944665E+02 -0.37765371664E+02 -0.13750236644E+03  0.15593544488E+03  0.00000000000E+00 0.  1.
          1    1    1    2  501    0 -0.60497890013E+02  0.89880257470E+02 -0.52559737049E+03  0.53664797702E+03  0.00000000000E+00 0. -1.
<scales pt_clust_3="31.44063" pt_clust_4="35.19361" pt_clust_5="31.44063" pt_clust_6="110.00357"></scales>
<clustering>
<clus scale="   31.441">  3  5 -1 -1</clus>
<clus scale="   35.194">  2  4  1 -1</clus>
<clus scale="  110.004">  2  6  1 -1</clus>
<clus scale="  117.977">  1  3  2 -1</clus>
</clustering>
</event>
<event>
 6    0  0.1849053E+002  0.4971658E+03  0.7546771E-02  0.1014521E+00
         21   -1    0    0  504  502  0.00000000000E+00  0.00000000000E+00  0.22478638365E+03  0.22478638365E+03  0.00000000000E+00 0.  1.
          1   -1    0    0  502    0 -0.00000000000E+00 -0.00000000000E+00 -0.18233241298E+04  0.18233241298E+04  0.00000000000E+00 0.  1.
         21    1    1    2  503  505  0.14506122630E+03 -0.14144506830E+02 -0.56239148784E+02  0.15622313626E+03  0.00000000000E+00 0.  1.
         21    1    1    2  504  503  0.34834053259E+03  0.28591980134E+02 -0.95901245105E+02  0.36243023713E+03  0.00000000000E+00 0.  1.
         21    1    1    2  505  501 -0.11003946637E+03  0.12879392064E+02 -0.38471306532E+03  0.40034823032E+03  0.00000000000E+00 0. -1.
          1    1    1    2  501    0 -0.38336229252E+03 -0.27326865369E+02 -0.10616842869E+04  0.11291089097E+04  0.00000000000E+00 0.  1.
<scales pt_clust_3="30.29300" pt_clust_4="495.83729" pt_clust_5="31.85346" pt_clust_6="31.85346"></scales>
<clustering>
<clus scale="   30.293">  3  4 -1 -1</clus>
<clus scale="   31.853">  5  6 -1 -1</clus>
<clus scale="  495.837">  1  3  2 -1</clus>
<clus scale="  495.837">  1  3  2 -1</clus>
</clustering>
</event>
<event>
 6    0  0.1849053E+002  0.2750293E+03  0.7546771E-02  0.1098435E+00
         21   -1    0    0  504  502  0.00000000000E+00  0.00000000000E+00  0.57897896506E+03  0.57897896506E+03  0.00000000000E+00 0. -1.
         -1   -1    0    0    0  501 -0.00000000000E+00 -0.00000000000E+00 -0.40407322120E+03  0.40407322120E+03  0.00000000000E+00 0.  1.
         21    1    1    2  503  502 -0.37974331537E+02  0.30068044439E+03  0.39702450553E+03  0.49947896601E+03  0.00000000000E+00 0. -1.
         21    1    1    2  504  501  0.32231184723E+02 -0.59888275128E+02  0.62105623890E+02  0.92100832163E+02  0.00000000000E+00 0.  1.
         21    1    1    2  505  503 -0.55016722041E+02 -0.80785393654E+02 -0.94475239082E+02  0.13593634662E+03  0.00000000000E+00 0.  1.
         -1    1    1    2    0  505  0.60759868856E+02 -0.16000677561E+03 -0.18974914647E+03  0.25553604147E+03  0.00000000000E+00 0.  1.
<scales pt_clust_3="247.36172" pt_clust_4="68.01070" pt_clust_5="90.30578" pt_clust_6="90.30578"></scales>
<clustering>
<clus scale="   68.011">  1  4  2 -1</clus>
<clus scale="   90.306">  5  6 -1 -1</clus>
<clus scale="  247.362">  1  3  2 -1</clus>
<clus scale="   68.011">  1  3  2 -1</clus>
</clustering>
</event>
<event>
 6    0  0.1849053E+002  0.1241965E+03  0.7546771E-02  0.1236330E+00
         21   -1    0    0  504  502  0.00000000000E+00  0.00000000000E+00  0.41903149371E+02  0.41903149371E+02  0.00000000000E+00 0. -1.
          1   -1    0    0  505    0 -0.00000000000E+00 -0.00000000000E+00 -0.26123572348E+04  0.26123572348E+04  0.00000000000E+00 0. -1.
         21    1    1    2  503  502  0.32408282311E+02 -0.13193621451E+02 -0.11903463358E+03  0.12407099742E+03  0.00000000000E+00 0.  1.
         21    1    1    2  504  501 -0.12413661640E+03 -0.73617911626E+02 -0.10332148617E+03  0.17749598854E+03  0.00000000000E+00 0. -1.
         21    1    1    2  505  503  0.17942155716E+02  0.25843337505E+02 -0.19958494162E+03  0.20204937012E+03  0.00000000000E+00 0.  1.
          1    1    1    2  501    0  0.73786178375E+02  0.60968195572E+02 -0.21485130241E+04  0.21506440281E+04  0.00000000000E+00 0. -1.
<scales pt_clust_3="35.37129" pt_clust_4="124.19647" pt_clust_5="31.46107" pt_clust_6="14000.00000"></scales>
<clustering>
<clus scale="   31.461">  2  5  1 -1</clus>
<clus scale="   35.371">  1  3  2 -1</clus>
<clus scale="  124.196">  1  4  2 -1</clus>
<clus scale="   35.371">  1  3  2 -1</clus>
</clustering>
</event>
<event>
 6    0  0.1849053E+002  0.7101103E+02  0.7546771E-02  0.1356688E+00
         21   -1    0    0  501  502  0.00000000000E+00  0.00000000000E+00  0.30855979036E+03  0.30855979036E+03  0.00000000000E+00 0. -1.
          2   -1    0    0  504    0 -0.00000000000E+00 -0.00000000000E+00 -0.68840999599E+02  0.68840999599E+02  0.00000000000E+00 0. -1.
         21    1    1    2  503  502  0.57003514161E+02  0.17798744639E+02  0.46485280687E+02  0.75677455414E+02  0.00000000000E+00 0.  1.
         21    1    1    2  504  505 -0.36483606252E+02  0.42401097365E+02  0.22241623835E+02  0.60196315616E+02  0.00000000000E+00 0. -1.
         21    1    1    2  505  503 -0.41833883139E+02 -0.89127180384E+02  0.40985900362E+02  0.10664695068E+03  0.00000000000E+00 0. -1.
          2    1    1    2  501    0  0.21313975230E+02  0.28927338380E+02  0.13000598587E+03  0.13488006824E+03  0.00000000000E+00 0. -1.
<scales pt_clust_3="71.01103" pt_clust_4="58.39324" pt_clust_5="14000.00000" pt_clust_6="35.93155"></scales>
<clustering>
<clus scale="   35.932">  1  6  2 -1</clus>
<clus scale="   58.393">  2  4  1 -1</clus>
<clus scale="   71.011">  1  3  2 -1</clus>
<clus scale="   35.932">  1  3  2 -1</clus>
</clustering>
</event>
<event>
 6    0  0.1849053E+002  0.1823647E+03  0.7546771E-02  0.1165534E+00
         21   -1    0    0  503  502  0.00000000000E+00  0.00000000000E+00  0.13803142017E+04  0.13803142017E+04  0.00000000000E+00 0. -1.
          1   -1    0    0  504    0 -0.00000000000E+00 -0.00000000000E+00 -0.26021047448E+03  0.26021047448E+03  0.00000000000E+00 0.  1.
         21    1    1    2  503  505  0.30146530151E+02 -0.78402817235E+02  0.85218434351E+03  0.85631417736E+03  0.00000000000E+00 0. -1.
         21    1    1    2  504  502  0.30022084432E+01 -0.58481429643E+02 -0.11730051003E+03  0.13110492181E+03  0.00000000000E+00 0.  1.
         21    1    1    2  505  501  0.51561054537E+02 -0.96547985593E+02  0.38965811105E+03  0.40473880389E+03  0.00000000000E+00 0. -1.
          1    1    1    2  501    0 -0.84709793132E+02  0.23343223247E+03 -0.44382173272E+01  0.24836677310E+03  0.00000000000E+00 0.  1.
<scales pt_clust_3="84.84444" pt_clust_4="58.55844" pt_clust_5="14000.00000" pt_clust_6="182.36472"></scales>
<clustering>
<clus scale="   58.558">  2  4  1 -1</clus>
<clus scale="   84.844">  1  3  2 -1</clus>
<clus scale="  182.365">  2  6  1 -1</clus>
<clus scale="   84.844">  1  3  2 -1</clus>
</clustering>
</event>
<event>
 6    0  0.1849053E+002  0.1425304E+03  0.7546771E-02  0.1209964E+00
         -1   -1    0    0    0  501 -0.00000000000E+00  0.00000000000E+00  0.17555265887E+04  0.17555265887E+04  0.00000000000E+00 0.  1.
         21   -1    0    0  504  502  0.00000000000E+00 -0.00000000000E+00 -0.34326097903E+03  0.34326097903E+03  0.00000000000E+00 0.  1.
         21    1    1    2  503  505 -0.40112046490E+02 -0.20156117354E+03  0.37480101737E+03  0.42744787468E+03  0.00000000000E+00 0. -1.
         21    1    1    2  504  501 -0.95085227436E+02  0.32702345949E+02 -0.41352175624E+02  0.10872279584E+03  0.00000000000E+00 0.  1.
         21    1    1    2  505  502  0.12356805522E+03  0.98469782907E+02 -0.21501075659E+03  0.26682388923E+03  0.00000000000E+00 0.  1.
         -1    1    1    2    0  503  0.11629218707E+02  0.70389044683E+02  0.12938275245E+04  0.12957930080E+04  0.00000000000E+00 0.  1.
<scales pt_clust_3="142.53037" pt_clust_4="101.55177" pt_clust_5="14000.00000" pt_clust_6="71.34323"></scales>
<clustering>
<clus scale="   71.343">  1  6  2 -1</clus>
<clus scale="  101.552">  2  4  1 -1</clus>
<clus scale="  142.530">  1  3  2 -1</clus>
<clus scale="  101.552">  2  3  1 -1</clus>
</clustering>
</event>
<event>
 6    0  0.1849053E+002  0.7085268E+02  0.7546771E-02  0.1357217E+00
         21   -1    0    0  504  502  0.00000000000E+00  0.00000000000E+00  0.12261801964E+04  0.12261801964E+04  0.00000000000E+00 0.  1.
         -4   -1    0    0    0  501 -0.00000000000E+00 -0.00000000000E+00 -0.42504959541E+03  0.42504959541E+03  0.00000000000E+00 0. -1.
         21    1    1    2  503  502  0.39977687720E+02 -0.16186575443E+01  0.10744004308E+03  0.11464815055E+03  0.00000000000E+00 0.  1.
         21    1    1    2  504  505 -0.88958896938E+02 -0.49376591840E+02  0.11057837574E+04  0.11104546146E+04  0.00000000000E+00 0.  1.
         21    1    1    2  505  501 -0.22124096930E+02  0.23354711803E+02 -0.12161228386E+03  0.12579533304E+03  0.00000000000E+00 0.  1.
         -4    1    1    2    0  503  0.71105306148E+02  0.27640537582E+02 -0.29048091555E+03  0.30033169359E+03  0.00000000000E+00 0. -1.
<scales pt_clust_3="39.73567" pt_clust_4="14000.00000" pt_clust_5="32.17014" pt_clust_6="70.85268"></scales>
<clustering>
<clus scale="   32.170">  2  5  1 -1</clus>
<clus scale="   39.736">  1  3  2 -1</clus>
<clus scale="   70.853">  2  6  1 -1</clus>
<clus scale="   39.736">  1  3  2 -1</clus>
</clustering>
</event>
<event>
 6    0  0.1849053E+002  0.1690752E+03  0.7546771E-02  0.1178816E+00
          2   -1    0    0  503    0 -0.00000000000E+00  0.00000000000E+00  0.33997281603E+03  0.33997281603E+03  0.00000000000E+00 0. -1.
         21   -1    0    0  504  502  0.00000000000E+00 -0.00000000000E+00 -0.34492972538E+03  0.34492972538E+03  0.00000000000E+00 0.  1.
         21    1    1    2  503  505 -0.15270181870E+02  0.18879805740E+03 -0.25163072356E+03  0.31495381562E+03  0.00000000000E+00 0.  1.
         21    1    1    2  504  501  0.26013461272E+02 -0.58699963859E+02  0.61741186321E+02  0.89075024629E+02  0.00000000000E+00 0.  1.
         21    1    1    2  505  502 -0.15952358540E+01 -0.38325909909E+02 -0.28881904651E+02  0.48016503038E+02  0.00000000000E+00 0. -1.
          2    1    1    2  501    0 -0.91480435478E+01 -0.91772183630E+02  0.21381453255E+03  0.23285719812E+03  0.00000000000E+00 0. -1.
<scales pt_clust_3="154.28324" pt_clust_4="58.01892" pt_clust_5="38.35909" pt_clust_6="58.01892"></scales>
<clustering>
<clus scale="   38.359">  2  5  1 -1</clus>
<clus scale="   58.019">  4  6 -1 -1</clus>
<clus scale="  154.283">  2  3  1 -1</clus>
<clus scale="   38.359">  2  3  1 -1</clus>
</clustering>
</event>
<event>
 6    0  0.1849053E+002  0.1064145E+03  0.7546771E-02  0.1267358E+00
          4   -1    0    0  504    0 -0.00000000000E+00  0.00000000000E+00  0.17239627394E+04  0.17239627394E+04  0.00000000000E+00 0. -1.
         21   -1    0    0  503  502  0.00000000000E+00 -0.00000000000E+00 -0.74706200972E+03  0.74706200972E+03  0.00000000000E+00 0.  1.
         21    1    1    2  503  501 -0.84876093223E+01 -0.12397893749E+03 -0.44551518012E+03  0.46252199101E+03  0.00000000000E+00 0.  1.
         21    1    1    2  504  505  0.53433155928E+02 -0.56436988761E+02  0.26867393875E+03  0.27968897228E+03  0.00000000000E+00 0.  1.
         21    1    1    2  505  502 -0.21560818110E+02  0.57216910833E+02 -0.28152030459E+03  0.28808388650E+03  0.00000000000E+00 0.  1.
          4    1    1    2  501    0 -0.23384728496E+02  0.12319901542E+03  0.14352622756E+04  0.14407298993E+04  0.00000000000E+00 0. -1.
<scales pt_clust_3="73.98898" pt_clust_4="106.41445" pt_clust_5="61.14445" pt_clust_6="14000.00000"></scales>
<clustering>
<clus scale="   61.144">  2  5  1 -1</clus>
<clus scale="   73.989">  2  3  1 -1</clus>
<clus scale="  106.414">  2  4  1 -1</clus>
<clus scale="   61.144">  2  3  1 -1</clus>
</clustering>
</event>
<event>
 6    0  0.1849053E+002  0.1997761E+03  0.7546771E-02  0.1149928E+00
         21   -1    0    0  501  502  0.00000000000E+00  0.00000000000E+00  0.40838108400E+03  0.40838108400E+03  0.00000000000E+00 0. -1.
          2   -1    0    0  504    0 -0.00000000000E+00 -0.00000000000E+00 -0.19565370058E+04  0.19565370058E+04  0.00000000000E+00 0.  1.
         21    1    1    2  503  502 -0.98486245800E+02  0.69308298136E+02  0.22542982254E+03  0.25558127023E+03  0.00000000000E+00 0. -1.
         21    1    1    2  504  505  0.91687626280E+01 -0.33493539534E+02 -0.31498634227E+03  0.31689474469E+03  0.00000000000E+00 0. -1.
         21    1    1    2  505  503 -0.79244748194E+02  0.80932842859E+01  0.15244838458E+03  0.17200506192E+03  0.00000000000E+00 0.  1.
          2    1    1    2  501    0  0.16856223137E+03 -0.43908042888E+02 -0.16110477867E+04  0.16204370130E+04  0.00000000000E+00 0.  1.
<scales pt_clust_3="40.35063" pt_clust_4="34.72583" pt_clust_5="40.35063" pt_clust_6="193.52433"></scales>
<clustering>
<clus scale="   34.726">  2  4  1 -1</clus>
<clus scale="   40.351">  3  5 -1 -1</clus>
<clus scale="  193.524">  2  6  1 -1</clus>
<clus scale="  199.776">  1  3  2 -1</clus>
</clustering>
</event>
<event>
 6    0  0.1849053E+002  0.1740349E+03  0.7546771E-02  0.1173704E+00
         -1   -1    0    0    0  501 -0.00000000000E+00  0.00000000000E+00  0.58355179925E+02  0.58355179925E+02  0.00000000000E+00 0.  1.
         21   -1    0    0  504  502  0.00000000000E+00 -0.00000000000E+00 -0.18744963366E+04  0.18744963366E+04  0.00000000000E+00 0.  1.
         21    1    1    2  503  505  0.15401831953E+02  0.58846403251E+02 -0.69737994824E+03  0.70002779074E+03  0.00000000000E+00 0.  1.
         21    1    1    2  504  501  0.33700580125E+01 -0.52619577395E+02 -0.50112178492E+01  0.52964983909E+02  0.00000000000E+00 0.  1.
         21    1    1    2  505  502  0.81614283978E+02  0.83634880285E+02 -0.99014858531E+03  0.99702051410E+03  0.00000000000E+00 0.  1.
         -1    1    1    2    0  503 -0.10038617394E+03 -0.89861706141E+02 -0.12360140529E+03  0.18283822778E+03  0.00000000000E+00 0.  1.
<scales pt_clust_3="36.12712" pt_clust_4="52.72739" pt_clust_5="36.12712" pt_clust_6="166.67567"></scales>
<clustering>
<clus scale="   36.127">  3  5 -1 -1</clus>
<clus scale="   52.727">  1  4  2 -1</clus>
<clus scale="  166.676">  1  6  2 -1</clus>
<clus scale="  174.035">  2  3  1 -1</clus>
</clustering>
</event>
<event>
 6    0  0.1849053E+002  0.1058001E+03  0.7546771E-02  0.1268551E+00
         21   -1    0    0  504  502  0.00000000000E+00  0.00000000000E+00  0.30052537959E+03  0.30052537959E+03  0.00000000000E+00 0.  1.
         -1   -1    0    0    0  501 -0.00000000000E+00 -0.00000000000E+00 -0.19511809534E+03  0.19511809534E+03  0.00000000000E+00 0.  1.
         21    1    1    2  503  505  0.50891867545E+02 -0.59244820517E+02 -0.74697319563E+02  0.10807229289E+03  0.00000000000E+00 0.  1.
         21    1    1    2  504  501  0.37396697388E+02  0.57115293706E+01  0.70776456000E+01  0.38486719924E+02  0.00000000000E+00 0.  1.
         21    1    1    2  505  502 -0.10771621400E+03  0.27410450190E+02  0.24558016418E+03  0.26956211265E+03  0.00000000000E+00 0.  1.
         -1    1    1    2    0  503  0.19427649067E+02  0.26122840957E+02 -0.72553205967E+02  0.79522349463E+02  0.00000000000E+00 0.  1.
<scales pt_clust_3="105.80005" pt_clust_4="40.99456" pt_clust_5="14000.00000" pt_clust_6="32.55513"></scales>
<clustering>
<clus scale="   32.555">  2  6  1 -1</clus>
<clus scale="   40.995">  2  4  1 -1</clus>
<clus scale="  105.800">  2  3  1 -1</clus>
<clus scale="  105.800">  1  3  2 -1</clus>
</clustering>
</event>
<event>
 6    0  0.1849053E+002  0.9992905E+02  0.7546771E-02  0.1280445E+00
         21   -1    0    0  505  502  0.00000000000E+00  0.00000000000E+00  0.46973587008E+02  0.46973587008E+02  0.00000000000E+00 0. -1.
          4   -1    0    0  503    0 -0.00000000000E+00 -0.00000000000E+00 -0.77806279006E+03  0.77806279006E+03  0.00000000000E+00 0. -1.
         21    1    1    2  503  504 -0.39170095777E+02 -0.73277453016E+02 -0.17641413137E+02  0.84941750519E+02  0.00000000000E+00 0. -1.
         21    1    1    2  504  502 -0.28974591015E+02 -0.20970509895E+02 -0.52881124635E+02  0.63841229252E+02  0.00000000000E+00 0.  1.
         21    1    1    2  505  501  0.63337934134E+02  0.36255347844E+02 -0.50334507485E+03  0.50860830559E+03  0.00000000000E+00 0. -1.
          4    1    1    2  501    0  0.48067526585E+01  0.57992615067E+02 -0.15722159044E+03  0.16764509170E+03  0.00000000000E+00 0. -1.
<scales pt_clust_3="14000.00000" pt_clust_4="35.76715" pt_clust_5="99.92905" pt_clust_6="55.37095"></scales>
<clustering>
<clus scale="   35.767">  1  4  2 -1</clus>
<clus scale="   55.371">  2  6  1 -1</clus>
<clus scale="   99.929">  2  5  1 -1</clus>
<clus scale="   35.767">  1  3  2 -1</clus>
</clustering>
</event>
<event>
 6    0  0.1849053E+002  0.1201003E+03  0.7546771E-02  0.1242932E+00
          2   -1    0    0  503    0 -0.00000000000E+00  0.00000000000E+00  0.13939950488E+04  0.13939950488E+04  0.00000000000E+00 0.  1.
         21   -1    0    0  505  502  0.00000000000E+00 -0.00000000000E+00 -0.91011435249E+02  0.91011435249E+02  0.00000000000E+00 0. -1.
         21    1    1    2  503  504  0.52890097922E+01  0.34097846692E+02  0.11968867217E+03  0.12456329724E+03  0.00000000000E+00 0.  1.
         21    1    1    2  504  502  0.42483654922E+02 -0.69980168318E+02 -0.51995970684E+02  0.96982812192E+02  0.00000000000E+00 0. -1.
         21    1    1    2  505  501  0.18856688703E+02 -0.38148329715E+02  0.25568809209E+02  0.49645078037E+02  0.00000000000E+00 0.  1.
          2    1    1    2  501    0 -0.66629353417E+02  0.74030651342E+02  0.12097221029E+04  0.12138152966E+04  0.00000000000E+00 0.  1.
<scales pt_clust_3="34.50560" pt_clust_4="120.10031" pt_clust_5="41.72392" pt_clust_6="14000.00000"></scales>
<clustering>
<clus scale="   34.506">  1  3  2 -1</clus>
<clus scale="   41.724">  2  5  1 -1</clus>
<clus scale="  120.100">  2  4  1 -1</clus>
<clus scale="   41.724">  2  3  1 -1</clus>
</clustering>
</event>
<event>
 6    0  0.1849053E+002  0.1406423E+03  0.7546771E-02  0.1212467E+00
         21   -1    0    0  503  502  0.00000000000E+00  0.00000000000E+00  0.67217367109E+03  0.67217367109E+03  0.00000000000E+00 0. -1.
          1   -1    0    0  504    0 -0.00000000000E+00 -0.00000000000E+00 -0.34719289570E+04  0.34719289570E+04  0.00000000000E+00 0. -1.
         21    1    1    2  503  505 -0.44764793066E+02 -0.98888355503E+02  0.24311489242E+02  0.11123777264E+03  0.00000000000E+00 0.  1.
         21    1    1    2  504  502  0.22160965046E+01  0.83438940756E+02  0.56439386854E+03  0.57053256415E+03  0.00000000000E+00 0. -1.
         21    1    1    2  505  501  0.60335828318E+02 -0.12446274032E+03 -0.99590885854E+02  0.17043981475E+03  0.00000000000E+00 0.  1.
          1    1    1    2  501    0 -0.17787131756E+02  0.13991215507E+03 -0.32888697579E+04  0.32918924766E+04  0.00000000000E+00 0. -1.
<scales pt_clust_3="62.38515" pt_clust_4="83.46836" pt_clust_5="140.64233" pt_clust_6="14000.00000"></scales>
<clustering>
<clus scale="   83.468">  1  4  2 -1</clus>
<clus scale="   62.385">  1  3  2 -1</clus>
<clus scale="  140.642">  1  5  2 -1</clus>
<clus scale="   83.468">  1  3  2 -1</clus>
</clustering>
</event>
<event>
 6    0  0.1849053E+002  0.1249389E+03  0.7546771E-02  0.1235165E+00
         21   -1    0    0  503  502  0.00000000000E+00  0.00000000000E+00  0.35703456525E+02  0.35703456525E+02  0.00000000000E+00 0.  1.
         -2   -1    0    0    0  501 -0.00000000000E+00 -0.00000000000E+00 -0.19456971095E+04  0.19456971095E+04  0.00000000000E+00 0. -1.
         21    1    1    2  503  505  0.67709745479E+02 -0.10054386525E+03 -0.10294830278E+03  0.15903468652E+03  0.00000000000E+00 0.  1.
         21    1    1    2  504  502  0.43056660937E+02  0.31760539972E+02 -0.16659290252E+03  0.17497372123E+03  0.00000000000E+00 0.  1.
         21    1    1    2  505  501 -0.29753834728E+02 -0.76896588562E+01 -0.17231504095E+03  0.17503398205E+03  0.00000000000E+00 0.  1.
         -2    1    1    2    0  504 -0.81012571688E+02  0.76472984131E+02 -0.14681374067E+04  0.14723581762E+04  0.00000000000E+00 0. -1.
<scales pt_clust_3="124.93892" pt_clust_4="50.76776" pt_clust_5="30.73144" pt_clust_6="14000.00000"></scales>
<clustering>
<clus scale="   30.731">  2  5  1 -1</clus>
<clus scale="   50.768">  1  4  2 -1</clus>
<clus scale="  124.939">  1  3  2 -1</clus>
<clus scale="   50.768">  1  3  2 -1</clus>
</clustering>
</event>
<event>
 6    0  0.1849053E+002  0.1120047E+03  0.7546771E-02  0.1256902E+00
         -1   -1    0    0    0  501 -0.00000000000E+00  0.00000000000E+00  0.68956380567E+03  0.68956380567E+03  0.00000000000E+00 0. -1.
         21   -1    0    0  504  502  0.00000000000E+00 -0.00000000000E+00 -0.12407491959E+03  0.12407491959E+03  0.00000000000E+00 0.  1.
         21    1    1    2  503  501  0.24860500080E+02  0.20660976547E+02  0.17048809174E+03  0.17352553080E+03  0.00000000000E+00 0. -1.
         21    1    1    2  504  503 -0.10458490266E+03  0.10150278678E+03  0.11519897399E+03  0.18577303679E+03  0.00000000000E+00 0.  1.
         21    1    1    2  505  502  0.48717111441E+02 -0.94082426574E+02 -0.53315714299E+02  0.11860617745E+03  0.00000000000E+00 0.  1.
         -1    1    1    2    0  505  0.31007291138E+02 -0.28081336756E+02  0.33311753466E+03  0.33573398022E+03  0.00000000000E+00 0. -1.
<scales pt_clust_3="32.32523" pt_clust_4="112.00466" pt_clust_5="14000.00000" pt_clust_6="49.32242"></scales>
<clustering>
<clus scale="   32.325">  1  3  2 -1</clus>
<clus scale="   49.322">  1  6  2 -1</clus>
<clus scale="  112.005">  1  4  2 -1</clus>
<clus scale="  112.005">  2  3  1 -1</clus>
</clustering>
</event>
<event>
 6    0  0.1849053E+002  0.1501515E+03  0.7546771E-02  0.1200287E+00
         21   -1    0    0  503  502  0.00000000000E+00  0.00000000000E+00  0.68741284461E+03  0.68741284461E+03  0.00000000000E+00 0.  1.
          2   -1    0    0  505    0 -0.00000000000E+00 -0.00000000000E+00 -0.16753796737E+03  0.16753796737E+03  0.00000000000E+00 0.  1.
         21    1    1    2  503  501  0.42509313198E+01  0.40326379485E+02 -0.76484376086E+02  0.86568741961E+02  0.00000000000E+00 0.  1.
         21    1    1    2  504  502 -0.35225336032E+01 -0.80089723521E+02  0.45828543057E+03  0.46524435293E+03  0.00000000000E+00 0.  1.
         21    1    1    2  505  504 -0.10190790846E+02 -0.57021654895E+02  0.18593686353E+03  0.19475070876E+03  0.00000000000E+00 0.  1.
          2    1    1    2  501    0  0.94623931296E+01  0.96784998931E+02 -0.47863040770E+02  0.10838700832E+03  0.00000000000E+00 0.  1.
<scales pt_clust_3="38.51706" pt_clust_4="143.42635" pt_clust_5="33.82585" pt_clust_6="38.51706"></scales>
<clustering>
<clus scale="   33.826">  4  5 -1 -1</clus>
<clus scale="   38.517">  3  6 -1 -1</clus>
<clus scale="  143.426">  1  4  2 -1</clus>
<clus scale="  143.426">  1  3  2 -1</clus>
</clustering>
</event>
<event>
 6    0  0.1849053E+002  0.2382356E+03  0.7546771E-02  0.1120974E+00
         21   -1    0    0  504  502  0.00000000000E+00  0.00000000000E+00  0.11366907046E+03  0.11366907046E+03  0.00000000000E+00 0. -1.
          2   -1    0    0  503    0 -0.00000000000E+00 -0.00000000000E+00 -0.52153453543E+03  0.52153453543E+03  0.00000000000E+00 0. -1.
         21    1    1    2  503  505 -0.32073387891E+02 -0.17850447328E+03 -0.13065966636E+03  0.22352739789E+03  0.00000000000E+00 0. -1.
         21    1    1    2  504  501  0.59675152099E+02  0.14644304689E+03 -0.14181672240E+03  0.21241156398E+03  0.00000000000E+00 0. -1.
         21    1    1    2  505  502 -0.28717074469E+02 -0.40773150569E+02 -0.52766920140E+01  0.50149413277E+02  0.00000000000E+00 0. -1.
          2    1    1    2  501    0  0.11153102606E+01  0.72834576955E+02 -0.13011238420E+03  0.14911523074E+03  0.00000000000E+00 0. -1.
<scales pt_clust_3="237.52958" pt_clust_4="47.88603" pt_clust_5="35.72804" pt_clust_6="47.88603"></scales>
<clustering>
<clus scale="   35.728">  3  5 -1 -1</clus>
<clus scale="   47.886">  4  6 -1 -1</clus>
<clus scale="  237.530">  1  3  2 -1</clus>
<clus scale="  237.530">  1  3  2 -1</clus>
</clustering>
</event>
<event>
 6    0  0.1849053E+002  0.1569200E+03  0.7546771E-02  0.1192219E+00
         21   -1    0    0  505  502  0.00000000000E+00  0.00000000000E+00  0.12365413104E+03  0.12365413104E+03  0.00000000000E+00 0.  1.
          2   -1    0    0  504    0 -0.00000000000E+00 -0.00000000000E+00 -0.11399282238E+04  0.11399282238E+04  0.00000000000E+00 0. -1.
         21    1    1    2  503  502  0.31459278016E+01  0.10035476261E+03 -0.92673379180E+02  0.13663575831E+03  0.00000000000E+00 0. -1.
         21    1    1    2  504  503 -0.18974131972E+02 -0.44489358624E+02 -0.41133130659E+03  0.41416514157E+03  0.00000000000E+00 0. -1.
         21    1    1    2  505  501 -0.99342501344E+02  0.11354593570E+03  0.10573568425E+02  0.15123958621E+03  0.00000000000E+00 0.  1.
          2    1    1    2  501    0  0.11517070551E+03 -0.16941133969E+03 -0.52284297546E+03  0.56154186880E+03  0.00000000000E+00 0. -1.
<scales pt_clust_3="93.34025" pt_clust_4="48.36652" pt_clust_5="156.92004" pt_clust_6="14000.00000"></scales>
<clustering>
<clus scale="   48.367">  2  4  1 -1</clus>
<clus scale="   93.340">  2  3  1 -1</clus>
<clus scale="  156.920">  1  5  2 -1</clus>
<clus scale="  156.920">  1  3  2 -1</clus>
</clustering>
</event>
<event>
 6    0  0.1849053E+002  0.1099387E+03  0.7546771E-02  0.1260684E+00
         21   -1    0    0  503  502  0.00000000000E+00  0.00000000000E+00  0.18178514957E+03  0.18178514957E+03  0.00000000000E+00 0. -1.
          2   -1    0    0  505    0 -0.00000000000E+00 -0.00000000000E+00 -0.45743199793E+03  0.45743199793E+03  0.00000000000E+00 0. -1.
         21    1    1    2  503  501 -0.13484823496E+02  0.45921994944E+02  0.76411059606E+02  0.90162742385E+02  0.00000000000E+00 0. -1.
         21    1    1    2  504  502  0.28538953692E+02  0.30259455994E+02  0.58589537998E+02  0.71852908902E+02  0.00000000000E+00 0. -1.
         21    1    1    2  505  504  0.98306057268E+02 -0.29295533322E+02 -0.10020116982E+03  0.14339659550E+03  0.00000000000E+00 0.  1.
          2    1    1    2  501    0 -0.11336018746E+03 -0.46885917617E+02 -0.31044627614E+03  0.33380490071E+03  0.00000000000E+00 0. -1.
<scales pt_clust_3="67.89510" pt_clust_4="41.59455" pt_clust_5="109.93866" pt_clust_6="14000.00000"></scales>
<clustering>
<clus scale="   41.595">  1  4  2 -1</clus>
<clus scale="   67.895">  1  3  2 -1</clus>
<clus scale="  109.939">  1  5  2 -1</clus>
<clus scale="   41.595">  1  3  2 -1</clus>
</clustering>
</event>
<event>
 6    0  0.1849053E+002  0.1136599E+03  0.7546771E-02  0.1253939E+00
          2   -1    0    0  504    0 -0.00000000000E+00  0.00000000000E+00  0.95838008368E+03  0.95838008368E+03  0.00000000000E+00 0. -1.
         21   -1    0    0  503  502  0.00000000000E+00 -0.00000000000E+00 -0.10633122436E+03  0.10633122436E+03  0.00000000000E+00 0. -1.
         21    1    1    2  503  505  0.25629403003E+02  0.31589483766E+02  0.82285154563E+01  0.41502653524E+02  0.00000000000E+00 0. -1.
         21    1    1    2  504  502 -0.57057695989E+01 -0.39404708159E+02  0.18271205567E+03  0.18699995219E+03  0.00000000000E+00 0. -1.
         21    1    1    2  505  501  0.69145180034E+02  0.39104900055E+02 -0.65828185775E+02  0.10316782043E+03  0.00000000000E+00 0. -1.
          2    1    1    2  501    0 -0.89068813438E+02 -0.31289675662E+02  0.72693647397E+03  0.73304088189E+03  0.00000000000E+00 0. -1.
<scales pt_clust_3="39.58497" pt_clust_4="39.81566" pt_clust_5="14000.00000" pt_clust_6="113.65992"></scales>
<clustering>
<clus scale="   39.816">  1  4  2 -1</clus>
<clus scale="   39.585">  2  3  1 -1</clus>
<clus scale="  113.660">  1  6  2 -1</clus>
<clus scale="   39.585">  2  3  1 -1</clus>
</clustering>
</event>
<event>
 6    0  0.1849053E+002  0.1209343E+03  0.7546771E-02  0.1241564E+00
         21   -1    0    0  505  502  0.00000000000E+00  0.00000000000E+00  0.94105464586E+02  0.94105464586E+02  0.00000000000E+00 0.  1.
          1   -1    0    0  504    0 -0.00000000000E+00 -0.00000000000E+00 -0.12865039860E+04  0.12865039860E+04  0.00000000000E+00 0.  1.
         21    1    1    2  503  502 -0.44183943679E+02 -0.51464046667E+02  0.59704362797E+02  0.90362491751E+02  0.00000000000E+00 0.  1.
         21    1    1    2  504  503  0.31210516027E+02 -0.15676923062E+02 -0.12938080005E+03  0.13401213994E+03  0.00000000000E+00 0.  1.
         21    1    1    2  505  501 -0.43951705649E+02 -0.38404019322E+02 -0.50069030615E+02  0.76899473056E+02  0.00000000000E+00 0. -1.
          1    1    1    2  501    0  0.56925133301E+02  0.10554498905E+03 -0.10726530535E+04  0.10793353458E+04  0.00000000000E+00 0.  1.
<scales pt_clust_3="14000.00000" pt_clust_4="34.92653" pt_clust_5="57.66872" pt_clust_6="120.93427"></scales>
<clustering>
<clus scale="   34.927">  2  4  1 -1</clus>
<clus scale="   57.669">  1  5  2 -1</clus>
<clus scale="  120.934">  2  6  1 -1</clus>
<clus scale="   57.669">  1  3  2 -1</clus>
</clustering>
</event>
<event>
 6    0  0.1849053E+002  0.1116497E+03  0.7546771E-02  0.1257545E+00
         21   -1    0    0  505  502  0.00000000000E+00  0.00000000000E+00  0.54208993742E+03  0.54208993742E+03  0.00000000000E+00 0.  1.
          1   -1    0    0  502    0 -0.00000000000E+00 -0.00000000000E+00 -0.29618634634E+03  0.29618634634E+03  0.00000000000E+00 0.  1.
         21    1    1    2  503  501 -0.22856454771E+00 -0.84444605929E+02 -0.60655470858E+02  0.10397129343E+03  0.00000000000E+00 0.  1.
         21    1    1    2  504  503  0.60878710629E+02  0.47976881947E+02  0.41592920501E+03  0.42308994574E+03  0.00000000000E+00 0.  1.
         21    1    1    2  505  504  0.15568064207E+02  0.50147173328E+02  0.86165829190E+02  0.10090418096E+03  0.00000000000E+00 0.  1.
          1    1    1    2  501    0 -0.76218210289E+02 -0.13679449346E+02 -0.19553597225E+03  0.21031086362E+03  0.00000000000E+00 0.  1.
<scales pt_clust_3="14000.00000" pt_clust_4="111.64969" pt_clust_5="52.50813" pt_clust_6="77.04162"></scales>
<clustering>
<clus scale="   52.508">  1  5  2 -1</clus>
<clus scale="   77.042">  2  6  1 -1</clus>
<clus scale="  111.650">  1  4  2 -1</clus>
<clus scale="   52.508">  1  3  2 -1</clus>
</clustering>
</event>
<event>
 6    0  0.1849053E+002  0.1276525E+03  0.7546771E-02  0.1230981E+00
         -4   -1    0    0    0  501 -0.00000000000E+00  0.00000000000E+00  0.56157862174E+03  0.56157862174E+03  0.00000000000E+00 0. -1.
         21   -1    0    0  503  502  0.00000000000E+00 -0.00000000000E+00 -0.88452901956E+03  0.88452901956E+03  0.00000000000E+00 0.  1.
         21    1    1    2  503  501  0.75286741152E+02 -0.50795701857E+02  0.39876697946E+00  0.90821009329E+02  0.00000000000E+00 0. -1.
         21    1    1    2  504  505 -0.45650245629E+02 -0.16131142705E+01 -0.22206275679E+03  0.22671218542E+03  0.00000000000E+00 0.  1.
         21    1    1    2  505  502 -0.68264361014E+02 -0.40863352268E+02 -0.60735027250E+03  0.61253913348E+03  0.00000000000E+00 0.  1.
         -4    1    1    2    0  504  0.38627865490E+02  0.93272168395E+02  0.50606386449E+03  0.51603531307E+03  0.00000000000E+00 0. -1.
<scales pt_clust_3="90.82013" pt_clust_4="30.64803" pt_clust_5="30.64803" pt_clust_6="121.07497"></scales>
<clustering>
<clus scale="   30.648">  4  5 -1 -1</clus>
<clus scale="   90.820">  1  3  2 -1</clus>
<clus scale="  121.075">  1  6  2 -1</clus>
<clus scale="  127.653">  2  3  1 -1</clus>
</clustering>
</event>
<event>
 6    0  0.1849053E+002  0.2034259E+03  0.7546771E-02  0.1146880E+00
          2   -1    0    0  504    0 -0.00000000000E+00  0.00000000000E+00  0.18087763683E+04  0.18087763683E+04  0.00000000000E+00 0. -1.
         21   -1    0    0  501  502  0.00000000000E+00 -0.00000000000E+00 -0.42119231395E+03  0.42119231395E+03  0.00000000000E+00 0.  1.
         21    1    1    2  503  502  0.15223355437E+03 -0.63351659057E+02 -0.33682018670E+03  0.37501510097E+03  0.00000000000E+00 0.  1.
         21    1    1    2  504  505 -0.99077727749E+02 -0.80703253163E+02  0.82303490243E+03  0.83289606905E+03  0.00000000000E+00 0. -1.
         21    1    1    2  505  503  0.10463062146E+02 -0.35097867024E+02 -0.44293572293E+02  0.57473963546E+02  0.00000000000E+00 0.  1.
          2    1    1    2  501    0 -0.63618888770E+02  0.17915277925E+03  0.94566291088E+03  0.96458354865E+03  0.00000000000E+00 0. -1.
<scales pt_clust_3="35.38316" pt_clust_4="127.78658" pt_clust_5="35.38316" pt_clust_6="189.06486"></scales>
<clustering>
<clus scale="   35.383">  3  5 -1 -1</clus>
<clus scale="  127.787">  1  4  2 -1</clus>
<clus scale="  189.065">  1  6  2 -1</clus>
<clus scale="  203.426">  2  3  1 -1</clus>
</clustering>
</event>
<event>
 6    0  0.1849053E+002  0.2231292E+03  0.7546771E-02  0.1131571E+00
         21   -1    0    0  504  502  0.00000000000E+00  0.00000000000E+00  0.88036661624E+03  0.88036661624E+03  0.00000000000E+00 0.  1.
         -2   -1    0    0    0  501 -0.00000000000E+00 -0.00000000000E+00 -0.42781940488E+03  0.42781940488E+03  0.00000000000E+00 0. -1.
         21    1    1    2  503  501  0.53069792666E+02 -0.17405092622E+03  0.37823467560E+03  0.41972800435E+03  0.00000000000E+00 0.  1.
         21    1    1    2  504  503  0.40093466026E+01 -0.77731723456E+02  0.41970028886E+03  0.42685668340E+03  0.00000000000E+00 0.  1.
         21    1    1    2  505  502 -0.77060045025E+01  0.30696417736E+02  0.15706226624E+02  0.35331828738E+02  0.00000000000E+00 0. -1.
         -2    1    1    2    0  505 -0.49373134766E+02  0.22108623194E+03 -0.36109397973E+03  0.42626950464E+03  0.00000000000E+00 0. -1.
<scales pt_clust_3="14000.00000" pt_clust_4="62.53267" pt_clust_5="31.64890" pt_clust_6="223.12922"></scales>
<clustering>
<clus scale="   31.649">  1  5  2 -1</clus>
<clus scale="   62.533">  1  4  2 -1</clus>
<clus scale="  223.129">  2  6  1 -1</clus>
<clus scale="   31.649">  1  3  2 -1</clus>
</clustering>
</event>
<event>
 6    0  0.1849053E+002  0.6266623E+02  0.7546771E-02  0.1386972E+00
         -1   -1    0    0    0  501 -0.00000000000E+00  0.00000000000E+00  0.17852190942E+03  0.17852190942E+03  0.00000000000E+00 0.  1.
         21   -1    0    0  505  502  0.00000000000E+00 -0.00000000000E+00 -0.18180118353E+03  0.18180118353E+03  0.00000000000E+00 0.  1.
         21    1    1    2  503  501 -0.26078522342E+02  0.25903482698E+02  0.28487040194E+02  0.46503668698E+02  0.00000000000E+00 0.  1.
         21    1    1    2  504  503 -0.39951843881E+02 -0.23360864980E+02  0.88241371144E+01  0.47114172368E+02  0.00000000000E+00 0.  1.
         21    1    1    2  505  504 -0.51063567017E+02 -0.29604485249E+02 -0.11222116337E+03  0.12679709355E+03  0.00000000000E+00 0.  1.
         -1    1    1    2    0  502  0.11709393324E+03  0.27061867532E+02  0.71630711947E+02  0.13990815834E+03  0.00000000000E+00 0.  1.
<scales pt_clust_3="36.75704" pt_clust_4="48.66479" pt_clust_5="14000.00000" pt_clust_6="62.66623"></scales>
<clustering>
<clus scale="   36.757">  1  3  2 -1</clus>
<clus scale="   48.665">  1  4  2 -1</clus>
<clus scale="   62.666">  1  6  2 -1</clus>
<clus scale="   62.666">  2  3  1 -1</clus>
</clustering>
</event>
<event>
 6    0  0.1849053E+002  0.1087459E+03  0.7546771E-02  0.1262910E+00
          2   -1    0    0  505    0 -0.00000000000E+00  0.00000000000E+00  0.16919961526E+04  0.16919961526E+04  0.00000000000E+00 0.  1.
         21   -1    0    0  503  502  0.00000000000E+00 -0.00000000000E+00 -0.25239710342E+02  0.25239710342E+02  0.00000000000E+00 0. -1.
         21    1    1    2  503  504 -0.18189856798E+02 -0.61455596740E+02  0.18062209933E+03  0.19165595224E+03  0.00000000000E+00 0.  1.
         21    1    1    2  504  501 -0.46649074375E+02 -0.12014526969E+02  0.76176700482E+03  0.76328857887E+03  0.00000000000E+00 0.  1.
         21    1    1    2  505  502  0.10459203720E+03  0.10508207915E+03  0.29733983229E+03  0.33225398940E+03  0.00000000000E+00 0. -1.
          2    1    1    2  501    0 -0.39753106031E+02 -0.31611955443E+02  0.42702750581E+03  0.43003734243E+03  0.00000000000E+00 0.  1.
<scales pt_clust_3="64.09104" pt_clust_4="36.77296" pt_clust_5="101.97991" pt_clust_6="36.77296"></scales>
<clustering>
<clus scale="   36.773">  4  6 -1 -1</clus>
<clus scale="   64.091">  2  3  1 -1</clus>
<clus scale="  101.980">  2  5  1 -1</clus>
<clus scale="   64.091">  2  3  1 -1</clus>
</clustering>
</event>
<event>
 6    0  0.1849053E+002  0.1595777E+03  0.7546771E-02  0.1189174E+00
         21   -1    0    0  505  502  0.00000000000E+00  0.00000000000E+00  0.26184992373E+03  0.26184992373E+03  0.00000000000E+00 0.  1.
          1   -1    0    0  502    0 -0.00000000000E+00 -0.00000000000E+00 -0.24435039810E+03  0.24435039810E+03  0.00000000000E+00 0. -1.
         21    1    1    2  503  504 -0.31236887335E+02 -0.12486974585E+03  0.91325980120E+02  0.15782468502E+03  0.00000000000E+00 0.  1.
         21    1    1    2  504  501 -0.21685779193E+02  0.11987144835E+03 -0.13778034807E+03  0.18390992759E+03  0.00000000000E+00 0. -1.
         21    1    1    2  505  503  0.84293644625E+02 -0.23279917179E+02  0.80735058990E+02  0.11901900192E+03  0.00000000000E+00 0.  1.
          1    1    1    2  501    0 -0.31370978097E+02  0.28278214671E+02 -0.16781165404E+02  0.45446707296E+02  0.00000000000E+00 0. -1.
<scales pt_clust_3="146.67370" pt_clust_4="37.01543" pt_clust_5="87.44926" pt_clust_6="37.01543"></scales>
<clustering>
<clus scale="   37.015">  4  6 -1 -1</clus>
<clus scale="   87.449">  1  5  2 -1</clus>
<clus scale="  146.674">  1  3  2 -1</clus>
<clus scale="   87.449">  1  3  2 -1</clus>
</clustering>
</event>
<event>
 6    0  0.1849053E+002  0.1652665E+03  0.7546771E-02  0.1182876E+00
          1   -1    0    0  504    0 -0.00000000000E+00  0.00000000000E+00  0.10254755501E+04  0.10254755501E+04  0.00000000000E+00 0. -1.
         21   -1    0    0  505  502  0.00000000000E+00 -0.00000000000E+00 -0.11156339335E+04  0.11156339335E+04  0.00000000000E+00 0.  1.
         21    1    1    2  503  502 -0.22971286444E+02  0.13114192080E+03 -0.55568555136E+03  0.57141256145E+03  0.00000000000E+00 0.  1.
         21    1    1    2  504  503 -0.15111610412E+02 -0.51763920817E+02  0.97215002324E+02  0.11116933455E+03  0.00000000000E+00 0.  1.
         21    1    1    2  505  501 -0.28830269747E+02  0.27201134375E+02 -0.54004354922E+03  0.54149618763E+03  0.00000000000E+00 0.  1.
          1    1    1    2  501    0  0.66913166602E+02 -0.10657913435E+03  0.90835571492E+03  0.91703139999E+03  0.00000000000E+00 0. -1.
<scales pt_clust_3="14000.00000" pt_clust_4="53.70747" pt_clust_5="39.63693" pt_clust_6="165.26649"></scales>
<clustering>
<clus scale="   39.637">  2  5  1 -1</clus>
<clus scale="   53.707">  1  4  2 -1</clus>
<clus scale="  165.266">  1  6  2 -1</clus>
<clus scale="   39.637">  2  3  1 -1</clus>
</clustering>
</event>
<event>
 6    0  0.1849053E+002  0.1380864E+03  0.7546771E-02  0.1215927E+00
          2   -1    0    0  504    0 -0.00000000000E+00  0.00000000000E+00  0.10133835333E+04  0.10133835333E+04  0.00000000000E+00 0.  1.
         21   -1    0    0  505  502  0.00000000000E+00 -0.00000000000E+00 -0.33961286547E+03  0.33961286547E+03  0.00000000000E+00 0.  1.
         21    1    1    2  503  502  0.42027284077E+02  0.76839261191E+02 -0.30675318789E+03  0.31901110161E+03  0.00000000000E+00 0.  1.
         21    1    1    2  504  503 -0.99770921643E+01 -0.28973448906E+02  0.85852914506E+02  0.91157698736E+02  0.00000000000E+00 0.  1.
         21    1    1    2  505  501  0.25886051482E+02  0.46438018401E+02  0.13660862063E+02  0.54892589360E+02  0.00000000000E+00 0.  1.
          2    1    1    2  501    0 -0.57936243395E+02 -0.94303830686E+02  0.88101007912E+03  0.88793500905E+03  0.00000000000E+00 0.  1.
<scales pt_clust_3="14000.00000" pt_clust_4="30.64316" pt_clust_5="52.04801" pt_clust_6="138.08639"></scales>
<clustering>
<clus scale="   30.643">  1  4  2 -1</clus>
<clus scale="   52.048">  2  5  1 -1</clus>
<clus scale="  138.086">  1  6  2 -1</clus>
<clus scale="   52.048">  2  3  1 -1</clus>
</clustering>
</event>
<event>
 6    0  0.1849053E+002  0.9889008E+02  0.7546771E-02  0.1282647E+00
          2   -1    0    0  504    0 -0.00000000000E+00  0.00000000000E+00  0.36885846073E+03  0.36885846073E+03  0.00000000000E+00 0. -1.
         21   -1    0    0  505  502  0.00000000000E+00 -0.00000000000E+00 -0.86062500123E+03  0.86062500123E+03  0.00000000000E+00 0.  1.
         21    1    1    2  503  501  0.62346268044E+02 -0.52666707836E+02 -0.42057843691E+03  0.42842392656E+03  0.00000000000E+00 0. -1.
         21    1    1    2  504  502  0.34188817245E+02 -0.11256645060E+01  0.48181568182E+02  0.59089811793E+02  0.00000000000E+00 0. -1.
         21    1    1    2  505  503  0.37037329218E+02  0.54827532098E+02 -0.41358895601E+03  0.41884799936E+03  0.00000000000E+00 0.  1.
          2    1    1    2  501    0 -0.13357241451E+03 -0.10351597565E+01  0.29421928424E+03  0.32312172426E+03  0.00000000000E+00 0. -1.
<scales pt_clust_3="14000.00000" pt_clust_4="34.20734" pt_clust_5="66.31742" pt_clust_6="98.89008"></scales>
<clustering>
<clus scale="   34.207">  1  4  2 -1</clus>
<clus scale="   66.317">  2  5  1 -1</clus>
<clus scale="   98.890">  1  6  2 -1</clus>
<clus scale="   66.317">  2  3  1 -1</clus>
</clustering>
</event>
<event>
 6    0  0.1849053E+002  0.1793378E+03  0.7546771E-02  0.1168446E+00
         21   -1    0    0  504  502  0.00000000000E+00  0.00000000000E+00  0.80802187407E+02  0.80802187407E+02  0.00000000000E+00 0. -1.
         -2   -1    0    0    0  501 -0.00000000000E+00 -0.00000000000E+00 -0.15247130230E+04  0.15247130230E+04  0.00000000000E+00 0. -1.
         21    1    1    2  503  502 -0.30596180618E+02  0.63253139570E+02 -0.35749581511E+02  0.78836022934E+02  0.00000000000E+00 0. -1.
         21    1    1    2  504  501  0.30325924001E+02  0.82032245997E+01 -0.77873373763E+02  0.83971524350E+02  0.00000000000E+00 0. -1.
         21    1    1    2  505  503 -0.69329459086E+02  0.79449601055E+02 -0.34488532960E+01  0.10550216867E+03  0.00000000000E+00 0. -1.
         -2    1    1    2    0  505  0.69599715703E+02 -0.15090596522E+03 -0.13268390270E+04  0.13372054945E+04  0.00000000000E+00 0. -1.
<scales pt_clust_3="37.39451" pt_clust_4="31.41583" pt_clust_5="37.39451" pt_clust_6="173.39893"></scales>
<clustering>
<clus scale="   31.416">  2  4  1 -1</clus>
<clus scale="   37.395">  3  5 -1 -1</clus>
<clus scale="  173.399">  2  6  1 -1</clus>
<clus scale="  179.338">  1  3  2 -1</clus>
</clustering>
</event>
<event>
 6    0  0.1849053E+002  0.1026047E+03  0.7546771E-02  0.1274912E+00
          1   -1    0    0  504    0 -0.00000000000E+00  0.00000000000E+00  0.32531113908E+03  0.32531113908E+03  0.00000000000E+00 0. -1.
         21   -1    0    0  501  502  0.00000000000E+00 -0.00000000000E+00 -0.11576326185E+04  0.11576326185E+04  0.00000000000E+00 0. -1.
         21    1    1    2  503  505 -0.64923128834E+02 -0.29823363748E+02 -0.88942261786E+03  0.89228753149E+03  0.00000000000E+00 0. -1.
         21    1    1    2  504  503  0.34330128648E+02 -0.53794605997E+02 -0.88509873378E+00  0.63821632439E+02  0.00000000000E+00 0.  1.
         21    1    1    2  505  502 -0.38851901075E+02  0.16455719522E+02 -0.22442457164E+03  0.22835640844E+03  0.00000000000E+00 0.  1.
          1    1    1    2  501    0  0.69444901261E+02  0.67162250223E+02  0.28241080877E+03  0.29847818526E+03  0.00000000000E+00 0. -1.
<scales pt_clust_3="102.60475" pt_clust_4="62.61293" pt_clust_5="42.19314" pt_clust_6="14000.00000"></scales>
<clustering>
<clus scale="   42.193">  2  5  1 -1</clus>
<clus scale="   62.613">  1  4  2 -1</clus>
<clus scale="  102.605">  2  3  1 -1</clus>
<clus scale="   42.193">  2  3  1 -1</clus>
</clustering>
</event>
<event>
 6    0  0.1849053E+002  0.1671383E+03  0.7546771E-02  0.1180865E+00
         21   -1    0    0  501  502  0.00000000000E+00  0.00000000000E+00  0.14347967973E+03  0.14347967973E+03  0.00000000000E+00 0.  1.
          2   -1    0    0  504    0 -0.00000000000E+00 -0.00000000000E+00 -0.28617024514E+04  0.28617024514E+04  0.00000000000E+00 0. -1.
         21    1    1    2  503  502  0.20643298690E+02  0.45294685349E+02  0.77606898159E+02  0.92198616820E+02  0.00000000000E+00 0.  1.
         21    1    1    2  504  505 -0.18425628460E+02  0.25401332119E+02 -0.70808811980E+02  0.77450754106E+02  0.00000000000E+00 0. -1.
         21    1    1    2  505  503  0.14612384308E+03 -0.92424587596E+01 -0.48557987439E+02  0.15425783191E+03  0.00000000000E+00 0.  1.
          2    1    1    2  501    0 -0.14834151331E+03 -0.61453558708E+02 -0.26764628704E+04  0.26812749283E+04  0.00000000000E+00 0. -1.
<scales pt_clust_3="49.81759" pt_clust_4="31.38043" pt_clust_5="14000.00000" pt_clust_6="167.13827"></scales>
<clustering>
<clus scale="   31.380">  2  4  1 -1</clus>
<clus scale="   49.818">  1  3  2 -1</clus>
<clus scale="  167.138">  2  6  1 -1</clus>
<clus scale="   49.818">  1  3  2 -1</clus>
</clustering>
</event>
<event>
 6    0  0.1849053E+002  0.1905764E+03  0.7546771E-02  0.1157942E+00
         21   -1    0    0  504  502  0.00000000000E+00  0.00000000000E+00  0.28884234586E+03  0.28884234586E+03  0.00000000000E+00 0.  1.
          2   -1    0    0  503    0 -0.00000000000E+00 -0.00000000000E+00 -0.12166823441E+04  0.12166823441E+04  0.00000000000E+00 0.  1.
         21    1    1    2  503  505  0.17114882001E+03 -0.26735954540E+02 -0.69247704477E+03  0.71381453291E+03  0.00000000000E+00 0.  1.
         21    1    1    2  504  501  0.40121925084E+02 -0.11668734452E+02  0.20486431812E+02  0.46536245278E+02  0.00000000000E+00 0.  1.
         21    1    1    2  505  502  0.26829180408E+02  0.32432411885E+02  0.21416265297E+03  0.21825972644E+03  0.00000000000E+00 0.  1.
          2    1    1    2  501    0 -0.23809992551E+03  0.59722771074E+01 -0.47001203829E+03  0.52691418538E+03  0.00000000000E+00 0.  1.
<scales pt_clust_3="14000.00000" pt_clust_4="41.78431" pt_clust_5="64.85127" pt_clust_6="190.57639"></scales>
<clustering>
<clus scale="   41.784">  1  4  2 -1</clus>
<clus scale="   64.851">  1  5  2 -1</clus>
<clus scale="  190.576">  1  6  2 -1</clus>
<clus scale="   41.784">  1  3  2 -1</clus>
</clustering>
</event>
<event>
 6    0  0.1849053E+002  0.9232424E+02  0.7546771E-02  0.1297319E+00
          2   -1    0    0  503    0 -0.00000000000E+00  0.00000000000E+00  0.65164698641E+03  0.65164698641E+03  0.00000000000E+00 0. -1.
         21   -1    0    0  504  502  0.00000000000E+00 -0.00000000000E+00 -0.18060724725E+03  0.18060724725E+03  0.00000000000E+00 0.  1.
         21    1    1    2  503  502 -0.25012519830E+02 -0.31966187661E+02  0.85122957746E+02  0.94304725424E+02  0.00000000000E+00 0. -1.
         21    1    1    2  504  505  0.53796316923E+02  0.10140343441E+03 -0.11467989191E+03  0.16225960012E+03  0.00000000000E+00 0.  1.
         21    1    1    2  505  501 -0.58539933949E+02 -0.35819893750E+02 -0.43351547668E+01  0.68766141537E+02  0.00000000000E+00 0.  1.
          2    1    1    2  501    0  0.29756136856E+02 -0.33617352996E+02  0.50493182809E+03  0.50692376658E+03  0.00000000000E+00 0. -1.
<scales pt_clust_3="40.58896" pt_clust_4="14000.00000" pt_clust_5="92.32424" pt_clust_6="62.81584"></scales>
<clustering>
<clus scale="   40.589">  1  3  2 -1</clus>
<clus scale="   62.816">  1  6  2 -1</clus>
<clus scale="   92.324">  1  5  2 -1</clus>
<clus scale="   92.324">  2  3  1 -1</clus>
</clustering>
</event>
<event>
 6    0  0.1849053E+002  0.6948508E+02  0.7546771E-02  0.1361853E+00
          2   -1    0    0  504    0 -0.00000000000E+00  0.00000000000E+00  0.40468569384E+03  0.40468569384E+03  0.00000000000E+00 0.  1.
         21   -1    0    0  505  502  0.00000000000E+00 -0.00000000000E+00 -0.24099163316E+03  0.24099163316E+03  0.00000000000E+00 0.  1.
         21    1    1    2  503  502  0.37258697381E+01  0.11990526603E+03 -0.18514394233E+03  0.22061150085E+03  0.00000000000E+00 0.  1.
         21    1    1    2  504  503  0.17783038133E+02 -0.30096961194E+02  0.69500545296E+02  0.77797103511E+02  0.00000000000E+00 0.  1.
         21    1    1    2  505  501  0.64384381823E+01 -0.50154516824E+02 -0.11958361010E+02  0.51960864524E+02  0.00000000000E+00 0. -1.
          2    1    1    2  501    0 -0.27947346053E+02 -0.39653788015E+02  0.29129581872E+03  0.29530785811E+03  0.00000000000E+00 0.  1.
<scales pt_clust_3="69.48508" pt_clust_4="34.95803" pt_clust_5="52.51318" pt_clust_6="14000.00000"></scales>
<clustering>
<clus scale="   34.958">  1  4  2 -1</clus>
<clus scale="   52.513">  2  5  1 -1</clus>
<clus scale="   69.485">  2  3  1 -1</clus>
<clus scale="   52.513">  2  3  1 -1</clus>
</clustering>
</event>
<event>
 6    0  0.1849053E+002  0.1265782E+03  0.7546771E-02  0.1232623E+00
         21   -1    0    0  505  502  0.00000000000E+00  0.00000000000E+00  0.42002934797E+02  0.42002934797E+02  0.00000000000E+00 0. -1.
          2   -1    0    0  502    0 -0.00000000000E+00 -0.00000000000E+00 -0.15826028133E+04  0.15826028133E+04  0.00000000000E+00 0. -1.
         21    1    1    2  503  504 -0.12926980222E+02  0.35942252156E+02 -0.25801631064E+02  0.46094213013E+02  0.00000000000E+00 0. -1.
         21    1    1    2  504  501 -0.33825360585E+02  0.49090951956E+02 -0.12678677911E+03  0.14010340445E+03  0.00000000000E+00 0. -1.
         21    1    1    2  505  503 -0.31891426260E+02  0.85169450150E+01  0.10444413458E+02  0.34622062240E+02  0.00000000000E+00 0. -1.
          2    1    1    2  501    0  0.78643767067E+02 -0.93550149127E+02 -0.13984558818E+04  0.14037860684E+04  0.00000000000E+00 0. -1.
<scales pt_clust_3="37.90679" pt_clust_4="37.90679" pt_clust_5="33.00911" pt_clust_6="118.54169"></scales>
<clustering>
<clus scale="   33.009">  1  5  2 -1</clus>
<clus scale="   37.907">  3  4 -1 -1</clus>
<clus scale="  118.542">  2  6  1 -1</clus>
<clus scale="   33.009">  1  3  2 -1</clus>
</clustering>
</event>
<event>
 6    0  0.1849053E+002  0.1669844E+03  0.7546771E-02  0.1181030E+00
          1   -1    0    0  503    0 -0.00000000000E+00  0.00000000000E+00  0.31461253036E+04  0.31461253036E+04  0.00000000000E+00 0. -1.
         21   -1    0    0  501  502  0.00000000000E+00 -0.00000000000E+00 -0.16911247474E+03  0.16911247474E+03  0.00000000000E+00 0.  1.
         21    1    1    2  503  505  0.24037807362E+03  0.25183074513E+02  0.71924047841E+02  0.25216834491E+03  0.00000000000E+00 0.  1.
         21    1    1    2  504  502 -0.44210051724E+02  0.12410036395E+02 -0.38804785687E+02  0.60119456659E+02  0.00000000000E+00 0.  1.
         21    1    1    2  505  504 -0.31736194448E+02 -0.23014843833E+02 -0.13114034098E+02  0.41338202247E+02  0.00000000000E+00 0.  1.
          1    1    1    2  501    0 -0.16443182745E+03 -0.14578267074E+02  0.29570076008E+04  0.29616117746E+04  0.00000000000E+00 0. -1.
<scales pt_clust_3="14000.00000" pt_clust_4="87.16704" pt_clust_5="38.29570" pt_clust_6="166.98443"></scales>
<clustering>
<clus scale="   38.296">  4  5 -1 -1</clus>
<clus scale="   87.167">  2  4  1 -1</clus>
<clus scale="  166.984">  1  6  2 -1</clus>
<clus scale="   87.167">  2  3  1 -1</clus>
</clustering>
</event>
<event>
 6    0  0.1849053E+002  0.1355725E+03  0.7546771E-02  0.1219414E+00
         21   -1    0    0  504  502  0.00000000000E+00  0.00000000000E+00  0.11205032921E+04  0.11205032921E+04  0.00000000000E+00 0.  1.
          2   -1    0    0  505    0 -0.00000000000E+00 -0.00000000000E+00 -0.30991078854E+03  0.30991078854E+03  0.00000000000E+00 0.  1.
         21    1    1    2  503  501  0.78239747018E+02 -0.87919217955E+02 -0.11145164979E+03  0.16208860891E+03  0.00000000000E+00 0.  1.
         21    1    1    2  504  503 -0.69750403129E+02 -0.89890028984E+02  0.15577322451E+03  0.19290057937E+03  0.00000000000E+00 0.  1.
         21    1    1    2  505  502 -0.79715533760E+02  0.84356240269E+02  0.89421267045E+03  0.90171328125E+03  0.00000000000E+00 0.  1.
          2    1    1    2  501    0  0.71226189871E+02  0.93453006671E+02 -0.12794174163E+03  0.17371161110E+03  0.00000000000E+00 0.  1.
<scales pt_clust_3="14000.00000" pt_clust_4="113.77757" pt_clust_5="135.57251" pt_clust_6="114.74980"></scales>
<clustering>
<clus scale="  113.778">  1  4  2 -1</clus>
<clus scale="  114.750">  2  6  1 -1</clus>
<clus scale="  135.573">  1  5  2 -1</clus>
<clus scale="  113.778">  1  3  2 -1</clus>
</clustering>
</event>
<event>
 6    0  0.1849053E+002  0.1366184E+03  0.7546771E-02  0.1217953E+00
          2   -1    0    0  504    0 -0.00000000000E+00  0.00000000000E+00  0.40515757876E+04  0.40515757876E+04  0.00000000000E+00 0.  1.
         21   -1    0    0  505  502  0.00000000000E+00 -0.00000000000E+00 -0.21969421090E+02  0.21969421090E+02  0.00000000000E+00 0.  1.
         21    1    1    2  503  501  0.41078552716E+02  0.24618098806E+01  0.14647343618E+04  0.14653123416E+04  0.00000000000E+00 0.  1.
         21    1    1    2  504  502  0.50790678122E+02  0.87313331188E+02  0.52702319281E+03  0.53661602338E+03  0.00000000000E+00 0. -1.
         21    1    1    2  505  503 -0.17559366530E+03 -0.83626793653E+02  0.58781887396E+03  0.61915878779E+03  0.00000000000E+00 0.  1.
          2    1    1    2  501    0  0.83724434466E+02 -0.61483474160E+01  0.14500299380E+04  0.14524580559E+04  0.00000000000E+00 0.  1.
<scales pt_clust_3="30.86824" pt_clust_4="101.01144" pt_clust_5="129.30890" pt_clust_6="30.86824"></scales>
<clustering>
<clus scale="   30.868">  3  6 -1 -1</clus>
<clus scale="  101.011">  2  4  1 -1</clus>
<clus scale="  129.309">  2  5  1 -1</clus>
<clus scale="  101.011">  2  3  1 -1</clus>
</clustering>
</event>
<event>
 6    0  0.1849053E+002  0.1548184E+03  0.7546771E-02  0.1194674E+00
         -1   -1    0    0    0  501 -0.00000000000E+00  0.00000000000E+00  0.64538494202E+03  0.64538494202E+03  0.00000000000E+00 0.  1.
         21   -1    0    0  501  502  0.00000000000E+00 -0.00000000000E+00 -0.66191812646E+03  0.66191812646E+03  0.00000000000E+00 0. -1.
         21    1    1    2  503  505  0.65526738981E+02 -0.97580329647E+02 -0.47022197428E+03  0.48468998272E+03  0.00000000000E+00 0. -1.
         21    1    1    2  504  503 -0.44086733677E+02  0.18638343180E+02  0.12281793700E+03  0.13181530098E+03  0.00000000000E+00 0.  1.
         21    1    1    2  505  502  0.53358321352E+02  0.11032344341E+02 -0.17068365569E+03  0.17916956606E+03  0.00000000000E+00 0. -1.
         -1    1    1    2    0  504 -0.74798326656E+02  0.67909642126E+02  0.50155450853E+03  0.51162821872E+03  0.00000000000E+00 0.  1.
<scales pt_clust_3="146.33634" pt_clust_4="34.78827" pt_clust_5="54.48691" pt_clust_6="34.78827"></scales>
<clustering>
<clus scale="   34.788">  4  6 -1 -1</clus>
<clus scale="   54.487">  2  5  1 -1</clus>
<clus scale="  146.336">  2  3  1 -1</clus>
<clus scale="   54.487">  2  3  1 -1</clus>
</clustering>
</event>
<event>
 6    0  0.1849053E+002  0.9109274E+02  0.7546771E-02  0.1300227E+00
         21   -1    0    0  504  502  0.00000000000E+00  0.00000000000E+00  0.35747975879E+02  0.35747975879E+02  0.00000000000E+00 0. -1.
          2   -1    0    0  502    0 -0.00000000000E+00 -0.00000000000E+00 -0.27796917666E+04  0.27796917666E+04  0.00000000000E+00 0. -1.
         21    1    1    2  503  505 -0.54798811612E+02  0.33126935153E+02 -0.41785830004E+02  0.76461488187E+02  0.00000000000E+00 0. -1.
         21    1    1    2  504  503  0.41370312240E+02  0.26677073834E+02 -0.40967473163E+02  0.64042976668E+02  0.00000000000E+00 0. -1.
         21    1    1    2  505  501 -0.15764313787E+02 -0.13842208730E+03 -0.81354863725E+03  0.82539116364E+03  0.00000000000E+00 0. -1.
          2    1    1    2  501    0  0.29192813158E+02  0.78618078316E+02 -0.18476418503E+04  0.18495441140E+04  0.00000000000E+00 0. -1.
<scales pt_clust_3="57.98056" pt_clust_4="49.22569" pt_clust_5="91.09274" pt_clust_6="14000.00000"></scales>
<clustering>
<clus scale="   49.226">  1  4  2 -1</clus>
<clus scale="   57.981">  1  3  2 -1</clus>
<clus scale="   91.093">  1  5  2 -1</clus>
<clus scale="   49.226">  1  3  2 -1</clus>
</clustering>
</event>
<event>
 6    0  0.1849053E+002  0.1568485E+03  0.7546771E-02  0.1192301E+00
         21   -1    0    0  504  502  0.00000000000E+00  0.00000000000E+00  0.47334464859E+03  0.47334464859E+03  0.00000000000E+00 0.  1.
          2   -1    0    0  503    0 -0.00000000000E+00 -0.00000000000E+00 -0.13747168761E+03  0.13747168761E+03  0.00000000000E+00 0.  1.
         21    1    1    2  503  502 -0.16747248995E+03  0.49884612567E+02  0.32940290066E+03  0.37288306535E+03  0.00000000000E+00 0.  1.
         21    1    1    2  504  505  0.44659753655E+02  0.21458959120E+02  0.57976029177E+02  0.76264018266E+02  0.00000000000E+00 0.  1.
         21    1    1    2  505  501  0.46096668860E+02 -0.21011611680E+02  0.94229423779E+01  0.51528463478E+02  0.00000000000E+00 0.  1.
          2    1    1    2  501    0  0.76716067435E+02 -0.50331960006E+02 -0.60928911232E+02  0.11014078911E+03  0.00000000000E+00 0.  1.
<scales pt_clust_3="145.91176" pt_clust_4="49.54776" pt_clust_5="42.75759" pt_clust_6="42.75759"></scales>
<clustering>
<clus scale="   42.758">  5  6 -1 -1</clus>
<clus scale="   49.548">  1  4  2 -1</clus>
<clus scale="  145.912">  1  3  2 -1</clus>
<clus scale="   49.548">  1  3  2 -1</clus>
</clustering>
</event>
<event>
 6    0  0.1849053E+002  0.2321782E+03  0.7546771E-02  0.1125116E+00
          1   -1    0    0  505    0 -0.00000000000E+00  0.00000000000E+00  0.97248720276E+03  0.97248720276E+03  0.00000000000E+00 0. -1.
         21   -1    0    0  503  502  0.00000000000E+00 -0.00000000000E+00 -0.41985862155E+03  0.41985862155E+03  0.00000000000E+00 0. -1.
         21    1    1    2  503  504  0.13949958638E+02 -0.76155369680E+02 -0.76579479156E+02  0.10889746694E+03  0.00000000000E+00 0.  1.
         21    1    1    2  504  501  0.41535053340E+01 -0.15499722008E+03 -0.24509066172E+03  0.29001865854E+03  0.00000000000E+00 0. -1.
         21    1    1    2  505  502 -0.17637810220E+03  0.64659466552E+02  0.17268698803E+03  0.25516833147E+03  0.00000000000E+00 0. -1.
          1    1    1    2  501    0  0.15827463823E+03  0.16649312321E+03  0.70161173405E+03  0.73826136737E+03  0.00000000000E+00 0. -1.
<scales pt_clust_3="30.82685" pt_clust_4="30.82685" pt_clust_5="187.85655" pt_clust_6="228.04293"></scales>
<clustering>
<clus scale="   30.827">  3  4 -1 -1</clus>
<clus scale="  187.857">  1  5  2 -1</clus>
<clus scale="  228.043">  1  6  2 -1</clus>
<clus scale="  232.178">  2  3  1 -1</clus>
</clustering>
</event>
<event>
 6    0  0.1849053E+002  0.6864082E+02  0.7546771E-02  0.1364777E+00
         21   -1    0    0  504  502  0.00000000000E+00  0.00000000000E+00  0.10109817905E+03  0.10109817905E+03  0.00000000000E+00 0.  1.
          2   -1    0    0  505    0 -0.00000000000E+00 -0.00000000000E+00 -0.81682909029E+03  0.81682909029E+03  0.00000000000E+00 0.  1.
         21    1    1    2  503  502  0.62898245057E+02  0.10127683087E+02  0.47096209082E+02  0.79226334674E+02  0.00000000000E+00 0.  1.
         21    1    1    2  504  501  0.35653638163E+01 -0.41246253117E+02  0.53649192704E+01  0.41746228263E+02  0.00000000000E+00 0.  1.
         21    1    1    2  505  503 -0.76167693813E+02 -0.32177803417E+02 -0.12071211385E+03  0.14631590154E+03  0.00000000000E+00 0.  1.
          2    1    1    2  501    0  0.97040849406E+01  0.63296373447E+02 -0.64747992574E+03  0.65063880486E+03  0.00000000000E+00 0.  1.
<scales pt_clust_3="68.64082" pt_clust_4="41.40006" pt_clust_5="14000.00000" pt_clust_6="63.21682"></scales>
<clustering>
<clus scale="   41.400">  1  4  2 -1</clus>
<clus scale="   63.217">  2  6  1 -1</clus>
<clus scale="   68.641">  1  3  2 -1</clus>
<clus scale="   41.400">  1  3  2 -1</clus>
</clustering>
</event>
<event>
 6    0  0.1849053E+002  0.9742333E+02  0.7546771E-02  0.1285810E+00
          2   -1    0    0  503    0 -0.00000000000E+00  0.00000000000E+00  0.64013935047E+03  0.64013935047E+03  0.00000000000E+00 0. -1.
         21   -1    0    0  505  502  0.00000000000E+00 -0.00000000000E+00 -0.26601657399E+03  0.26601657399E+03  0.00000000000E+00 0. -1.
         21    1    1    2  503  504  0.10935484562E+03 -0.56937171757E+02  0.22425031713E+03  0.25590726547E+03  0.00000000000E+00 0. -1.
         21    1    1    2  504  502  0.15841654259E+02  0.26170528497E+02 -0.23087887472E+02  0.38326298013E+02  0.00000000000E+00 0. -1.
         21    1    1    2  505  501 -0.32397735244E+02  0.40486553443E+02 -0.21074742260E+03  0.21703283252E+03  0.00000000000E+00 0. -1.
          2    1    1    2  501    0 -0.92798764631E+02 -0.97199101834E+01  0.38370776942E+03  0.39488952845E+03  0.00000000000E+00 0. -1.
<scales pt_clust_3="14000.00000" pt_clust_4="30.59174" pt_clust_5="66.74722" pt_clust_6="97.42333"></scales>
<clustering>
<clus scale="   30.592">  2  4  1 -1</clus>
<clus scale="   66.747">  2  5  1 -1</clus>
<clus scale="   97.423">  1  6  2 -1</clus>
<clus scale="   30.592">  2  3  1 -1</clus>
</clustering>
</event>
<event>
 6    0  0.1849053E+002  0.1313529E+03  0.7546771E-02  0.1225462E+00
         21   -1    0    0  503  502  0.00000000000E+00  0.00000000000E+00  0.51801848271E+02  0.51801848271E+02  0.00000000000E+00 0. -1.
          2   -1    0    0  505    0 -0.00000000000E+00 -0.00000000000E+00 -0.11553931291E+04  0.11553931291E+04  0.00000000000E+00 0. -1.
         21    1    1    2  503  501 -0.41375539797E+02 -0.10377485278E+03 -0.35655984532E+03  0.37365235000E+03  0.00000000000E+00 0. -1.
         21    1    1    2  504  502  0.38904965081E+02  0.17037821239E+02 -0.48762482646E+02  0.64665782098E+02  0.00000000000E+00 0. -1.
         21    1    1    2  505  504 -0.36510521624E+02  0.13634757674E+03 -0.11462115688E+03  0.18182873666E+03  0.00000000000E+00 0. -1.
          2    1    1    2  501    0  0.38981096341E+02 -0.49610545203E+02 -0.58364779598E+03  0.58704810861E+03  0.00000000000E+00 0. -1.
<scales pt_clust_3="131.35288" pt_clust_4="42.47215" pt_clust_5="14000.00000" pt_clust_6="63.52558"></scales>
<clustering>
<clus scale="   42.472">  1  4  2 -1</clus>
<clus scale="   63.526">  2  6  1 -1</clus>
<clus scale="  131.353">  2  3  1 -1</clus>
<clus scale="   42.472">  1  3  2 -1</clus>
</clustering>
</event>
<event>
 6    0  0.1849053E+002  0.1322922E+03  0.7546771E-02  0.1224094E+00
         -2   -1    0    0    0  501 -0.00000000000E+00  0.00000000000E+00  0.29068129395E+04  0.29068129395E+04  0.00000000000E+00 0.  1.
         21   -1    0    0  503  502  0.00000000000E+00 -0.00000000000E+00 -0.23553156748E+02  0.23553156748E+02  0.00000000000E+00 0.  1.
         21    1    1    2  503  501  0.23136834007E+02  0.12320749167E+03  0.19570439035E+03  0.23241258033E+03  0.00000000000E+00 0.  1.
         21    1    1    2  504  505 -0.59334334838E+01 -0.33006124398E+02  0.37076533872E+03  0.37227885553E+03  0.00000000000E+00 0.  1.
         21    1    1    2  505  502 -0.35596483791E+02 -0.10435095080E+01  0.86720448393E+02  0.93747718585E+02  0.00000000000E+00 0. -1.
         -2    1    1    2    0  504  0.18393083268E+02 -0.89157857767E+02  0.22300696053E+04  0.22319269418E+04  0.00000000000E+00 0.  1.
<scales pt_clust_3="122.61766" pt_clust_4="30.14082" pt_clust_5="35.61178" pt_clust_6="30.14082"></scales>
<clustering>
<clus scale="   30.141">  4  6 -1 -1</clus>
<clus scale="   35.612">  2  5  1 -1</clus>
<clus scale="  122.618">  2  3  1 -1</clus>
<clus scale="   35.612">  2  3  1 -1</clus>
</clustering>
</event>
<event>
 6    0  0.1849053E+002  0.5665418E+02  0.7546771E-02  0.1412434E+00
         21   -1    0    0  504  502  0.00000000000E+00  0.00000000000E+00  0.27232055480E+03  0.27232055480E+03  0.00000000000E+00 0. -1.
          2   -1    0    0  503    0 -0.00000000000E+00 -0.00000000000E+00 -0.10658606219E+04  0.10658606219E+04  0.00000000000E+00 0. -1.
         21    1    1    2  503  505 -0.81719011327E+00  0.51819005688E+02 -0.22411615560E+03  0.23003027703E+03  0.00000000000E+00 0.  1.
         21    1    1    2  504  501 -0.89300949838E+02  0.17874328446E+02  0.22513220522E+03  0.24285522660E+03  0.00000000000E+00 0. -1.
         21    1    1    2  505  502  0.33447403331E+02 -0.23486017936E+02  0.21356471406E+02  0.46113129356E+02  0.00000000000E+00 0.  1.
          2    1    1    2  501    0  0.56670736620E+02 -0.46207316197E+02 -0.81591258813E+03  0.81918254371E+03  0.00000000000E+00 0. -1.
<scales pt_clust_3="51.52949" pt_clust_4="14000.00000" pt_clust_5="40.86957" pt_clust_6="56.65418"></scales>
<clustering>
<clus scale="   40.870">  1  5  2 -1</clus>
<clus scale="   51.529">  2  3  1 -1</clus>
<clus scale="   56.654">  2  6  1 -1</clus>
<clus scale="   40.870">  1  3  2 -1</clus>
</clustering>
</event>
<event>
 6    0  0.1849053E+002  0.1380848E+03  0.7546771E-02  0.1215929E+00
         21   -1    0    0  503  502  0.00000000000E+00  0.00000000000E+00  0.58898636290E+03  0.58898636290E+03  0.00000000000E+00 0. -1.
          1   -1    0    0  505    0 -0.00000000000E+00 -0.00000000000E+00 -0.28778802835E+04  0.28778802835E+04  0.00000000000E+00 0. -1.
         21    1    1    2  503  501  0.47345107930E+02 -0.24571017176E+02 -0.98639263228E+03  0.98783385199E+03  0.00000000000E+00 0. -1.
         21    1    1    2  504  502 -0.31806215942E+02  0.50399706322E+02  0.56383798183E+03  0.56697886691E+03  0.00000000000E+00 0. -1.
         21    1    1    2  505  504 -0.50589471194E+02  0.55799924874E+02 -0.43353346824E+02  0.86904769101E+02  0.00000000000E+00 0. -1.
          1    1    1    2  501    0  0.35050579207E+02 -0.81628614020E+02 -0.18229859233E+04  0.18251491584E+04  0.00000000000E+00 0. -1.
<scales pt_clust_3="36.33001" pt_clust_4="59.59669" pt_clust_5="129.88179" pt_clust_6="36.33001"></scales>
<clustering>
<clus scale="   36.330">  3  6 -1 -1</clus>
<clus scale="   59.597">  1  4  2 -1</clus>
<clus scale="  129.882">  1  5  2 -1</clus>
<clus scale="   59.597">  1  3  2 -1</clus>
</clustering>
</event>
<event>
 6    0  0.1849053E+002  0.1818852E+03  0.7546771E-02  0.1165991E+00
          3   -1    0    0  504    0 -0.00000000000E+00  0.00000000000E+00  0.34477439816E+03  0.34477439816E+03  0.00000000000E+00 0. -1.
         21   -1    0    0  505  502  0.00000000000E+00 -0.00000000000E+00 -0.29767856333E+03  0.29767856333E+03  0.00000000000E+00 0. -1.
         21    1    1    2  503  501 -0.59237613373E+02 -0.79486778837E+01  0.41129259979E+02  0.72552686681E+02  0.00000000000E+00 0. -1.
         21    1    1    2  504  502  0.58071709088E+02  0.11318174651E+01 -0.21176037489E+02  0.61822560372E+02  0.00000000000E+00 0. -1.
         21    1    1    2  505  503  0.11447087523E+03 -0.10529127450E+00 -0.21336177601E+03  0.24212979954E+03  0.00000000000E+00 0. -1.
          3    1    1    2  501    0 -0.11330497095E+03  0.69221516931E+01  0.24050438835E+03  0.26594791490E+03  0.00000000000E+00 0. -1.
<scales pt_clust_3="53.77965" pt_clust_4="58.08274" pt_clust_5="166.09962" pt_clust_6="53.77965"></scales>
<clustering>
<clus scale="   53.780">  3  6 -1 -1</clus>
<clus scale="   58.083">  2  4  1 -1</clus>
<clus scale="  166.100">  2  5  1 -1</clus>
<clus scale="   58.083">  2  3  1 -1</clus>
</clustering>
</event>
<event>
 6    0  0.1849053E+002  0.1139082E+03  0.7546771E-02  0.1253499E+00
         21   -1    0    0  501  502  0.00000000000E+00  0.00000000000E+00  0.74027673164E+03  0.74027673164E+03  0.00000000000E+00 0.  1.
          2   -1    0    0  503    0 -0.00000000000E+00 -0.00000000000E+00 -0.37975358026E+02  0.37975358026E+02  0.00000000000E+00 0. -1.
         21    1    1    2  503  505  0.24812662683E+02 -0.36340559075E+02  0.85907988341E+02  0.96521950478E+02  0.00000000000E+00 0.  1.
         21    1    1    2  504  502 -0.24423240293E+02 -0.59508721616E+02  0.33543504792E+03  0.34154714753E+03  0.00000000000E+00 0.  1.
         21    1    1    2  505  504 -0.18874166137E+01 -0.47879117737E+02  0.64592624687E+02  0.80424992513E+02  0.00000000000E+00 0.  1.
          2    1    1    2  501    0  0.14979942240E+01  0.14372839843E+03  0.21636571267E+03  0.25975799915E+03  0.00000000000E+00 0. -1.
<scales pt_clust_3="30.92306" pt_clust_4="64.32560" pt_clust_5="30.92306" pt_clust_6="109.24195"></scales>
<clustering>
<clus scale="   30.923">  3  5 -1 -1</clus>
<clus scale="   64.326">  1  4  2 -1</clus>
<clus scale="  109.242">  1  6  2 -1</clus>
<clus scale="   64.326">  1  3  2 -1</clus>
</clustering>
</event>
<event>
 6    0  0.1849053E+002  0.1440928E+03  0.7546771E-02  0.1207926E+00
          2   -1    0    0  504    0 -0.00000000000E+00  0.00000000000E+00  0.32606279110E+04  0.32606279110E+04  0.00000000000E+00 0. -1.
         21   -1    0    0  503  502  0.00000000000E+00 -0.00000000000E+00 -0.42153708529E+03  0.42153708529E+03  0.00000000000E+00 0.  1.
         21    1    1    2  503  501 -0.13574896706E+03  0.71691062617E+02 -0.26754295631E+03  0.30845846396E+03  0.00000000000E+00 0.  1.
         21    1    1    2  504  505  0.57100688386E+02 -0.38178892080E+02  0.51975522324E+03  0.52427436377E+03  0.00000000000E+00 0. -1.
         21    1    1    2  505  502 -0.89298816997E+01 -0.65668165169E+02 -0.12205820007E+03  0.13888936211E+03  0.00000000000E+00 0.  1.
          2    1    1    2  501    0  0.87578160373E+02  0.32155994632E+02  0.27089367588E+04  0.27105428064E+04  0.00000000000E+00 0. -1.
<scales pt_clust_3="14000.00000" pt_clust_4="68.91582" pt_clust_5="66.27255" pt_clust_6="144.09278"></scales>
<clustering>
<clus scale="   66.273">  2  5  1 -1</clus>
<clus scale="   68.916">  1  4  2 -1</clus>
<clus scale="  144.093">  1  6  2 -1</clus>
<clus scale="   66.273">  2  3  1 -1</clus>
</clustering>
</event>
<event>
 6    0  0.1849053E+002  0.9951560E+02  0.7546771E-02  0.1281318E+00
          2   -1    0    0  503    0 -0.00000000000E+00  0.00000000000E+00  0.12368211061E+04  0.12368211061E+04  0.00000000000E+00 0.  1.
         21   -1    0    0  504  502  0.00000000000E+00 -0.00000000000E+00 -0.33870420457E+03  0.33870420457E+03  0.00000000000E+00 0.  1.
         21    1    1    2  503  502 -0.14931742517E+02  0.79622321310E+02 -0.26998513290E+03  0.28187699972E+03  0.00000000000E+00 0.  1.
         21    1    1    2  504  505 -0.34589949805E+02  0.65248543931E+01 -0.46879597350E+02  0.58623672693E+02  0.00000000000E+00 0. -1.
         21    1    1    2  505  501  0.27964894979E+02 -0.13716628244E+03  0.54265303456E+03  0.56041854029E+03  0.00000000000E+00 0.  1.
          2    1    1    2  501    0  0.21556797343E+02  0.51019106734E+02  0.67232859724E+03  0.67460609798E+03  0.00000000000E+00 0.  1.
<scales pt_clust_3="14000.00000" pt_clust_4="35.19998" pt_clust_5="99.51560" pt_clust_6="55.35682"></scales>
<clustering>
<clus scale="   35.200">  2  4  1 -1</clus>
<clus scale="   55.357">  1  6  2 -1</clus>
<clus scale="   99.516">  1  5  2 -1</clus>
<clus scale="   35.200">  2  3  1 -1</clus>
</clustering>
</event>
<event>
 6    0  0.1849053E+002  0.1766210E+03  0.7546771E-02  0.1171114E+00
          1   -1    0    0  504    0 -0.00000000000E+00  0.00000000000E+00  0.21317277306E+04  0.21317277306E+04  0.00000000000E+00 0.  1.
         21   -1    0    0  503  502  0.00000000000E+00 -0.00000000000E+00 -0.84539936637E+03  0.84539936637E+03  0.00000000000E+00 0. -1.
         21    1    1    2  503  505 -0.16174506766E+02  0.95542655467E+02 -0.60723386365E+03  0.61491705038E+03  0.00000000000E+00 0. -1.
         21    1    1    2  504  502  0.24480709854E+02 -0.29331497300E+02  0.10472712243E+03  0.11147830310E+03  0.00000000000E+00 0.  1.
         21    1    1    2  505  501 -0.54548172132E+02  0.45006277253E+02 -0.22369160213E+03  0.23460392354E+03  0.00000000000E+00 0. -1.
          1    1    1    2  501    0  0.46241969044E+02 -0.11121743542E+03  0.20125267076E+04  0.20161278199E+04  0.00000000000E+00 0.  1.
<scales pt_clust_3="68.81024" pt_clust_4="38.20526" pt_clust_5="68.81024" pt_clust_6="157.16850"></scales>
<clustering>
<clus scale="   38.205">  1  4  2 -1</clus>
<clus scale="   68.810">  3  5 -1 -1</clus>
<clus scale="  157.169">  1  6  2 -1</clus>
<clus scale="  176.621">  2  3  1 -1</clus>
</clustering>
</event>
<event>
 6    0  0.1849053E+002  0.3710499E+03  0.7546771E-02  0.1054292E+00
          2   -1    0    0  502    0 -0.00000000000E+00  0.00000000000E+00  0.77113336615E+03  0.77113336615E+03  0.00000000000E+00 0.  1.
         21   -1    0    0  505  502  0.00000000000E+00 -0.00000000000E+00 -0.48322229173E+03  0.48322229173E+03  0.00000000000E+00 0. -1.
         21    1    1    2  503  501 -0.40842966253E+02  0.27253373640E+03  0.37633516999E+03  0.46644500806E+03  0.00000000000E+00 0.  1.
         21    1    1    2  504  503 -0.11751514287E+02 -0.14919161608E+03 -0.92846996656E+02  0.17611587431E+03  0.00000000000E+00 0. -1.
         21    1    1    2  505  504  0.78100736859E+02 -0.18861507523E+03 -0.26437015012E+03  0.33401638879E+03  0.00000000000E+00 0. -1.
          2    1    1    2  501    0 -0.25506256318E+02  0.65272954906E+02  0.26879305121E+03  0.27777838673E+03  0.00000000000E+00 0.  1.
<scales pt_clust_3="69.80705" pt_clust_4="101.72279" pt_clust_5="364.18517" pt_clust_6="69.80705"></scales>
<clustering>
<clus scale="   69.807">  3  6 -1 -1</clus>
<clus scale="  101.723">  4  5 -1 -1</clus>
<clus scale="  364.185">  2  4  1 -1</clus>
<clus scale="  364.185">  2  3  1 -1</clus>
</clustering>
</event>
<event>
 6    0  0.1849053E+002  0.1619705E+03  0.7546771E-02  0.1186490E+00
          2   -1    0    0  505    0 -0.00000000000E+00  0.00000000000E+00  0.80962136844E+03  0.80962136844E+03  0.00000000000E+00 0. -1.
         21   -1    0    0  503  502  0.00000000000E+00 -0.00000000000E+00 -0.90370704961E+03  0.90370704961E+03  0.00000000000E+00 0.  1.
         21    1    1    2  503  501 -0.11246890802E+03 -0.36963328852E+02 -0.78699354528E+03  0.79584821622E+03  0.00000000000E+00 0.  1.
         21    1    1    2  504  502 -0.42269625404E+02 -0.17105341805E+02 -0.92160535066E+02  0.10282450182E+03  0.00000000000E+00 0.  1.
         21    1    1    2  505  504  0.14124008878E+03 -0.70843229644E+01  0.39413059251E+03  0.41873365551E+03  0.00000000000E+00 0. -1.
          2    1    1    2  501    0  0.13498444647E+02  0.61152993621E+02  0.39093780666E+03  0.39592204449E+03  0.00000000000E+00 0. -1.
<scales pt_clust_3="14000.00000" pt_clust_4="45.59950" pt_clust_5="161.97050" pt_clust_6="62.54536"></scales>
<clustering>
<clus scale="   45.599">  2  4  1 -1</clus>
<clus scale="   62.545">  1  6  2 -1</clus>
<clus scale="  161.970">  1  5  2 -1</clus>
<clus scale="   45.599">  2  3  1 -1</clus>
</clustering>
</event>
<event>
 6    0  0.1849053E+002  0.1756223E+03  0.7546771E-02  0.1172108E+00
         21   -1    0    0  503  502  0.00000000000E+00  0.00000000000E+00  0.27109089868E+04  0.27109089868E+04  0.00000000000E+00 0.  1.
         -1   -1    0    0    0  501 -0.00000000000E+00 -0.00000000000E+00 -0.34748102543E+03  0.34748102543E+03  0.00000000000E+00 0.  1.
         21    1    1    2  503  501 -0.54986912024E+01 -0.36686765458E+02 -0.15820216072E+02  0.40329066457E+02  0.00000000000E+00 0. -1.
         21    1    1    2  504  502  0.23763906271E+02  0.68768968154E+02  0.22986981247E+03  0.24110998508E+03  0.00000000000E+00 0.  1.
         21    1    1    2  505  504  0.41706283270E+02  0.96201342803E+02  0.24460072706E+04  0.24482535980E+04  0.00000000000E+00 0.  1.
         -1    1    1    2    0  505 -0.59971498339E+02 -0.12828354550E+03 -0.29662890555E+03  0.32869736273E+03  0.00000000000E+00 0.  1.
<scales pt_clust_3="37.09655" pt_clust_4="72.11753" pt_clust_5="175.62234" pt_clust_6="14000.00000"></scales>
<clustering>
<clus scale="   37.097">  2  3  1 -1</clus>
<clus scale="   72.118">  1  4  2 -1</clus>
<clus scale="  175.622">  1  5  2 -1</clus>
<clus scale="   72.118">  1  3  2 -1</clus>
</clustering>
</event>
<event>
 6    0  0.1849053E+002  0.1745988E+03  0.7546771E-02  0.1173135E+00
         21   -1    0    0  503  502  0.00000000000E+00  0.00000000000E+00  0.56528071801E+02  0.56528071801E+02  0.00000000000E+00 0. -1.
          2   -1    0    0  505    0 -0.00000000000E+00 -0.00000000000E+00 -0.15284496599E+04  0.15284496599E+04  0.00000000000E+00 0. -1.
         21    1    1    2  503  504  0.37665648685E+02 -0.47711451274E+02 -0.59069439547E+02  0.84760146071E+02  0.00000000000E+00 0. -1.
         21    1    1    2  504  501 -0.10520445128E+02 -0.99983938890E+02 -0.13914558262E+03  0.17166525846E+03  0.00000000000E+00 0. -1.
         21    1    1    2  505  502  0.93172863153E+02  0.20080489950E+03 -0.54796505670E+03  0.59099026511E+03  0.00000000000E+00 0. -1.
          2    1    1    2  501    0 -0.12031806671E+03 -0.53109509335E+02 -0.72574150918E+03  0.73756206201E+03  0.00000000000E+00 0. -1.
<scales pt_clust_3="48.64700" pt_clust_4="48.64700" pt_clust_5="163.00535" pt_clust_6="131.51828"></scales>
<clustering>
<clus scale="   48.647">  3  4 -1 -1</clus>
<clus scale="  131.518">  2  6  1 -1</clus>
<clus scale="  163.005">  2  5  1 -1</clus>
<clus scale="  174.599">  1  3  2 -1</clus>
</clustering>
</event>
<event>
 6    0  0.1849053E+002  0.1035833E+03  0.7546771E-02  0.1272936E+00
          2   -1    0    0  505    0 -0.00000000000E+00  0.00000000000E+00  0.14381862473E+04  0.14381862473E+04  0.00000000000E+00 0. -1.
         21   -1    0    0  503  502  0.00000000000E+00 -0.00000000000E+00 -0.50549195246E+02  0.50549195246E+02  0.00000000000E+00 0.  1.
         21    1    1    2  503  501 -0.40280208573E+02 -0.51195446577E+02  0.25885656192E+02  0.70096620099E+02  0.00000000000E+00 0.  1.
         21    1    1    2  504  502 -0.75721720790E+02  0.36758001955E+02  0.49390441668E+02  0.97592752986E+02  0.00000000000E+00 0.  1.
         21    1    1    2  505  504  0.25649094978E+02  0.36087081707E+02  0.72800555761E+03  0.72935056417E+03  0.00000000000E+00 0. -1.
          2    1    1    2  501    0  0.90352834385E+02 -0.21649637085E+02  0.58435539661E+03  0.59169550532E+03  0.00000000000E+00 0. -1.
<scales pt_clust_3="62.15097" pt_clust_4="103.58330" pt_clust_5="44.27362" pt_clust_6="14000.00000"></scales>
<clustering>
<clus scale="   44.274">  1  5  2 -1</clus>
<clus scale="   62.151">  2  3  1 -1</clus>
<clus scale="  103.583">  2  4  1 -1</clus>
<clus scale="   62.151">  2  3  1 -1</clus>
</clustering>
</event>
<event>
 6    0  0.1849053E+002  0.1061740E+03  0.7546771E-02  0.1267824E+00
          1   -1    0    0  503    0 -0.00000000000E+00  0.00000000000E+00  0.64616724846E+03  0.64616724846E+03  0.00000000000E+00 0. -1.
         21   -1    0    0  505  502  0.00000000000E+00 -0.00000000000E+00 -0.68327484611E+03  0.68327484611E+03  0.00000000000E+00 0. -1.
         21    1    1    2  503  504  0.15622208367E+02  0.29209412756E+02  0.53223932219E+02  0.62689952533E+02  0.00000000000E+00 0.  1.
         21    1    1    2  504  502  0.27125006736E+02  0.31881968910E+02 -0.15158900046E+03  0.15726236356E+03  0.00000000000E+00 0. -1.
         21    1    1    2  505  501 -0.10543963065E+03 -0.10345542109E+03 -0.51116870618E+03  0.53208456663E+03  0.00000000000E+00 0. -1.
          1    1    1    2  501    0  0.62692415548E+02  0.42364039422E+02  0.57242617677E+03  0.57740521184E+03  0.00000000000E+00 0. -1.
<scales pt_clust_3="33.12466" pt_clust_4="42.01572" pt_clust_5="106.17396" pt_clust_6="14000.00000"></scales>
<clustering>
<clus scale="   33.125">  1  3  2 -1</clus>
<clus scale="   42.016">  2  4  1 -1</clus>
<clus scale="  106.174">  2  5  1 -1</clus>
<clus scale="   42.016">  2  3  1 -1</clus>
</clustering>
</event>
<event>
 6    0  0.1849053E+002  0.1481325E+03  0.7546771E-02  0.1202787E+00
         21   -1    0    0  505  502  0.00000000000E+00  0.00000000000E+00  0.28020024286E+03  0.28020024286E+03  0.00000000000E+00 0. -1.
          1   -1    0    0  504    0 -0.00000000000E+00 -0.00000000000E+00 -0.22947189075E+04  0.22947189075E+04  0.00000000000E+00 0. -1.
         21    1    1    2  503  501  0.45254531091E+02  0.70361918854E+02 -0.90293393419E+03  0.90680122503E+03  0.00000000000E+00 0. -1.
         21    1    1    2  504  502 -0.10397287144E+03 -0.12517111406E+03  0.24344834076E+03  0.29282291647E+03  0.00000000000E+00 0. -1.
         21    1    1    2  505  503  0.28665532479E+02  0.12462988193E+02 -0.15742317458E+02  0.34997991170E+02  0.00000000000E+00 0. -1.
          1    1    1    2  501    0  0.30052807867E+02  0.42346207009E+02 -0.13392907538E+04  0.13402970177E+04  0.00000000000E+00 0. -1.
<scales pt_clust_3="46.61092" pt_clust_4="135.78873" pt_clust_5="31.25762" pt_clust_6="46.61092"></scales>
<clustering>
<clus scale="   31.258">  1  5  2 -1</clus>
<clus scale="   46.611">  3  6 -1 -1</clus>
<clus scale="  135.789">  1  4  2 -1</clus>
<clus scale="   31.258">  1  3  2 -1</clus>
</clustering>
</event>
<event>
 6    0  0.1849053E+002  0.1972779E+03  0.7546771E-02  0.1152056E+00
          2   -1    0    0  504    0 -0.00000000000E+00  0.00000000000E+00  0.74904889042E+03  0.74904889042E+03  0.00000000000E+00 0. -1.
         21   -1    0    0  503  502  0.00000000000E+00 -0.00000000000E+00 -0.46256777263E+03  0.46256777263E+03  0.00000000000E+00 0. -1.
         21    1    1    2  503  505  0.49971949075E+02  0.14681515003E+03 -0.39055968488E+03  0.42022464400E+03  0.00000000000E+00 0. -1.
         21    1    1    2  504  502  0.18901852750E+02  0.50043877826E+02 -0.18262428512E+02  0.56525976687E+02  0.00000000000E+00 0. -1.
         21    1    1    2  505  501 -0.55860061704E+02 -0.13156289022E+03  0.28115614519E+03  0.31540120253E+03  0.00000000000E+00 0.  1.
          2    1    1    2  501    0 -0.13013740121E+02 -0.65296137630E+02  0.41414708599E+03  0.41946483983E+03  0.00000000000E+00 0. -1.
<scales pt_clust_3="197.27792" pt_clust_4="53.49458" pt_clust_5="14000.00000" pt_clust_6="66.25035"></scales>
<clustering>
<clus scale="   53.495">  2  4  1 -1</clus>
<clus scale="   66.250">  1  6  2 -1</clus>
<clus scale="  197.278">  2  3  1 -1</clus>
<clus scale="   53.495">  2  3  1 -1</clus>
</clustering>
</event>
<event>
 6    0  0.1849053E+002  0.1988148E+03  0.7546771E-02  0.1150743E+00
         21   -1    0    0  503  502  0.00000000000E+00  0.00000000000E+00  0.35409077004E+02  0.35409077004E+02  0.00000000000E+00 0.  1.
          2   -1    0    0  505    0 -0.00000000000E+00 -0.00000000000E+00 -0.12763161330E+04  0.12763161330E+04  0.00000000000E+00 0.  1.
         21    1    1    2  503  501 -0.76028746632E+02  0.81196632646E+02 -0.50609802817E+03  0.51817803657E+03  0.00000000000E+00 0.  1.
         21    1    1    2  504  502  0.96664790265E+02 -0.48560228957E+02 -0.20253017995E+03  0.22960978051E+03  0.00000000000E+00 0.  1.
         21    1    1    2  505  504  0.60583896232E+02 -0.64687000208E+02 -0.17523859488E+03  0.19637561360E+03  0.00000000000E+00 0.  1.
          2    1    1    2  501    0 -0.81219939865E+02  0.32050596519E+02 -0.35704025304E+03  0.36756177937E+03  0.00000000000E+00 0.  1.
<scales pt_clust_3="39.37621" pt_clust_4="196.86114" pt_clust_5="31.38413" pt_clust_6="39.37621"></scales>
<clustering>
<clus scale="   31.384">  4  5 -1 -1</clus>
<clus scale="   39.376">  3  6 -1 -1</clus>
<clus scale="  196.861">  1  4  2 -1</clus>
<clus scale="  196.861">  1  3  2 -1</clus>
</clustering>
</event>
<event>
 6    0  0.1849053E+002  0.1430679E+03  0.7546771E-02  0.1209259E+00
          2   -1    0    0  504    0 -0.00000000000E+00  0.00000000000E+00  0.47435806979E+03  0.47435806979E+03  0.00000000000E+00 0. -1.
         21   -1    0    0  503  502  0.00000000000E+00 -0.00000000000E+00 -0.17548743068E+04  0.17548743068E+04  0.00000000000E+00 0.  1.
         21    1    1    2  503  505 -0.35575294426E+02  0.15607806715E+02 -0.21526763176E+03  0.21874496220E+03  0.00000000000E+00 0. -1.
         21    1    1    2  504  502  0.27655664592E+01 -0.32192217879E+02  0.19050362852E+02  0.37508713316E+02  0.00000000000E+00 0. -1.
         21    1    1    2  505  501 -0.10473613402E+03  0.15288836033E+02 -0.15161039797E+04  0.15197942898E+04  0.00000000000E+00 0.  1.
          2    1    1    2  501    0  0.13754586199E+03  0.12955751308E+01  0.43180501151E+03  0.45318441129E+03  0.00000000000E+00 0. -1.
<scales pt_clust_3="38.78837" pt_clust_4="32.31079" pt_clust_5="14000.00000" pt_clust_6="143.06791"></scales>
<clustering>
<clus scale="   32.311">  1  4  2 -1</clus>
<clus scale="   38.788">  2  3  1 -1</clus>
<clus scale="  143.068">  1  6  2 -1</clus>
<clus scale="   38.788">  2  3  1 -1</clus>
</clustering>
</event>
<event>
 6    0  0.1849053E+002  0.3269844E+03  0.7546771E-02  0.1072479E+00
         21   -1    0    0  504  502  0.00000000000E+00  0.00000000000E+00  0.78426361183E+02  0.78426361183E+02  0.00000000000E+00 0.  1.
          1   -1    0    0  505    0 -0.00000000000E+00 -0.00000000000E+00 -0.13142190674E+04  0.13142190674E+04  0.00000000000E+00 0.  1.
         21    1    1    2  503  501 -0.24610793223E+02  0.82593195648E+02 -0.84788640805E+02  0.12089847278E+03  0.00000000000E+00 0. -1.
         21    1    1    2  504  503 -0.16269068460E+03  0.76093159935E+02 -0.22526412038E+03  0.28810128735E+03  0.00000000000E+00 0.  1.
         21    1    1    2  505  502  0.19321189363E+03 -0.20737776030E+03 -0.79353857572E+03  0.84263861914E+03  0.00000000000E+00 0.  1.
          1    1    1    2  501    0 -0.59104158101E+01  0.48691404719E+02 -0.13220136932E+03  0.14100704932E+03  0.00000000000E+00 0.  1.
<scales pt_clust_3="43.61656" pt_clust_4="118.83799" pt_clust_5="283.43671" pt_clust_6="118.83799"></scales>
<clustering>
<clus scale="   43.617">  3  6 -1 -1</clus>
<clus scale="  118.838">  3  4 -1 -1</clus>
<clus scale="  283.437">  2  5  1 -1</clus>
<clus scale="  326.984">  1  3  2 -1</clus>
</clustering>
</event>
<event>
 6    0  0.1849053E+002  0.1573932E+03  0.7546771E-02  0.1191672E+00
         21   -1    0    0  501  502  0.00000000000E+00  0.00000000000E+00  0.34482421797E+02  0.34482421797E+02  0.00000000000E+00 0.  1.
          2   -1    0    0  503    0 -0.00000000000E+00 -0.00000000000E+00 -0.29517726803E+04  0.29517726803E+04  0.00000000000E+00 0.  1.
         21    1    1    2  503  504 -0.99168260533E+01  0.50235431311E+02 -0.67054339289E+03  0.67249563846E+03  0.00000000000E+00 0.  1.
         21    1    1    2  504  505 -0.71648482216E+02 -0.68548141624E+02 -0.13306965005E+03  0.16595145220E+03  0.00000000000E+00 0.  1.
         21    1    1    2  505  502 -0.79245165234E+01 -0.56227844134E+02 -0.36794961616E+02  0.67662675223E+02  0.00000000000E+00 0.  1.
          2    1    1    2  501    0  0.89489824793E+02  0.74540554446E+02 -0.20768822539E+04  0.20801453362E+04  0.00000000000E+00 0.  1.
<scales pt_clust_3="51.20490" pt_clust_4="46.77527" pt_clust_5="46.77527" pt_clust_6="144.74785"></scales>
<clustering>
<clus scale="   46.775">  4  5 -1 -1</clus>
<clus scale="   51.205">  2  3  1 -1</clus>
<clus scale="  144.748">  2  6  1 -1</clus>
<clus scale="  157.393">  1  3  2 -1</clus>
</clustering>
</event>
<event>
 6    0  0.3496995E+002  0.1512994E+03  0.7546771E-02  0.1198885E+00
          1   -1    0    0  505    0 -0.00000000000E+00  0.00000000000E+00  0.15886092570E+04  0.15886092570E+04  0.00000000000E+00 0. -1.
         21   -1    0    0  501  502  0.00000000000E+00 -0.00000000000E+00 -0.57141968859E+03  0.57141968859E+03  0.00000000000E+00 0. -1.
         21    1    1    2  503  502 -0.15890221926E+03  0.50289565822E+01 -0.53197137791E+03  0.55521955352E+03  0.00000000000E+00 0. -1.
         21    1    1    2  504  503  0.87962418485E+02 -0.47843090648E+01  0.75390454393E+02  0.11594825265E+03  0.00000000000E+00 0.  1.
         21    1    1    2  505  504  0.24576742587E+02 -0.38708353575E+02  0.69276297037E+02  0.83075617625E+02  0.00000000000E+00 0. -1.
          1    1    1    2  501    0  0.46363058187E+02  0.38463706057E+02  0.14044941949E+04  0.14057855218E+04  0.00000000000E+00 0. -1.
<scales pt_clust_3="151.29938" pt_clust_4="14000.00000" pt_clust_5="45.85142" pt_clust_6="69.24150"></scales>
<clustering>
<clus scale="   45.851">  1  5  2 -1</clus>
<clus scale="   69.241">  1  6  2 -1</clus>
<clus scale="  151.299">  2  3  1 -1</clus>
<clus scale="  151.299">  2  3  1 -1</clus>
</clustering>
</event>
<event>
 6    0  0.1849053E+002  0.1014888E+03  0.7546771E-02  0.1277196E+00
          1   -1    0    0  503    0 -0.00000000000E+00  0.00000000000E+00  0.78784008813E+03  0.78784008813E+03  0.00000000000E+00 0. -1.
         21   -1    0    0  505  502  0.00000000000E+00 -0.00000000000E+00 -0.10825703046E+03  0.10825703046E+03  0.00000000000E+00 0. -1.
         21    1    1    2  503  504  0.29974581105E+02 -0.30541251084E+02  0.12249011979E+03  0.12975004038E+03  0.00000000000E+00 0. -1.
         21    1    1    2  504  502 -0.89498343825E+02  0.53699809067E+02  0.16132091874E+00  0.10437264520E+03  0.00000000000E+00 0. -1.
         21    1    1    2  505  501  0.28828244014E+02  0.34343538075E+02 -0.40845570293E+02  0.60653993051E+02  0.00000000000E+00 0. -1.
          1    1    1    2  501    0  0.30695518705E+02 -0.57502096059E+02  0.59777718725E+03  0.60132043997E+03  0.00000000000E+00 0. -1.
<scales pt_clust_3="42.79303" pt_clust_4="14000.00000" pt_clust_5="44.78197" pt_clust_6="101.48882"></scales>
<clustering>
<clus scale="   42.793">  1  3  2 -1</clus>
<clus scale="   44.782">  2  5  1 -1</clus>
<clus scale="  101.489">  1  6  2 -1</clus>
<clus scale="   44.782">  2  3  1 -1</clus>
</clustering>
</event>
<event>
 6    0  0.1849053E+002  0.1116226E+03  0.7546771E-02  0.1257594E+00
         21   -1    0    0  501  502  0.00000000000E+00  0.00000000000E+00  0.18301499920E+03  0.18301499920E+03  0.00000000000E+00 0.  1.
          2   -1    0    0  505    0 -0.00000000000E+00 -0.00000000000E+00 -0.10965687364E+04  0.10965687364E+04  0.00000000000E+00 0. -1.
         21    1    1    2  503  504  0.81172854461E+02 -0.75163921625E+02  0.12678003627E+03  0.16826118094E+03  0.00000000000E+00 0.  1.
         21    1    1    2  504  502 -0.24767111638E+02 -0.24009383106E+02  0.16368660385E+02  0.38181059949E+02  0.00000000000E+00 0.  1.
         21    1    1    2  505  503  0.39807277982E+02  0.74634652898E+02 -0.38848279607E+03  0.39758500177E+03  0.00000000000E+00 0.  1.
          2    1    1    2  501    0 -0.96213020806E+02  0.24538651834E+02 -0.66821963783E+03  0.67555649297E+03  0.00000000000E+00 0. -1.
<scales pt_clust_3="14000.00000" pt_clust_4="34.49435" pt_clust_5="83.62784" pt_clust_6="111.62256"></scales>
<clustering>
<clus scale="   34.494">  1  4  2 -1</clus>
<clus scale="   83.628">  2  5  1 -1</clus>
<clus scale="  111.623">  2  6  1 -1</clus>
<clus scale="   34.494">  1  3  2 -1</clus>
</clustering>
</event>
<event>
 6    0  0.1849053E+002  0.7726739E+02  0.7546771E-02  0.1336990E+00
         21   -1    0    0  505  502  0.00000000000E+00  0.00000000000E+00  0.10603227074E+04  0.10603227074E+04  0.00000000000E+00 0. -1.
         -3   -1    0    0    0  501 -0.00000000000E+00 -0.00000000000E+00 -0.76131809740E+02  0.76131809740E+02  0.00000000000E+00 0. -1.
         21    1    1    2  503  501  0.46637436273E+02 -0.15371738820E+02  0.76346494228E+02  0.90775150771E+02  0.00000000000E+00 0.  1.
         21    1    1    2  504  502  0.30751130709E+02 -0.81405631940E+02  0.80307540373E+03  0.80777633850E+03  0.00000000000E+00 0. -1.
         21    1    1    2  505  503  0.17155719072E+02  0.25276392386E+02  0.11494018670E+03  0.11893048906E+03  0.00000000000E+00 0.  1.
         -3    1    1    2    0  504 -0.94544286053E+02  0.71500978374E+02 -0.10171187054E+02  0.11897253876E+03  0.00000000000E+00 0. -1.
<scales pt_clust_3="49.91563" pt_clust_4="77.26739" pt_clust_5="30.54856" pt_clust_6="14000.00000"></scales>
<clustering>
<clus scale="   30.549">  1  5  2 -1</clus>
<clus scale="   49.916">  2  3  1 -1</clus>
<clus scale="   77.267">  1  4  2 -1</clus>
<clus scale="   30.549">  1  3  2 -1</clus>
</clustering>
</event>
<event>
 6    0  0.1849053E+002  0.9613342E+02  0.7546771E-02  0.1288644E+00
          2   -1    0    0  504    0 -0.00000000000E+00  0.00000000000E+00  0.26870877681E+03  0.26870877681E+03  0.00000000000E+00 0. -1.
         21   -1    0    0  505  502  0.00000000000E+00 -0.00000000000E+00 -0.13003402518E+03  0.13003402518E+03  0.00000000000E+00 0. -1.
         21    1    1    2  503  501  0.67066774710E+02  0.46573600909E+01  0.22479943576E+02  0.70887171873E+02  0.00000000000E+00 0. -1.
         21    1    1    2  504  502 -0.29629518457E+02  0.72213255324E+02 -0.49752380855E+02  0.92563286508E+02  0.00000000000E+00 0. -1.
         21    1    1    2  505  503  0.31894910758E+02 -0.26387630252E+02 -0.72482309428E+01  0.42025340146E+02  0.00000000000E+00 0. -1.
          2    1    1    2  501    0 -0.69332167011E+02 -0.50482985162E+02  0.17319541985E+03  0.19326700347E+03  0.00000000000E+00 0. -1.
<scales pt_clust_3="37.23467" pt_clust_4="78.05551" pt_clust_5="37.23467" pt_clust_6="83.60637"></scales>
<clustering>
<clus scale="   37.235">  3  5 -1 -1</clus>
<clus scale="   78.056">  2  4  1 -1</clus>
<clus scale="   83.606">  1  6  2 -1</clus>
<clus scale="   78.056">  2  3  1 -1</clus>
</clustering>
</event>
<event>
 6    0  0.1849053E+002  0.8575789E+02  0.7546771E-02  0.1313462E+00
          1   -1    0    0  503    0 -0.00000000000E+00  0.00000000000E+00  0.20635102832E+04  0.20635102832E+04  0.00000000000E+00 0. -1.
         21   -1    0    0  504  502  0.00000000000E+00 -0.00000000000E+00 -0.74159124798E+02  0.74159124798E+02  0.00000000000E+00 0.  1.
         21    1    1    2  503  505 -0.67856080479E+01 -0.63829008906E+02  0.42472114406E+03  0.42954422016E+03  0.00000000000E+00 0. -1.
         21    1    1    2  504  501 -0.53009670727E+02  0.15721726297E+02  0.56425780549E+02  0.79000421384E+02  0.00000000000E+00 0. -1.
         21    1    1    2  505  502 -0.38784558159E+02  0.18024447262E+02 -0.50976499990E+02  0.66541161712E+02  0.00000000000E+00 0.  1.
          1    1    1    2  501    0  0.98579836934E+02  0.30082835347E+02  0.15591807337E+04  0.15625836047E+04  0.00000000000E+00 0. -1.
<scales pt_clust_3="62.34702" pt_clust_4="85.75789" pt_clust_5="42.76824" pt_clust_6="14000.00000"></scales>
<clustering>
<clus scale="   42.768">  2  5  1 -1</clus>
<clus scale="   62.347">  1  3  2 -1</clus>
<clus scale="   85.758">  2  4  1 -1</clus>
<clus scale="   42.768">  2  3  1 -1</clus>
</clustering>
</event>
<event>
 6    0  0.1849053E+002  0.5783905E+02  0.7546771E-02  0.1407131E+00
         21   -1    0    0  505  502  0.00000000000E+00  0.00000000000E+00  0.10345108325E+04  0.10345108325E+04  0.00000000000E+00 0.  1.
          4   -1    0    0  503    0 -0.00000000000E+00 -0.00000000000E+00 -0.83983759111E+02  0.83983759111E+02  0.00000000000E+00 0.  1.
         21    1    1    2  503  502 -0.95052797590E+02 -0.10497274945E+03  0.63562040953E+03  0.65120474312E+03  0.00000000000E+00 0.  1.
         21    1    1    2  504  501  0.18051892675E+02  0.41725095749E+02  0.76541446106E+02  0.89024981979E+02  0.00000000000E+00 0.  1.
         21    1    1    2  505  504  0.31390685996E+02  0.30109477293E+02  0.29509620879E+03  0.29828464297E+03  0.00000000000E+00 0.  1.
          4    1    1    2  501    0  0.45610218920E+02  0.33138176410E+02 -0.56730991063E+02  0.79980223510E+02  0.00000000000E+00 0.  1.
<scales pt_clust_3="57.83905" pt_clust_4="49.99748" pt_clust_5="43.49662" pt_clust_6="14000.00000"></scales>
<clustering>
<clus scale="   43.497">  1  5  2 -1</clus>
<clus scale="   49.997">  1  4  2 -1</clus>
<clus scale="   57.839">  1  3  2 -1</clus>
<clus scale="   43.497">  1  3  2 -1</clus>
</clustering>
</event>
<event>
 6    0  0.1849053E+002  0.1532764E+03  0.7546771E-02  0.1196504E+00
         21   -1    0    0  505  502  0.00000000000E+00  0.00000000000E+00  0.29178867239E+02  0.29178867239E+02  0.00000000000E+00 0.  1.
          2   -1    0    0  504    0 -0.00000000000E+00 -0.00000000000E+00 -0.38867753154E+04  0.38867753154E+04  0.00000000000E+00 0.  1.
         21    1    1    2  503  502  0.31586143197E+02 -0.34175666607E+02 -0.49336344554E+02  0.67821350061E+02  0.00000000000E+00 0.  1.
         21    1    1    2  504  503  0.91905574403E+02  0.10475761610E+03 -0.24745706029E+03  0.28399962927E+03  0.00000000000E+00 0.  1.
         21    1    1    2  505  501 -0.78417610891E+02 -0.44467545031E+02 -0.15238512183E+04  0.15265153847E+04  0.00000000000E+00 0.  1.
          2    1    1    2  501    0 -0.45074106709E+02 -0.26114404463E+02 -0.20369518251E+04  0.20376178187E+04  0.00000000000E+00 0.  1.
<scales pt_clust_3="46.53666" pt_clust_4="141.41603" pt_clust_5="44.94105" pt_clust_6="44.94105"></scales>
<clustering>
<clus scale="   44.941">  5  6 -1 -1</clus>
<clus scale="   46.537">  1  3  2 -1</clus>
<clus scale="  141.416">  1  4  2 -1</clus>
<clus scale="   46.537">  1  3  2 -1</clus>
</clustering>
</event>
<event>
 6    0  0.1849053E+002  0.1307795E+03  0.7546771E-02  0.1226304E+00
          1   -1    0    0  503    0 -0.00000000000E+00  0.00000000000E+00  0.67329736293E+03  0.67329736293E+03  0.00000000000E+00 0.  1.
         21   -1    0    0  504  502  0.00000000000E+00 -0.00000000000E+00 -0.31280927186E+03  0.31280927186E+03  0.00000000000E+00 0.  1.
         21    1    1    2  503  505  0.67870807029E+02  0.48588179510E+02 -0.13624138131E+03  0.15977788212E+03  0.00000000000E+00 0.  1.
         21    1    1    2  504  501 -0.11236533381E+03 -0.39258306128E+02  0.32646117616E+03  0.34748249220E+03  0.00000000000E+00 0.  1.
         21    1    1    2  505  502  0.25138841419E+02  0.30274940035E+02 -0.15024648846E+03  0.15531432850E+03  0.00000000000E+00 0.  1.
          1    1    1    2  501    0  0.19355685360E+02 -0.39604813417E+02  0.32051478468E+03  0.32353193196E+03  0.00000000000E+00 0.  1.
<scales pt_clust_3="33.19718" pt_clust_4="121.51406" pt_clust_5="33.19718" pt_clust_6="44.08156"></scales>
<clustering>
<clus scale="   33.197">  3  5 -1 -1</clus>
<clus scale="   44.082">  1  6  2 -1</clus>
<clus scale="  121.514">  1  4  2 -1</clus>
<clus scale="  130.780">  2  3  1 -1</clus>
</clustering>
</event>
<event>
 6    0  0.1849053E+002  0.1209859E+03  0.7546771E-02  0.1241479E+00
         21   -1    0    0  504  502  0.00000000000E+00  0.00000000000E+00  0.18045720908E+03  0.18045720908E+03  0.00000000000E+00 0.  1.
         -3   -1    0    0    0  501 -0.00000000000E+00 -0.00000000000E+00 -0.19089647120E+04  0.19089647120E+04  0.00000000000E+00 0.  1.
         21    1    1    2  503  501  0.80503045647E+02 -0.34096563145E+02 -0.35269746998E+03  0.36337146463E+03  0.00000000000E+00 0.  1.
         21    1    1    2  504  503  0.53292866207E+02 -0.38631564714E+02  0.15054959555E+02  0.67521694203E+02  0.00000000000E+00 0.  1.
         21    1    1    2  505  502  0.45367001836E+01  0.38724324449E+02  0.12758605812E+03  0.13341048377E+03  0.00000000000E+00 0.  1.
         -3    1    1    2    0  505 -0.13833261204E+03  0.34003803410E+02 -0.15184510506E+04  0.15251182784E+04  0.00000000000E+00 0.  1.
<scales pt_clust_3="14000.00000" pt_clust_4="57.42598" pt_clust_5="38.98916" pt_clust_6="120.98594"></scales>
<clustering>
<clus scale="   38.989">  1  5  2 -1</clus>
<clus scale="   57.426">  1  4  2 -1</clus>
<clus scale="  120.986">  2  6  1 -1</clus>
<clus scale="   38.989">  1  3  2 -1</clus>
</clustering>
</event>
<event>
 6    0  0.1849053E+002  0.1080209E+03  0.7546771E-02  0.1264279E+00
         21   -1    0    0  505  502  0.00000000000E+00  0.00000000000E+00  0.35605509310E+03  0.35605509310E+03  0.00000000000E+00 0.  1.
         -1   -1    0    0    0  501 -0.00000000000E+00 -0.00000000000E+00 -0.10493375715E+04  0.10493375715E+04  0.00000000000E+00 0. -1.
         21    1    1    2  503  501  0.37899751245E+02 -0.58192179029E+01 -0.49296872901E+03  0.49445770519E+03  0.00000000000E+00 0. -1.
         21    1    1    2  504  502 -0.52565963069E+02  0.78875939078E+02  0.60645606234E+02  0.11252770234E+03  0.00000000000E+00 0. -1.
         21    1    1    2  505  503  0.41966002009E+01 -0.12012731104E+03  0.25409973870E+03  0.28109581910E+03  0.00000000000E+00 0.  1.
         -1    1    1    2    0  504  0.10469611623E+02  0.47070589864E+02 -0.51505909432E+03  0.51731143796E+03  0.00000000000E+00 0. -1.
<scales pt_clust_3="38.34390" pt_clust_4="14000.00000" pt_clust_5="108.02091" pt_clust_6="61.82647"></scales>
<clustering>
<clus scale="   38.344">  2  3  1 -1</clus>
<clus scale="   61.826">  2  6  1 -1</clus>
<clus scale="  108.021">  1  5  2 -1</clus>
<clus scale="  108.021">  1  3  2 -1</clus>
</clustering>
</event>
<event>
 6    0  0.1849053E+002  0.2098836E+03  0.7546771E-02  0.1141658E+00
         21   -1    0    0  505  502  0.00000000000E+00  0.00000000000E+00  0.26898947529E+03  0.26898947529E+03  0.00000000000E+00 0. -1.
          2   -1    0    0  503    0 -0.00000000000E+00 -0.00000000000E+00 -0.21181953690E+04  0.21181953690E+04  0.00000000000E+00 0. -1.
         21    1    1    2  503  504 -0.20158125897E+02 -0.44253504565E+02 -0.33358195359E+03  0.33710776091E+03  0.00000000000E+00 0. -1.
         21    1    1    2  504  502 -0.14129739054E+01 -0.10578894391E+03  0.31048876384E+02  0.11026028239E+03  0.00000000000E+00 0. -1.
         21    1    1    2  505  501 -0.10104762765E+03 -0.80172964737E+02  0.16440796492E+03  0.20896962999E+03  0.00000000000E+00 0. -1.
          2    1    1    2  501    0  0.12261872745E+03  0.23021541321E+03 -0.17110807814E+04  0.17308471710E+04  0.00000000000E+00 0. -1.
<scales pt_clust_3="48.62841" pt_clust_4="106.78824" pt_clust_5="209.88357" pt_clust_6="14000.00000"></scales>
<clustering>
<clus scale="   48.628">  2  3  1 -1</clus>
<clus scale="  106.788">  1  4  2 -1</clus>
<clus scale="  209.884">  1  5  2 -1</clus>
<clus scale="  106.788">  1  3  2 -1</clus>
</clustering>
</event>
<event>
 6    0  0.1849053E+002  0.8794036E+02  0.7546771E-02  0.1307917E+00
         21   -1    0    0  503  502  0.00000000000E+00  0.00000000000E+00  0.70296813343E+02  0.70296813343E+02  0.00000000000E+00 0. -1.
         -4   -1    0    0    0  501 -0.00000000000E+00 -0.00000000000E+00 -0.83006751436E+03  0.83006751436E+03  0.00000000000E+00 0. -1.
         21    1    1    2  503  504  0.12443632797E+03  0.41289742058E+02 -0.39285102941E+02  0.13686694938E+03  0.00000000000E+00 0. -1.
         21    1    1    2  504  501  0.34090242960E+02  0.32682527337E+01 -0.10755872827E+03  0.11287916623E+03  0.00000000000E+00 0. -1.
         21    1    1    2  505  502 -0.51167298196E+02 -0.20655978202E+02 -0.42405519021E+02  0.69591593484E+02  0.00000000000E+00 0.  1.
         -4    1    1    2    0  505 -0.10735927274E+03 -0.23902016590E+02 -0.57052135078E+03  0.58102661861E+03  0.00000000000E+00 0. -1.
<scales pt_clust_3="87.94036" pt_clust_4="34.24655" pt_clust_5="52.63050" pt_clust_6="14000.00000"></scales>
<clustering>
<clus scale="   34.247">  2  4  1 -1</clus>
<clus scale="   52.630">  1  5  2 -1</clus>
<clus scale="   87.940">  1  3  2 -1</clus>
<clus scale="   52.630">  1  3  2 -1</clus>
</clustering>
</event>
<event>
 6    0  0.1849053E+002  0.9732861E+02  0.7546771E-02  0.1286016E+00
          1   -1    0    0  503    0 -0.00000000000E+00  0.00000000000E+00  0.36413050868E+03  0.36413050868E+03  0.00000000000E+00 0.  1.
         21   -1    0    0  505  502  0.00000000000E+00 -0.00000000000E+00 -0.18068750989E+03  0.18068750989E+03  0.00000000000E+00 0. -1.
         21    1    1    2  503  504 -0.47684886832E+02  0.37113605908E+01  0.39993979858E+02  0.62346941019E+02  0.00000000000E+00 0. -1.
         21    1    1    2  504  502 -0.10770951966E+03 -0.92567010040E+02 -0.20862275771E+01  0.14203641899E+03  0.00000000000E+00 0. -1.
         21    1    1    2  505  501  0.70530511836E+02  0.21445263777E+02 -0.68431627420E+02  0.10058498929E+03  0.00000000000E+00 0.  1.
          1    1    1    2  501    0  0.84863894653E+02  0.67410385672E+02  0.21396687393E+03  0.23984966927E+03  0.00000000000E+00 0.  1.
<scales pt_clust_3="47.82910" pt_clust_4="97.32861" pt_clust_5="71.43619" pt_clust_6="14000.00000"></scales>
<clustering>
<clus scale="   47.829">  1  3  2 -1</clus>
<clus scale="   71.436">  2  5  1 -1</clus>
<clus scale="   97.329">  2  4  1 -1</clus>
<clus scale="   71.436">  2  3  1 -1</clus>
</clustering>
</event>
<event>
 6    0  0.1849053E+002  0.2112620E+03  0.7546771E-02  0.1140570E+00
          3   -1    0    0  503    0 -0.00000000000E+00  0.00000000000E+00  0.12048826772E+04  0.12048826772E+04  0.00000000000E+00 0. -1.
         21   -1    0    0  504  502  0.00000000000E+00 -0.00000000000E+00 -0.85851512168E+02  0.85851512168E+02  0.00000000000E+00 0.  1.
         21    1    1    2  503  505  0.77397853640E+02 -0.41682587785E+02  0.80491997611E+02  0.11919239721E+03  0.00000000000E+00 0. -1.
         21    1    1    2  504  501 -0.38365977978E+02 -0.11359725242E+03  0.13831274575E+03  0.18304835334E+03  0.00000000000E+00 0.  1.
         21    1    1    2  505  502  0.39050841985E+02 -0.48224042547E+02 -0.20748678985E+00  0.62052957948E+02  0.00000000000E+00 0.  1.
          3    1    1    2  501    0 -0.78082717647E+02  0.20350388275E+03  0.90043390842E+03  0.92644048083E+03  0.00000000000E+00 0. -1.
<scales pt_clust_3="57.97009" pt_clust_4="119.90114" pt_clust_5="57.97009" pt_clust_6="199.67690"></scales>
<clustering>
<clus scale="   57.970">  3  5 -1 -1</clus>
<clus scale="  119.901">  2  4  1 -1</clus>
<clus scale="  199.677">  1  6  2 -1</clus>
<clus scale="  119.901">  2  3  1 -1</clus>
</clustering>
</event>
<event>
 6    0  0.1849053E+002  0.1706374E+03  0.7546771E-02  0.1177185E+00
         21   -1    0    0  505  502  0.00000000000E+00  0.00000000000E+00  0.88033898234E+02  0.88033898234E+02  0.00000000000E+00 0. -1.
          1   -1    0    0  504    0 -0.00000000000E+00 -0.00000000000E+00 -0.87871477773E+03  0.87871477773E+03  0.00000000000E+00 0. -1.
         21    1    1    2  503  502 -0.63484428119E+02  0.69566415552E+02 -0.48364129215E+02  0.10587184603E+03  0.00000000000E+00 0. -1.
         21    1    1    2  504  503  0.10726820768E+03  0.99565505941E+02 -0.26482214782E+03  0.30257317847E+03  0.00000000000E+00 0. -1.
         21    1    1    2  505  501  0.15564547060E+02  0.37934304893E+02 -0.80316082768E+01  0.41782452589E+02  0.00000000000E+00 0.  1.
          1    1    1    2  501    0 -0.59348326623E+02 -0.20706622639E+03 -0.46946299419E+03  0.51652119888E+03  0.00000000000E+00 0. -1.
<scales pt_clust_3="102.36423" pt_clust_4="14000.00000" pt_clust_5="41.00325" pt_clust_6="170.63736"></scales>
<clustering>
<clus scale="   41.003">  1  5  2 -1</clus>
<clus scale="  102.364">  1  3  2 -1</clus>
<clus scale="  170.637">  1  6  2 -1</clus>
<clus scale="   41.003">  1  3  2 -1</clus>
</clustering>
</event>
<event>
 6    0  0.1849053E+002  0.2084322E+03  0.7546771E-02  0.1142814E+00
         -2   -1    0    0    0  501 -0.00000000000E+00  0.00000000000E+00  0.24332670988E+04  0.24332670988E+04  0.00000000000E+00 0.  1.
         21   -1    0    0  505  502  0.00000000000E+00 -0.00000000000E+00 -0.27385089563E+02  0.27385089563E+02  0.00000000000E+00 0. -1.
         21    1    1    2  503  504  0.56068292807E+02  0.54858635205E+02  0.24118317896E+03  0.25361870815E+03  0.00000000000E+00 0. -1.
         21    1    1    2  504  502  0.12185214978E+03 -0.26119125190E+02  0.53509581849E+03  0.54941577159E+03  0.00000000000E+00 0. -1.
         21    1    1    2  505  501 -0.18824414821E+03  0.21924585450E+02  0.66089829414E+03  0.68753407333E+03  0.00000000000E+00 0. -1.
         -2    1    1    2    0  503  0.10323705628E+02 -0.50664095465E+02  0.96870471760E+03  0.97008363525E+03  0.00000000000E+00 0.  1.
<scales pt_clust_3="73.65025" pt_clust_4="73.65025" pt_clust_5="183.49477" pt_clust_6="51.70522"></scales>
<clustering>
<clus scale="   51.705">  1  6  2 -1</clus>
<clus scale="   73.650">  3  4 -1 -1</clus>
<clus scale="  183.495">  2  5  1 -1</clus>
<clus scale="  183.495">  2  3  1 -1</clus>
</clustering>
</event>
<event>
 6    0  0.1849053E+002  0.1162586E+03  0.7546771E-02  0.1249400E+00
          4   -1    0    0  505    0 -0.00000000000E+00  0.00000000000E+00  0.75516240371E+02  0.75516240371E+02  0.00000000000E+00 0. -1.
         21   -1    0    0  504  502  0.00000000000E+00 -0.00000000000E+00 -0.43493876924E+03  0.43493876924E+03  0.00000000000E+00 0.  1.
         21    1    1    2  503  501  0.65081762878E+02  0.21437699516E+01 -0.47190676067E+02  0.80418850506E+02  0.00000000000E+00 0. -1.
         21    1    1    2  504  503  0.47270053439E+02 -0.27469850441E+02 -0.94087028232E+02  0.10881828668E+03  0.00000000000E+00 0. -1.
         21    1    1    2  505  502 -0.10131834551E+03 -0.84361666479E+01 -0.25225471199E+03  0.27197245406E+03  0.00000000000E+00 0.  1.
          4    1    1    2  501    0 -0.11033470803E+02  0.33762247137E+02  0.34109887422E+02  0.49245418362E+02  0.00000000000E+00 0. -1.
<scales pt_clust_3="45.10320" pt_clust_4="45.10320" pt_clust_5="104.54233" pt_clust_6="35.51939"></scales>
<clustering>
<clus scale="   35.519">  1  6  2 -1</clus>
<clus scale="   45.103">  3  4 -1 -1</clus>
<clus scale="  104.542">  2  5  1 -1</clus>
<clus scale="  104.542">  2  3  1 -1</clus>
</clustering>
</event>
<event>
 6    0  0.1849053E+002  0.2670964E+03  0.7546771E-02  0.1102953E+00
         21   -1    0    0  501  502  0.00000000000E+00  0.00000000000E+00  0.19189029693E+03  0.19189029693E+03  0.00000000000E+00 0. -1.
         -2   -1    0    0    0  501 -0.00000000000E+00 -0.00000000000E+00 -0.82273888477E+03  0.82273888477E+03  0.00000000000E+00 0. -1.
         21    1    1    2  503  505  0.84665104338E+02  0.75847162772E+02  0.59831156655E+02  0.12845520347E+03  0.00000000000E+00 0. -1.
         21    1    1    2  504  503 -0.44333099650E+02 -0.55674487643E+01 -0.89759570818E+02  0.10026565097E+03  0.00000000000E+00 0.  1.
         21    1    1    2  505  502  0.65722802094E+02  0.12345900948E+03  0.60584188033E+01  0.13999399335E+03  0.00000000000E+00 0. -1.
         -2    1    1    2    0  504 -0.10605480678E+03 -0.19373872348E+03 -0.60697859248E+03  0.64591433391E+03  0.00000000000E+00 0. -1.
<scales pt_clust_3="66.14967" pt_clust_4="42.67205" pt_clust_5="260.23746" pt_clust_6="42.67205"></scales>
<clustering>
<clus scale="   42.672">  4  6 -1 -1</clus>
<clus scale="   66.150">  3  5 -1 -1</clus>
<clus scale="  260.237">  1  3  2 -1</clus>
<clus scale="  260.237">  1  3  2 -1</clus>
</clustering>
</event>
<event>
 6    0  0.1849053E+002  0.1172436E+03  0.7546771E-02  0.1247715E+00
         21   -1    0    0  504  502  0.00000000000E+00  0.00000000000E+00  0.95663032731E+02  0.95663032731E+02  0.00000000000E+00 0.  1.
          2   -1    0    0  505    0 -0.00000000000E+00 -0.00000000000E+00 -0.19429699750E+04  0.19429699750E+04  0.00000000000E+00 0.  1.
         21    1    1    2  503  502  0.43192679001E+02  0.28742010446E+01 -0.48368080971E+02  0.64910244244E+02  0.00000000000E+00 0. -1.
         21    1    1    2  504  501  0.74369958339E+02 -0.28233129197E+02  0.65798959867E+02  0.10323518493E+03  0.00000000000E+00 0.  1.
         21    1    1    2  505  503 -0.33534353523E+02 -0.24231513791E+02 -0.31874111231E+03  0.32141502112E+03  0.00000000000E+00 0. -1.
          2    1    1    2  501    0 -0.84028283817E+02  0.49590441943E+02 -0.15459967089E+04  0.15490725575E+04  0.00000000000E+00 0.  1.
<scales pt_clust_3="42.07126" pt_clust_4="14000.00000" pt_clust_5="41.37293" pt_clust_6="117.24363"></scales>
<clustering>
<clus scale="   41.373">  2  5  1 -1</clus>
<clus scale="   42.071">  1  3  2 -1</clus>
<clus scale="  117.244">  2  6  1 -1</clus>
<clus scale="   42.071">  1  3  2 -1</clus>
</clustering>
</event>
<event>
 6    0  0.1849053E+002  0.3103586E+03  0.7546771E-02  0.1080174E+00
         21   -1    0    0  503  502  0.00000000000E+00  0.00000000000E+00  0.42016352870E+03  0.42016352870E+03  0.00000000000E+00 0. -1.
         -3   -1    0    0    0  501 -0.00000000000E+00 -0.00000000000E+00 -0.24118075787E+03  0.24118075787E+03  0.00000000000E+00 0. -1.
         21    1    1    2  503  505 -0.17220756878E+03  0.18677270984E+03  0.16632435369E+03  0.30364993416E+03  0.00000000000E+00 0. -1.
         21    1    1    2  504  502  0.59870310607E+02 -0.44034276486E+02  0.32630770074E+02  0.81167966301E+02  0.00000000000E+00 0. -1.
         21    1    1    2  505  501 -0.58514832993E+01  0.49385219949E+02  0.28269604368E+01  0.49810957745E+02  0.00000000000E+00 0. -1.
         -3    1    1    2    0  504  0.11818874148E+03 -0.19212365330E+03 -0.22799313372E+02  0.22671542837E+03  0.00000000000E+00 0. -1.
<scales pt_clust_3="41.61500" pt_clust_4="48.77336" pt_clust_5="41.61500" pt_clust_6="307.72638"></scales>
<clustering>
<clus scale="   41.615">  3  5 -1 -1</clus>
<clus scale="   48.773">  4  6 -1 -1</clus>
<clus scale="  307.726">  2  4  1 -1</clus>
<clus scale="  310.359">  1  3  2 -1</clus>
</clustering>
</event>
<event>
 6    0  0.1849053E+002  0.1394733E+03  0.7546771E-02  0.1214039E+00
          2   -1    0    0  503    0 -0.00000000000E+00  0.00000000000E+00  0.27746467170E+04  0.27746467170E+04  0.00000000000E+00 0. -1.
         21   -1    0    0  504  502  0.00000000000E+00 -0.00000000000E+00 -0.43518767866E+02  0.43518767866E+02  0.00000000000E+00 0. -1.
         21    1    1    2  503  505  0.37357885373E+02 -0.25383368222E+02  0.49857312661E+02  0.67273164097E+02  0.00000000000E+00 0. -1.
         21    1    1    2  504  501 -0.35091630222E+02  0.40202558972E+02  0.60354698201E+03  0.60590150005E+03  0.00000000000E+00 0. -1.
         21    1    1    2  505  502  0.59263827184E+02 -0.54111716372E+02  0.15820843161E+02  0.81795954299E+02  0.00000000000E+00 0. -1.
          2    1    1    2  501    0 -0.61530082336E+02  0.39292525623E+02  0.20619028113E+04  0.20631948664E+04  0.00000000000E+00 0. -1.
<scales pt_clust_3="35.60695" pt_clust_4="52.68628" pt_clust_5="133.82071" pt_clust_6="52.68628"></scales>
<clustering>
<clus scale="   35.607">  3  5 -1 -1</clus>
<clus scale="   52.686">  4  6 -1 -1</clus>
<clus scale="  133.821">  2  3  1 -1</clus>
<clus scale="  133.821">  2  3  1 -1</clus>
</clustering>
</event>
<event>
 6    0  0.1849053E+002  0.8188652E+02  0.7546771E-02  0.1323781E+00
         21   -1    0    0  503  502  0.00000000000E+00  0.00000000000E+00  0.93468231743E+02  0.93468231743E+02  0.00000000000E+00 0.  1.
          1   -1    0    0  505    0 -0.00000000000E+00 -0.00000000000E+00 -0.51937172849E+03  0.51937172849E+03  0.00000000000E+00 0.  1.
         21    1    1    2  503  501 -0.39371271461E+02  0.30012546221E+02  0.41957353245E+02  0.64894294345E+02  0.00000000000E+00 0.  1.
         21    1    1    2  504  502  0.61888318554E+02 -0.12031988901E+02 -0.10092361642E+03  0.11899793730E+03  0.00000000000E+00 0.  1.
         21    1    1    2  505  504 -0.27440602685E+02  0.66425463367E+02 -0.24045800605E+02  0.75786076465E+02  0.00000000000E+00 0.  1.
          1    1    1    2  501    0  0.49235555934E+01 -0.84406020688E+02 -0.34289143296E+03  0.35316165212E+03  0.00000000000E+00 0.  1.
<scales pt_clust_3="49.50606" pt_clust_4="53.26284" pt_clust_5="81.88652" pt_clust_6="14000.00000"></scales>
<clustering>
<clus scale="   49.506">  1  3  2 -1</clus>
<clus scale="   53.263">  1  4  2 -1</clus>
<clus scale="   81.887">  1  5  2 -1</clus>
<clus scale="   49.506">  1  3  2 -1</clus>
</clustering>
</event>
<event>
 6    0  0.1849053E+002  0.2001807E+03  0.7546771E-02  0.1149587E+00
         21   -1    0    0  505  502  0.00000000000E+00  0.00000000000E+00  0.45657179580E+03  0.45657179580E+03  0.00000000000E+00 0.  1.
          2   -1    0    0  502    0 -0.00000000000E+00 -0.00000000000E+00 -0.25124243175E+04  0.25124243175E+04  0.00000000000E+00 0. -1.
         21    1    1    2  503  504 -0.19674177182E+03 -0.76627284035E+01  0.35996562749E+03  0.41029415687E+03  0.00000000000E+00 0.  1.
         21    1    1    2  504  501  0.26089164599E+02  0.20419164801E+02 -0.32995403485E+03  0.33161310576E+03  0.00000000000E+00 0. -1.
         21    1    1    2  505  503  0.13711119782E+02  0.41513069911E+02  0.60315984962E+02  0.74493944861E+02  0.00000000000E+00 0. -1.
          2    1    1    2  501    0  0.15694148744E+03 -0.54269506309E+02 -0.21461800993E+04  0.21525949058E+04  0.00000000000E+00 0. -1.
<scales pt_clust_3="186.19662" pt_clust_4="32.83223" pt_clust_5="43.71876" pt_clust_6="32.83223"></scales>
<clustering>
<clus scale="   32.832">  4  6 -1 -1</clus>
<clus scale="   43.719">  1  5  2 -1</clus>
<clus scale="  186.197">  1  3  2 -1</clus>
<clus scale="   43.719">  1  3  2 -1</clus>
</clustering>
</event>
<event>
 6    0  0.1849053E+002  0.7882680E+02  0.7546771E-02  0.1332414E+00
         21   -1    0    0  505  502  0.00000000000E+00  0.00000000000E+00  0.15481610590E+03  0.15481610590E+03  0.00000000000E+00 0. -1.
          2   -1    0    0  504    0 -0.00000000000E+00 -0.00000000000E+00 -0.98290027483E+03  0.98290027483E+03  0.00000000000E+00 0. -1.
         21    1    1    2  503  502 -0.32549182314E+02 -0.72725196749E+01  0.13123653197E+02  0.35840885662E+02  0.00000000000E+00 0. -1.
         21    1    1    2  504  503 -0.49489382933E+02 -0.38620167226E+02 -0.18511051550E+03  0.19546513574E+03  0.00000000000E+00 0. -1.
         21    1    1    2  505  501 -0.12437984562E+02 -0.57713304275E+02  0.11147121510E+03  0.12614024237E+03  0.00000000000E+00 0. -1.
          2    1    1    2  501    0  0.94476549809E+02  0.10360599118E+03 -0.76756852172E+03  0.78027011695E+03  0.00000000000E+00 0. -1.
<scales pt_clust_3="33.35174" pt_clust_4="63.97470" pt_clust_5="14000.00000" pt_clust_6="78.82680"></scales>
<clustering>
<clus scale="   33.352">  1  3  2 -1</clus>
<clus scale="   63.975">  2  4  1 -1</clus>
<clus scale="   78.827">  2  6  1 -1</clus>
<clus scale="   33.352">  1  3  2 -1</clus>
</clustering>
</event>
<event>
 6    0  0.1849053E+002  0.8331528E+02  0.7546771E-02  0.1319898E+00
          1   -1    0    0  503    0 -0.00000000000E+00  0.00000000000E+00  0.91658130403E+03  0.91658130403E+03  0.00000000000E+00 0.  1.
         21   -1    0    0  505  502  0.00000000000E+00 -0.00000000000E+00 -0.60830345096E+02  0.60830345096E+02  0.00000000000E+00 0.  1.
         21    1    1    2  503  504 -0.10731001846E+03 -0.64396393573E+02  0.40244866554E+02  0.13146096322E+03  0.00000000000E+00 0.  1.
         21    1    1    2  504  502  0.17389043855E+02  0.32853665336E+02  0.71867333675E+02  0.80911407241E+02  0.00000000000E+00 0.  1.
         21    1    1    2  505  501  0.25477132204E+02 -0.17966248931E+02  0.20415950866E+02  0.37265015977E+02  0.00000000000E+00 0. -1.
          1    1    1    2  501    0  0.64443842406E+02  0.49508977168E+02  0.72322280784E+03  0.72777426268E+03  0.00000000000E+00 0.  1.
<scales pt_clust_3="14000.00000" pt_clust_4="36.92654" pt_clust_5="31.17484" pt_clust_6="83.31528"></scales>
<clustering>
<clus scale="   31.175">  2  5  1 -1</clus>
<clus scale="   36.927">  2  4  1 -1</clus>
<clus scale="   83.315">  1  6  2 -1</clus>
<clus scale="   31.175">  2  3  1 -1</clus>
</clustering>
</event>
<event>
 6    0  0.1849053E+002  0.1675761E+03  0.7546771E-02  0.1180399E+00
         21   -1    0    0  504  502  0.00000000000E+00  0.00000000000E+00  0.44181078824E+02  0.44181078824E+02  0.00000000000E+00 0. -1.
          1   -1    0    0  502    0 -0.00000000000E+00 -0.00000000000E+00 -0.12673325377E+04  0.12673325377E+04  0.00000000000E+00 0.  1.
         21    1    1    2  503  505 -0.88773818283E+02 -0.92830822246E+01 -0.66319987671E+02  0.11119940284E+03  0.00000000000E+00 0. -1.
         21    1    1    2  504  503 -0.70671686582E+02  0.31134149571E+02 -0.81182595140E+02  0.11204658097E+03  0.00000000000E+00 0. -1.
         21    1    1    2  505  501  0.88680943027E+02 -0.19486571400E+02 -0.48864717933E+03  0.49701116887E+03  0.00000000000E+00 0.  1.
          1    1    1    2  501    0  0.70764561838E+02 -0.23644959458E+01 -0.58700169677E+03  0.59125646387E+03  0.00000000000E+00 0.  1.
<scales pt_clust_3="43.44377" pt_clust_4="43.44377" pt_clust_5="33.10736" pt_clust_6="165.24508"></scales>
<clustering>
<clus scale="   33.107">  5  6 -1 -1</clus>
<clus scale="   43.444">  3  4 -1 -1</clus>
<clus scale="  165.245">  2  5  1 -1</clus>
<clus scale="  167.576">  1  3  2 -1</clus>
</clustering>
</event>
<event>
 6    0  0.3577484E+002  0.2942981E+03  0.7546771E-02  0.1088126E+00
          2   -1    0    0  504    0 -0.00000000000E+00  0.00000000000E+00  0.12282270128E+04  0.12282270128E+04  0.00000000000E+00 0.  1.
         21   -1    0    0  503  502  0.00000000000E+00 -0.00000000000E+00 -0.85261532621E+03  0.85261532621E+03  0.00000000000E+00 0. -1.
         21    1    1    2  503  505  0.12726696390E+02 -0.32980897405E+02  0.41348039416E+01  0.35592204178E+02  0.00000000000E+00 0. -1.
         21    1    1    2  504  502 -0.14214637642E+03  0.23771744287E+03 -0.75758836248E+03  0.80663207347E+03  0.00000000000E+00 0. -1.
         21    1    1    2  505  501 -0.41582230743E+01  0.57982738949E+02 -0.12635572717E+02  0.59489045488E+02  0.00000000000E+00 0. -1.
          2    1    1    2  501    0  0.13357790311E+03 -0.26271928442E+03  0.11417008179E+04  0.11791290159E+04  0.00000000000E+00 0.  1.
<scales pt_clust_3="35.35121" pt_clust_4="14000.00000" pt_clust_5="56.67663" pt_clust_6="294.29808"></scales>
<clustering>
<clus scale="   35.351">  2  3  1 -1</clus>
<clus scale="   56.677">  2  5  1 -1</clus>
<clus scale="  294.298">  1  6  2 -1</clus>
<clus scale="   35.351">  2  3  1 -1</clus>
</clustering>
</event>
<event>
 6    0  0.1849053E+002  0.1153019E+03  0.7546771E-02  0.1251055E+00
         21   -1    0    0  505  502  0.00000000000E+00  0.00000000000E+00  0.45555913233E+03  0.45555913233E+03  0.00000000000E+00 0. -1.
          1   -1    0    0  503    0 -0.00000000000E+00 -0.00000000000E+00 -0.18325806551E+04  0.18325806551E+04  0.00000000000E+00 0.  1.
         21    1    1    2  503  504  0.13589649884E+02  0.39918702093E+02 -0.20360735505E+03  0.20792820009E+03  0.00000000000E+00 0.  1.
         21    1    1    2  504  502  0.88031643337E+02 -0.28749313862E+02  0.72592701619E+02  0.11766815034E+03  0.00000000000E+00 0. -1.
         21    1    1    2  505  501  0.27874683947E+02  0.40153666594E+02  0.35355995789E+03  0.35692290311E+03  0.00000000000E+00 0. -1.
          1    1    1    2  501    0 -0.12949597717E+03 -0.51323054824E+02 -0.15995668272E+04  0.16056205339E+04  0.00000000000E+00 0.  1.
<scales pt_clust_3="42.16849" pt_clust_4="115.30194" pt_clust_5="48.92252" pt_clust_6="14000.00000"></scales>
<clustering>
<clus scale="   42.168">  2  3  1 -1</clus>
<clus scale="   48.923">  1  5  2 -1</clus>
<clus scale="  115.302">  1  4  2 -1</clus>
<clus scale="   48.923">  1  3  2 -1</clus>
</clustering>
</event>
<event>
 6    0  0.1849053E+002  0.2355197E+03  0.7546771E-02  0.1122814E+00
          2   -1    0    0  503    0 -0.00000000000E+00  0.00000000000E+00  0.10641373526E+03  0.10641373526E+03  0.00000000000E+00 0.  1.
         21   -1    0    0  504  502  0.00000000000E+00 -0.00000000000E+00 -0.51968929707E+03  0.51968929707E+03  0.00000000000E+00 0.  1.
         21    1    1    2  503  505  0.97181216299E+01  0.10060322417E+03 -0.10079355813E+03  0.14274029551E+03  0.00000000000E+00 0.  1.
         21    1    1    2  504  501  0.26242322471E+01 -0.12571819055E+03 -0.88282186765E+02  0.15364144796E+03  0.00000000000E+00 0.  1.
         21    1    1    2  505  502 -0.45952089752E+02  0.12536875793E+03 -0.10134645282E+03  0.16763061629E+03  0.00000000000E+00 0.  1.
          2    1    1    2  501    0  0.33609735875E+02 -0.10025379155E+03 -0.12285336409E+03  0.16209067257E+03  0.00000000000E+00 0.  1.
<scales pt_clust_3="48.38858" pt_clust_4="47.93289" pt_clust_5="48.38858" pt_clust_6="234.75211"></scales>
<clustering>
<clus scale="   47.933">  4  6 -1 -1</clus>
<clus scale="   48.389">  3  5 -1 -1</clus>
<clus scale="  234.752">  2  4  1 -1</clus>
<clus scale="  234.752">  2  3  1 -1</clus>
</clustering>
</event>
<event>
 6    0  0.1849053E+002  0.1254719E+03  0.7546771E-02  0.1234334E+00
          1   -1    0    0  502    0 -0.00000000000E+00  0.00000000000E+00  0.31326952815E+04  0.31326952815E+04  0.00000000000E+00 0.  1.
         21   -1    0    0  504  502  0.00000000000E+00 -0.00000000000E+00 -0.90152126826E+02  0.90152126826E+02  0.00000000000E+00 0.  1.
         21    1    1    2  503  505 -0.92296196584E+02  0.13182792431E+02  0.22911753547E+03  0.24736050408E+03  0.00000000000E+00 0.  1.
         21    1    1    2  504  503  0.11956409868E+03  0.68472490661E+02 -0.20317667645E+02  0.13927262218E+03  0.00000000000E+00 0.  1.
         21    1    1    2  505  501 -0.16499201625E+02 -0.44789140063E+02  0.52849383441E+03  0.53064491304E+03  0.00000000000E+00 0.  1.
          1    1    1    2  501    0 -0.10768700474E+02 -0.36866143029E+02  0.23052494524E+04  0.23055693690E+04  0.00000000000E+00 0.  1.
<scales pt_clust_3="125.47190" pt_clust_4="14000.00000" pt_clust_5="72.27835" pt_clust_6="38.40674"></scales>
<clustering>
<clus scale="   38.407">  1  6  2 -1</clus>
<clus scale="   72.278">  1  5  2 -1</clus>
<clus scale="  125.472">  1  3  2 -1</clus>
<clus scale="  125.472">  2  3  1 -1</clus>
</clustering>
</event>
<event>
 6    0  0.1849053E+002  0.1101399E+03  0.7546771E-02  0.1260311E+00
          1   -1    0    0  504    0 -0.00000000000E+00  0.00000000000E+00  0.82266255879E+03  0.82266255879E+03  0.00000000000E+00 0. -1.
         21   -1    0    0  501  502  0.00000000000E+00 -0.00000000000E+00 -0.42099037621E+02  0.42099037621E+02  0.00000000000E+00 0. -1.
         21    1    1    2  503  505 -0.61559643627E+02 -0.14489644331E+02  0.60441641085E+02  0.87479891937E+02  0.00000000000E+00 0. -1.
         21    1    1    2  504  503 -0.33139390370E+02  0.41081591149E+02  0.13849495136E+03  0.14821190195E+03  0.00000000000E+00 0.  1.
         21    1    1    2  505  502 -0.35964846734E+02  0.87542559860E+01  0.57017867407E+01  0.37451536291E+02  0.00000000000E+00 0. -1.
          1    1    1    2  501    0  0.13066388073E+03 -0.35346202805E+02  0.57592514198E+03  0.59161826623E+03  0.00000000000E+00 0. -1.
<scales pt_clust_3="31.44122" pt_clust_4="52.78178" pt_clust_5="31.44122" pt_clust_6="102.18519"></scales>
<clustering>
<clus scale="   31.441">  3  5 -1 -1</clus>
<clus scale="   52.782">  1  4  2 -1</clus>
<clus scale="  102.185">  1  6  2 -1</clus>
<clus scale="  110.140">  2  3  1 -1</clus>
</clustering>
</event>
<event>
 6    0  0.1849053E+002  0.9444847E+02  0.7546771E-02  0.1292423E+00
         -1   -1    0    0    0  501 -0.00000000000E+00  0.00000000000E+00  0.17866606078E+04  0.17866606078E+04  0.00000000000E+00 0. -1.
         21   -1    0    0  505  502  0.00000000000E+00 -0.00000000000E+00 -0.37592703005E+02  0.37592703005E+02  0.00000000000E+00 0.  1.
         21    1    1    2  503  501  0.90334907497E+01  0.54933212955E+02  0.10574307756E+04  0.10588952295E+04  0.00000000000E+00 0. -1.
         21    1    1    2  504  503 -0.60730940804E+02 -0.16074597706E+02  0.17188058603E+03  0.18300157299E+03  0.00000000000E+00 0.  1.
         21    1    1    2  505  504 -0.51146159759E+01 -0.99863112911E+02  0.63289557422E+02  0.11834005533E+03  0.00000000000E+00 0.  1.
         -1    1    1    2    0  502  0.56812066031E+02  0.61004497662E+02  0.45646698575E+03  0.46401645300E+03  0.00000000000E+00 0. -1.
<scales pt_clust_3="55.67101" pt_clust_4="58.59263" pt_clust_5="14000.00000" pt_clust_6="94.44847"></scales>
<clustering>
<clus scale="   55.671">  1  3  2 -1</clus>
<clus scale="   58.593">  1  4  2 -1</clus>
<clus scale="   94.448">  1  6  2 -1</clus>
<clus scale="   94.448">  2  3  1 -1</clus>
</clustering>
</event>
<event>
 6    0  0.1849053E+002  0.9363280E+02  0.7546771E-02  0.1294285E+00
         21   -1    0    0  505  502  0.00000000000E+00  0.00000000000E+00  0.58249692555E+03  0.58249692555E+03  0.00000000000E+00 0.  1.
          2   -1    0    0  503    0 -0.00000000000E+00 -0.00000000000E+00 -0.30339427175E+04  0.30339427175E+04  0.00000000000E+00 0.  1.
         21    1    1    2  503  504 -0.30951673145E+02  0.44459251778E+02 -0.17787502219E+03  0.18594126669E+03  0.00000000000E+00 0. -1.
         21    1    1    2  504  502  0.13145759372E+03 -0.59172517066E+02  0.49180299043E+03  0.51249650449E+03  0.00000000000E+00 0.  1.
         21    1    1    2  505  501 -0.58425642947E+02 -0.48643342883E+01  0.64835548198E+02  0.87412046149E+02  0.00000000000E+00 0. -1.
          2    1    1    2  501    0 -0.42080277632E+02  0.19577599576E+02 -0.28302093084E+04  0.28305898257E+04  0.00000000000E+00 0.  1.
<scales pt_clust_3="93.63280" pt_clust_4="14000.00000" pt_clust_5="60.87674" pt_clust_6="46.41155"></scales>
<clustering>
<clus scale="   46.412">  2  6  1 -1</clus>
<clus scale="   60.877">  1  5  2 -1</clus>
<clus scale="   93.633">  2  3  1 -1</clus>
<clus scale="   60.877">  1  3  2 -1</clus>
</clustering>
</event>
<event>
 6    0  0.1849053E+002  0.1645470E+03  0.7546771E-02  0.1183657E+00
         21   -1    0    0  505  502  0.00000000000E+00  0.00000000000E+00  0.16682955861E+03  0.16682955861E+03  0.00000000000E+00 0.  1.
         -2   -1    0    0    0  501 -0.00000000000E+00 -0.00000000000E+00 -0.49573484021E+03  0.49573484021E+03  0.00000000000E+00 0.  1.
         21    1    1    2  503  502 -0.92047406393E+02 -0.14582539078E+03  0.52698747186E+02  0.18031896066E+03  0.00000000000E+00 0.  1.
         21    1    1    2  504  501  0.60608264851E+02  0.32900660067E+01 -0.10188367843E+03  0.11859371920E+03  0.00000000000E+00 0.  1.
         21    1    1    2  505  504  0.33899826679E+02 -0.13256498427E+02  0.72462131780E+01  0.37113886954E+02  0.00000000000E+00 0.  1.
         -2    1    1    2    0  503 -0.24606851371E+01  0.15579182320E+03 -0.28696656354E+03  0.32653783201E+03  0.00000000000E+00 0.  1.
<scales pt_clust_3="164.54696" pt_clust_4="62.61724" pt_clust_5="36.39963" pt_clust_6="14000.00000"></scales>
<clustering>
<clus scale="   36.400">  1  5  2 -1</clus>
<clus scale="   62.617">  2  4  1 -1</clus>
<clus scale="  164.547">  1  3  2 -1</clus>
<clus scale="   36.400">  1  3  2 -1</clus>
</clustering>
</event>
<event>
 6    0  0.1849053E+002  0.8522928E+02  0.7546771E-02  0.1314834E+00
         21   -1    0    0  504  502  0.00000000000E+00  0.00000000000E+00  0.45175579433E+03  0.45175579433E+03  0.00000000000E+00 0.  1.
          1   -1    0    0  505    0 -0.00000000000E+00 -0.00000000000E+00 -0.54030184920E+02  0.54030184920E+02  0.00000000000E+00 0.  1.
         21    1    1    2  503  502  0.75918143276E+02 -0.10662999904E+02  0.18900905863E+03  0.20396491926E+03  0.00000000000E+00 0.  1.
         21    1    1    2  504  501 -0.22951730760E+02  0.93138712373E+02  0.11173965176E+03  0.14726626043E+03  0.00000000000E+00 0.  1.
         21    1    1    2  505  503 -0.37690334711E+02 -0.38629641849E+01  0.46123386905E+02  0.59689619220E+02  0.00000000000E+00 0. -1.
          1    1    1    2  501    0 -0.15276077804E+02 -0.78612748284E+02  0.50853512125E+02  0.94865180342E+02  0.00000000000E+00 0.  1.
<scales pt_clust_3="70.85552" pt_clust_4="85.22928" pt_clust_5="37.88778" pt_clust_6="14000.00000"></scales>
<clustering>
<clus scale="   37.888">  2  5  1 -1</clus>
<clus scale="   70.856">  1  3  2 -1</clus>
<clus scale="   85.229">  1  4  2 -1</clus>
<clus scale="   70.856">  1  3  2 -1</clus>
</clustering>
</event>
<event>
 6    0  0.1849053E+002  0.3617213E+03  0.7546771E-02  0.1057904E+00
          2   -1    0    0  505    0 -0.00000000000E+00  0.00000000000E+00  0.81515115259E+03  0.81515115259E+03  0.00000000000E+00 0.  1.
         21   -1    0    0  501  502  0.00000000000E+00 -0.00000000000E+00 -0.51633329490E+03  0.51633329490E+03  0.00000000000E+00 0. -1.
         21    1    1    2  503  504  0.18245608435E+03 -0.12865164754E+03 -0.22749127749E+03  0.31873774559E+03  0.00000000000E+00 0. -1.
         21    1    1    2  504  502  0.73147760213E+02 -0.11845584511E+03 -0.16267024307E+03  0.21411209691E+03  0.00000000000E+00 0. -1.
         21    1    1    2  505  503  0.22354418011E+02  0.42288174476E+02  0.35562329893E+02  0.59604437859E+02  0.00000000000E+00 0. -1.
          2    1    1    2  501    0 -0.27795826258E+03  0.20481931817E+03  0.65341704836E+03  0.73903016712E+03  0.00000000000E+00 0.  1.
<scales pt_clust_3="57.40837" pt_clust_4="57.40837" pt_clust_5="47.83314" pt_clust_6="354.30894"></scales>
<clustering>
<clus scale="   47.833">  1  5  2 -1</clus>
<clus scale="   57.408">  3  4 -1 -1</clus>
<clus scale="  354.309">  1  6  2 -1</clus>
<clus scale="  361.721">  2  3  1 -1</clus>
</clustering>
</event>
<event>
 6    0  0.1849053E+002  0.1987558E+03  0.7546771E-02  0.1150793E+00
          1   -1    0    0  504    0 -0.00000000000E+00  0.00000000000E+00  0.14324552793E+04  0.14324552793E+04  0.00000000000E+00 0. -1.
         21   -1    0    0  505  502  0.00000000000E+00 -0.00000000000E+00 -0.10568495141E+03  0.10568495141E+03  0.00000000000E+00 0. -1.
         21    1    1    2  503  501  0.80976450917E+01 -0.33899804931E+02  0.13687300974E+03  0.14124089147E+03  0.00000000000E+00 0. -1.
         21    1    1    2  504  502 -0.78411923955E+02  0.43263155110E+02  0.10634571280E+03  0.13903071977E+03  0.00000000000E+00 0. -1.
         21    1    1    2  505  503 -0.68412826388E+02  0.84539862640E+02 -0.44456560427E+02  0.11748910143E+03  0.00000000000E+00 0. -1.
          1    1    1    2  501    0  0.13872710525E+03 -0.93903212818E+02  0.11280081658E+04  0.11403795181E+04  0.00000000000E+00 0. -1.
<scales pt_clust_3="31.38821" pt_clust_4="89.55518" pt_clust_5="186.46317" pt_clust_6="31.38821"></scales>
<clustering>
<clus scale="   31.388">  3  6 -1 -1</clus>
<clus scale="   89.555">  2  4  1 -1</clus>
<clus scale="  186.463">  2  5  1 -1</clus>
<clus scale="   89.555">  2  3  1 -1</clus>
</clustering>
</event>
<event>
 6    0  0.1849053E+002  0.7073929E+02  0.7546771E-02  0.1357597E+00
         21   -1    0    0  504  502  0.00000000000E+00  0.00000000000E+00  0.23625819844E+02  0.23625819844E+02  0.00000000000E+00 0. -1.
         -4   -1    0    0    0  501 -0.00000000000E+00 -0.00000000000E+00 -0.10276785538E+04  0.10276785538E+04  0.00000000000E+00 0. -1.
         21    1    1    2  503  505 -0.50118372996E+02  0.83987379717E+02 -0.58972612424E+03  0.59778142567E+03  0.00000000000E+00 0. -1.
         21    1    1    2  504  503  0.32489436023E+02 -0.69797852151E+02 -0.11112880769E+03  0.13519214296E+03  0.00000000000E+00 0. -1.
         21    1    1    2  505  501  0.51636975779E+02 -0.23845261542E+02 -0.23158740638E+03  0.23846949608E+03  0.00000000000E+00 0. -1.
         -4    1    1    2    0  502 -0.34008038805E+02  0.96557339770E+01 -0.71610395674E+02  0.79861308972E+02  0.00000000000E+00 0. -1.
<scales pt_clust_3="70.73929" pt_clust_4="14000.00000" pt_clust_5="50.72354" pt_clust_6="35.35223"></scales>
<clustering>
<clus scale="   35.352">  1  6  2 -1</clus>
<clus scale="   50.724">  2  5  1 -1</clus>
<clus scale="   70.739">  2  3  1 -1</clus>
<clus scale="   35.352">  1  3  2 -1</clus>
</clustering>
</event>
<event>
 6    0  0.1849053E+002  0.7371095E+02  0.7546771E-02  0.1347910E+00
         21   -1    0    0  504  502  0.00000000000E+00  0.00000000000E+00  0.33589537800E+03  0.33589537800E+03  0.00000000000E+00 0.  1.
          2   -1    0    0  505    0 -0.00000000000E+00 -0.00000000000E+00 -0.19851088324E+04  0.19851088324E+04  0.00000000000E+00 0. -1.
         21    1    1    2  503  501  0.88361704445E+02  0.13870309228E+02 -0.54741397744E+02  0.10486561361E+03  0.00000000000E+00 0.  1.
         21    1    1    2  504  503  0.23992536030E+02 -0.85660816078E+02  0.15748980548E+03  0.18087690850E+03  0.00000000000E+00 0.  1.
         21    1    1    2  505  502 -0.43486870114E+02  0.45872546951E+02  0.13384495784E+03  0.14801983373E+03  0.00000000000E+00 0.  1.
          2    1    1    2  501    0 -0.68867370361E+02  0.25917959898E+02 -0.18858068200E+04  0.18872418546E+04  0.00000000000E+00 0. -1.
<scales pt_clust_3="14000.00000" pt_clust_4="47.86944" pt_clust_5="63.20916" pt_clust_6="73.71095"></scales>
<clustering>
<clus scale="   63.209">  1  5  2 -1</clus>
<clus scale="   47.869">  1  4  2 -1</clus>
<clus scale="   73.711">  2  6  1 -1</clus>
<clus scale="   63.209">  1  3  2 -1</clus>
</clustering>
</event>
<event>
 6    0  0.1849053E+002  0.9981783E+02  0.7546771E-02  0.1280679E+00
          1   -1    0    0  505    0 -0.00000000000E+00  0.00000000000E+00  0.92301014367E+03  0.92301014367E+03  0.00000000000E+00 0.  1.
         21   -1    0    0  503  502  0.00000000000E+00 -0.00000000000E+00 -0.99676646720E+02  0.99676646720E+02  0.00000000000E+00 0. -1.
         21    1    1    2  503  501  0.13521380929E+02 -0.68387607963E+02  0.18281767737E+02  0.72068826109E+02  0.00000000000E+00 0. -1.
         21    1    1    2  504  502  0.49835122146E+02  0.13400709549E+03  0.15130635281E+02  0.14377196237E+03  0.00000000000E+00 0. -1.
         21    1    1    2  505  504  0.32593597580E+02  0.16272548422E+02  0.13166737762E+03  0.13661418947E+03  0.00000000000E+00 0. -1.
          1    1    1    2  501    0 -0.95950100654E+02 -0.81892035945E+02  0.65825371631E+03  0.67023181244E+03  0.00000000000E+00 0.  1.
<scales pt_clust_3="69.18862" pt_clust_4="99.81783" pt_clust_5="36.42991" pt_clust_6="14000.00000"></scales>
<clustering>
<clus scale="   36.430">  1  5  2 -1</clus>
<clus scale="   69.189">  2  3  1 -1</clus>
<clus scale="   99.818">  2  4  1 -1</clus>
<clus scale="   69.189">  2  3  1 -1</clus>
</clustering>
</event>
<event>
 6    0  0.1849053E+002  0.1992064E+03  0.7546771E-02  0.1150410E+00
         21   -1    0    0  504  502  0.00000000000E+00  0.00000000000E+00  0.53373844201E+02  0.53373844201E+02  0.00000000000E+00 0. -1.
          2   -1    0    0  503    0 -0.00000000000E+00 -0.00000000000E+00 -0.25505775739E+04  0.25505775739E+04  0.00000000000E+00 0. -1.
         21    1    1    2  503  505 -0.17614582831E+02  0.26096824947E+02 -0.17107130323E+03  0.17394455608E+03  0.00000000000E+00 0. -1.
         21    1    1    2  504  501  0.96206433586E+02  0.14722961419E+03 -0.33660355394E+03  0.37978176586E+03  0.00000000000E+00 0. -1.
         21    1    1    2  505  502 -0.23333734740E+03 -0.12102076631E+03 -0.65558480745E+03  0.70631705581E+03  0.00000000000E+00 0. -1.
          2    1    1    2  501    0  0.15474549665E+03 -0.52305672835E+02 -0.13339440650E+04  0.13439080403E+04  0.00000000000E+00 0. -1.
<scales pt_clust_3="31.48520" pt_clust_4="199.20637" pt_clust_5="14000.00000" pt_clust_6="149.63230"></scales>
<clustering>
<clus scale="   31.485">  2  3  1 -1</clus>
<clus scale="  149.632">  2  6  1 -1</clus>
<clus scale="  199.206">  1  4  2 -1</clus>
<clus scale="  199.206">  1  3  2 -1</clus>
</clustering>
</event>
<event>
 6    0  0.1849053E+002  0.1965826E+03  0.7546771E-02  0.1152655E+00
         21   -1    0    0  505  502  0.00000000000E+00  0.00000000000E+00  0.16676543532E+03  0.16676543532E+03  0.00000000000E+00 0.  1.
          2   -1    0    0  504    0 -0.00000000000E+00 -0.00000000000E+00 -0.89597042840E+03  0.89597042840E+03  0.00000000000E+00 0.  1.
         21    1    1    2  503  502 -0.29986602872E+02 -0.49228948599E+02 -0.10883922341E+03  0.12316112326E+03  0.00000000000E+00 0.  1.
         21    1    1    2  504  503 -0.80222267517E+02 -0.34483399439E+02 -0.60195892521E+02  0.10605782630E+03  0.00000000000E+00 0.  1.
         21    1    1    2  505  501 -0.92491111018E+02  0.17580398389E+03  0.31695242531E+02  0.20116221009E+03  0.00000000000E+00 0.  1.
          2    1    1    2  501    0  0.20269998141E+03 -0.92091635852E+02 -0.59186511969E+03  0.63235470407E+03  0.00000000000E+00 0.  1.
<scales pt_clust_3="56.37690" pt_clust_4="154.81749" pt_clust_5="196.58264" pt_clust_6="14000.00000"></scales>
<clustering>
<clus scale="   56.377">  3  4 -1 -1</clus>
<clus scale="  154.817">  2  3  1 -1</clus>
<clus scale="  196.583">  1  5  2 -1</clus>
<clus scale="  196.583">  1  3  2 -1</clus>
</clustering>
</event>
<event>
 6    0  0.1849053E+002  0.2057243E+03  0.7546771E-02  0.1144997E+00
          2   -1    0    0  505    0 -0.00000000000E+00  0.00000000000E+00  0.33387277722E+04  0.33387277722E+04  0.00000000000E+00 0.  1.
         21   -1    0    0  503  502  0.00000000000E+00 -0.00000000000E+00 -0.18811393431E+04  0.18811393431E+04  0.00000000000E+00 0.  1.
         21    1    1    2  503  504 -0.17042842629E+02  0.21195202581E+03 -0.17723932163E+04  0.17851027513E+04  0.00000000000E+00 0.  1.
         21    1    1    2  504  501  0.89309205630E+02 -0.13042066783E+03 -0.39402329510E+02  0.16290558118E+03  0.00000000000E+00 0.  1.
         21    1    1    2  505  502 -0.37646640127E+02 -0.78118143934E+01  0.59873425417E+03  0.59996750001E+03  0.00000000000E+00 0. -1.
          2    1    1    2  501    0 -0.34619722874E+02 -0.73719543592E+02  0.26706497207E+04  0.26718912828E+04  0.00000000000E+00 0.  1.
<scales pt_clust_3="205.72430" pt_clust_4="14000.00000" pt_clust_5="38.44859" pt_clust_6="108.18390"></scales>
<clustering>
<clus scale="   38.449">  1  5  2 -1</clus>
<clus scale="  108.184">  1  6  2 -1</clus>
<clus scale="  205.724">  2  3  1 -1</clus>
<clus scale="  205.724">  2  3  1 -1</clus>
</clustering>
</event>
<event>
 6    0  0.1849053E+002  0.9138997E+02  0.7546771E-02  0.1299520E+00
         21   -1    0    0  503  502  0.00000000000E+00  0.00000000000E+00  0.13309136478E+03  0.13309136478E+03  0.00000000000E+00 0.  1.
          2   -1    0    0  505    0 -0.00000000000E+00 -0.00000000000E+00 -0.42528107887E+03  0.42528107887E+03  0.00000000000E+00 0.  1.
         21    1    1    2  503  504  0.56369771249E+02 -0.87386868111E+02  0.83811382085E+02  0.13356033691E+03  0.00000000000E+00 0.  1.
         21    1    1    2  504  501  0.64456196929E+01  0.67828301850E+02 -0.53069496754E+02  0.86363163622E+02  0.00000000000E+00 0.  1.
         21    1    1    2  505  502 -0.31919287452E+02  0.39614671301E+02 -0.96972792876E+02  0.10950746848E+03  0.00000000000E+00 0.  1.
          2    1    1    2  501    0 -0.30896103490E+02 -0.20056105040E+02 -0.22595880654E+03  0.22894147465E+03  0.00000000000E+00 0.  1.
<scales pt_clust_3="14000.00000" pt_clust_4="91.38997" pt_clust_5="56.19361" pt_clust_6="36.83499"></scales>
<clustering>
<clus scale="   36.835">  2  6  1 -1</clus>
<clus scale="   56.194">  2  5  1 -1</clus>
<clus scale="   91.390">  2  4  1 -1</clus>
<clus scale="   91.390">  1  3  2 -1</clus>
</clustering>
</event>
<event>
 6    0  0.1849053E+002  0.1361900E+03  0.7546771E-02  0.1218550E+00
          2   -1    0    0  504    0 -0.00000000000E+00  0.00000000000E+00  0.24236659852E+03  0.24236659852E+03  0.00000000000E+00 0. -1.
         21   -1    0    0  505  502  0.00000000000E+00 -0.00000000000E+00 -0.40226233459E+03  0.40226233459E+03  0.00000000000E+00 0. -1.
         21    1    1    2  503  502  0.34056132050E+02 -0.12950666814E+02 -0.41176661111E+02  0.54982336449E+02  0.00000000000E+00 0. -1.
         21    1    1    2  504  503  0.26665301772E+02 -0.38151672034E+02 -0.10172748059E+02  0.47645285188E+02  0.00000000000E+00 0. -1.
         21    1    1    2  505  501 -0.23121342552E+02  0.17947783545E+03 -0.27454087260E+03  0.32881542030E+03  0.00000000000E+00 0. -1.
          2    1    1    2  501    0 -0.37600091269E+02 -0.12837549661E+03  0.16599454570E+03  0.21318589117E+03  0.00000000000E+00 0. -1.
<scales pt_clust_3="35.35797" pt_clust_4="88.85757" pt_clust_5="14000.00000" pt_clust_6="136.19000"></scales>
<clustering>
<clus scale="   35.358">  3  4 -1 -1</clus>
<clus scale="   88.858">  2  3  1 -1</clus>
<clus scale="  136.190">  1  6  2 -1</clus>
<clus scale="   88.858">  2  3  1 -1</clus>
</clustering>
</event>
<event>
 6    0  0.1849053E+002  0.8779289E+02  0.7546771E-02  0.1308286E+00
          1   -1    0    0  504    0 -0.00000000000E+00  0.00000000000E+00  0.50484751554E+03  0.50484751554E+03  0.00000000000E+00 0. -1.
         21   -1    0    0  505  502  0.00000000000E+00 -0.00000000000E+00 -0.87616722205E+02  0.87616722205E+02  0.00000000000E+00 0. -1.
         21    1    1    2  503  502  0.22032315764E+01  0.31100708274E+02  0.14167046766E+02  0.34246364750E+02  0.00000000000E+00 0. -1.
         21    1    1    2  504  503 -0.67013027774E+02  0.33954762905E+02 -0.29532174144E+02  0.80720636302E+02  0.00000000000E+00 0. -1.
         21    1    1    2  505  501  0.10899345779E+03  0.14030163820E+02  0.20633507471E+03  0.23377464019E+03  0.00000000000E+00 0. -1.
          1    1    1    2  501    0 -0.44183661591E+02 -0.79085634998E+02  0.22626084599E+03  0.24372259650E+03  0.00000000000E+00 0. -1.
<scales pt_clust_3="31.17865" pt_clust_4="86.17148" pt_clust_5="14000.00000" pt_clust_6="87.79289"></scales>
<clustering>
<clus scale="   31.179">  2  3  1 -1</clus>
<clus scale="   86.171">  2  4  1 -1</clus>
<clus scale="   87.793">  1  6  2 -1</clus>
<clus scale="   31.179">  2  3  1 -1</clus>
</clustering>
</event>
<event>
 6    0  0.1849053E+002  0.1418869E+03  0.7546771E-02  0.1210812E+00
          2   -1    0    0  505    0 -0.00000000000E+00  0.00000000000E+00  0.89525764898E+03  0.89525764898E+03  0.00000000000E+00 0. -1.
         21   -1    0    0  503  502  0.00000000000E+00 -0.00000000000E+00 -0.14699160975E+03  0.14699160975E+03  0.00000000000E+00 0.  1.
         21    1    1    2  503  501 -0.18646698638E+02  0.41923032406E+02 -0.20051918391E+01  0.45926689523E+02  0.00000000000E+00 0.  1.
         21    1    1    2  504  502 -0.13126935422E+03 -0.50549486392E+02 -0.62149767343E+02  0.15378389875E+03  0.00000000000E+00 0.  1.
         21    1    1    2  505  504  0.73131344548E+02 -0.19212591419E+02  0.99580698560E+02  0.12503452623E+03  0.00000000000E+00 0.  1.
          2    1    1    2  501    0  0.76784708314E+02  0.27839045405E+02  0.71284029985E+03  0.71750414422E+03  0.00000000000E+00 0. -1.
<scales pt_clust_3="45.88289" pt_clust_4="141.88693" pt_clust_5="72.73968" pt_clust_6="14000.00000"></scales>
<clustering>
<clus scale="   45.883">  2  3  1 -1</clus>
<clus scale="   72.740">  1  5  2 -1</clus>
<clus scale="  141.887">  2  4  1 -1</clus>
<clus scale="   45.883">  2  3  1 -1</clus>
</clustering>
</event>
<event>
 6    0  0.1849053E+002  0.6677300E+02  0.7546771E-02  0.1371424E+00
          2   -1    0    0  502    0 -0.00000000000E+00  0.00000000000E+00  0.17479512345E+04  0.17479512345E+04  0.00000000000E+00 0. -1.
         21   -1    0    0  505  502  0.00000000000E+00 -0.00000000000E+00 -0.21921124638E+03  0.21921124638E+03  0.00000000000E+00 0.  1.
         21    1    1    2  503  504 -0.53679171014E+02 -0.10659446628E+02 -0.88519552383E+02  0.10407107359E+03  0.00000000000E+00 0.  1.
         21    1    1    2  504  501  0.72155245258E+02  0.49805289825E+02  0.15305658660E+03  0.17638952638E+03  0.00000000000E+00 0.  1.
         21    1    1    2  505  503  0.45605533449E+02 -0.23930174491E+02 -0.10456046565E+03  0.11655646233E+03  0.00000000000E+00 0.  1.
          2    1    1    2  501    0 -0.64081607694E+02 -0.15215668707E+02  0.15687634195E+04  0.15701454186E+04  0.00000000000E+00 0. -1.
<scales pt_clust_3="34.51678" pt_clust_4="14000.00000" pt_clust_5="51.50260" pt_clust_6="66.77300"></scales>
<clustering>
<clus scale="   51.503">  2  5  1 -1</clus>
<clus scale="   34.517">  2  3  1 -1</clus>
<clus scale="   66.773">  1  6  2 -1</clus>
<clus scale="   51.503">  2  3  1 -1</clus>
</clustering>
</event>
<event>
 6    0  0.1849053E+002  0.1421246E+03  0.7546771E-02  0.1210498E+00
         21   -1    0    0  505  502  0.00000000000E+00  0.00000000000E+00  0.22157546615E+03  0.22157546615E+03  0.00000000000E+00 0. -1.
         -1   -1    0    0    0  501 -0.00000000000E+00 -0.00000000000E+00 -0.18003572930E+03  0.18003572930E+03  0.00000000000E+00 0. -1.
         21    1    1    2  503  504  0.61568965034E+02 -0.15861090804E+02  0.40461362239E+02  0.75362016236E+02  0.00000000000E+00 0. -1.
         21    1    1    2  504  502  0.69006888080E+02 -0.39986999288E+02  0.10503763627E+03  0.13188561615E+03  0.00000000000E+00 0. -1.
         21    1    1    2  505  501 -0.11158436049E+02  0.42598236140E+02 -0.26022883273E+02  0.51149886326E+02  0.00000000000E+00 0. -1.
         -1    1    1    2    0  503 -0.11941741707E+03  0.13249853952E+02 -0.77936378383E+02  0.14321367673E+03  0.00000000000E+00 0. -1.
<scales pt_clust_3="35.85383" pt_clust_4="35.85383" pt_clust_5="44.03545" pt_clust_6="136.33359"></scales>
<clustering>
<clus scale="   35.854">  3  4 -1 -1</clus>
<clus scale="   44.035">  2  5  1 -1</clus>
<clus scale="  136.334">  2  6  1 -1</clus>
<clus scale="  142.125">  1  3  2 -1</clus>
</clustering>
</event>
<event>
 6    0  0.1849053E+002  0.1736508E+03  0.7546771E-02  0.1174093E+00
          2   -1    0    0  505    0 -0.00000000000E+00  0.00000000000E+00  0.11050235418E+04  0.11050235418E+04  0.00000000000E+00 0. -1.
         21   -1    0    0  503  502  0.00000000000E+00 -0.00000000000E+00 -0.40757946130E+03  0.40757946130E+03  0.00000000000E+00 0. -1.
         21    1    1    2  503  504  0.72352573976E+01 -0.29707807180E+02 -0.42876930779E+02  0.52662452945E+02  0.00000000000E+00 0. -1.
         21    1    1    2  504  501 -0.16784622312E+03 -0.83385954115E+02  0.30760204076E+03  0.36020075991E+03  0.00000000000E+00 0. -1.
         21    1    1    2  505  502  0.35224626842E+02 -0.26287984198E+01 -0.32303680622E+03  0.32496224871E+03  0.00000000000E+00 0. -1.
          2    1    1    2  501    0  0.12538633888E+03  0.11572255971E+03  0.75575577677E+03  0.77477754158E+03  0.00000000000E+00 0. -1.
<scales pt_clust_3="30.57618" pt_clust_4="14000.00000" pt_clust_5="51.04302" pt_clust_6="173.65082"></scales>
<clustering>
<clus scale="   30.576">  2  3  1 -1</clus>
<clus scale="   51.043">  2  5  1 -1</clus>
<clus scale="  173.651">  1  6  2 -1</clus>
<clus scale="   30.576">  2  3  1 -1</clus>
</clustering>
</event>
<event>
 6    0  0.1849053E+002  0.1754520E+03  0.7546771E-02  0.1172279E+00
         -1   -1    0    0    0  501 -0.00000000000E+00  0.00000000000E+00  0.84776289157E+02  0.84776289157E+02  0.00000000000E+00 0. -1.
         21   -1    0    0  505  502  0.00000000000E+00 -0.00000000000E+00 -0.74119675859E+03  0.74119675859E+03  0.00000000000E+00 0.  1.
         21    1    1    2  503  502  0.11251337504E+03  0.13426378321E+02 -0.31171190698E+03  0.33166826823E+03  0.00000000000E+00 0.  1.
         21    1    1    2  504  503  0.50299147191E+02 -0.18725432599E+02 -0.21732594400E+03  0.22385533715E+03  0.00000000000E+00 0.  1.
         21    1    1    2  505  501  0.30818503829E+02 -0.25624361383E+02 -0.79657711454E+01  0.40863695189E+02  0.00000000000E+00 0. -1.
         -1    1    1    2    0  504 -0.19363102606E+03  0.30923415661E+02 -0.11941684732E+03  0.22958574719E+03  0.00000000000E+00 0. -1.
<scales pt_clust_3="32.20333" pt_clust_4="32.20333" pt_clust_5="40.07977" pt_clust_6="169.09750"></scales>
<clustering>
<clus scale="   32.203">  3  4 -1 -1</clus>
<clus scale="   40.080">  1  5  2 -1</clus>
<clus scale="  169.097">  1  6  2 -1</clus>
<clus scale="  175.452">  2  3  1 -1</clus>
</clustering>
</event>
<event>
 6    0  0.1849053E+002  0.1501124E+03  0.7546771E-02  0.1200335E+00
          1   -1    0    0  505    0 -0.00000000000E+00  0.00000000000E+00  0.24182245223E+04  0.24182245223E+04  0.00000000000E+00 0. -1.
         21   -1    0    0  501  502  0.00000000000E+00 -0.00000000000E+00 -0.20023802879E+02  0.20023802879E+02  0.00000000000E+00 0. -1.
         21    1    1    2  503  504  0.28555980019E+02  0.29237730978E+02  0.28885775388E+03  0.29173462408E+03  0.00000000000E+00 0. -1.
         21    1    1    2  504  502  0.59389146808E+02 -0.87589200851E+02  0.31568850061E+03  0.33295370291E+03  0.00000000000E+00 0. -1.
         21    1    1    2  505  503 -0.57770193782E+01  0.13652428378E+03  0.12940399305E+04  0.13012346429E+04  0.00000000000E+00 0. -1.
          1    1    1    2  501    0 -0.82168107449E+02 -0.78172813909E+02  0.49961453443E+03  0.51232535534E+03  0.00000000000E+00 0. -1.
<scales pt_clust_3="34.54534" pt_clust_4="105.82504" pt_clust_5="34.54534" pt_clust_6="136.17511"></scales>
<clustering>
<clus scale="   34.545">  3  5 -1 -1</clus>
<clus scale="  105.825">  2  4  1 -1</clus>
<clus scale="  136.175">  2  6  1 -1</clus>
<clus scale="  105.825">  2  3  1 -1</clus>
</clustering>
</event>
