<event>
 4    0  0.2219362E-002  0.2388093E+03  0.7546771E-02  0.1120589E+00
         21   -1    0    0  502  501  0.00000000000E+00  0.00000000000E+00  0.78197324565E+03  0.78197324565E+03  0.00000000000E+00 0.  1.
         21   -1    0    0  501  502 -0.00000000000E+00 -0.00000000000E+00 -0.72930718355E+02  0.72930718355E+02  0.00000000000E+00 0.  1.
         25    1    1    2    0    0 -0.29008884603E+02  0.15965470985E+03  0.13476235451E+03  0.24518775246E+03  0.12500000000E+03 0.  0.
         25    1    1    2    0    0  0.29008884603E+02 -0.15965470985E+03  0.57428017279E+03  0.60971621154E+03  0.12500000000E+03 0.  0.
</event>
<event>
 4    0  0.2219362E-002  0.2312004E+03  0.7546771E-02  0.1125798E+00
         21   -1    0    0  502  501  0.00000000000E+00  0.00000000000E+00  0.41925343035E+03  0.41925343035E+03  0.00000000000E+00 0.  1.
         21   -1    0    0  501  502 -0.00000000000E+00 -0.00000000000E+00 -0.12749714505E+03  0.12749714505E+03  0.00000000000E+00 0.  1.
         25    1    1    2    0    0  0.14474533523E+03 -0.10338236046E+03  0.23890282055E+03  0.32301498757E+03  0.12500000000E+03 0.  0.
         25    1    1    2    0    0 -0.14474533523E+03  0.10338236046E+03  0.52853464752E+02  0.22373558783E+03  0.12500000000E+03 0.  0.
</event>
<event>
 4    0  0.2219362E-002  0.3499246E+03  0.7546771E-02  0.1062646E+00
         21   -1    0    0  502  501  0.00000000000E+00  0.00000000000E+00  0.86406562902E+03  0.86406562902E+03  0.00000000000E+00 0.  1.
         21   -1    0    0  501  502 -0.00000000000E+00 -0.00000000000E+00 -0.14171059584E+03  0.14171059584E+03  0.00000000000E+00 0.  1.
         25    1    1    2    0    0  0.21526976358E+03 -0.19928027599E+03  0.15406803119E+03  0.35414073155E+03  0.12500000000E+03 0.  0.
         25    1    1    2    0    0 -0.21526976358E+03  0.19928027599E+03  0.56828700199E+03  0.65163549331E+03  0.12500000000E+03 0.  0.
</event>
<event>
 4    0  0.2219362E-002  0.1710119E+03  0.7546771E-02  0.1176797E+00
         21   -1    0    0  502  501  0.00000000000E+00  0.00000000000E+00  0.99380307191E+02  0.99380307191E+02  0.00000000000E+00 0.  1.
         21   -1    0    0  501  502 -0.00000000000E+00 -0.00000000000E+00 -0.29427431046E+03  0.29427431046E+03  0.00000000000E+00 0.  1.
         25    1    1    2    0    0 -0.85027100479E+02  0.28289250855E+02 -0.11392819910E+02  0.15422284486E+03  0.12500000000E+03 0.  0.
         25    1    1    2    0    0  0.85027100479E+02 -0.28289250855E+02 -0.18350118336E+03  0.23943177279E+03  0.12500000000E+03 0.  0.
</event>
<event>
 4    0  0.2219362E-002  0.2633269E+03  0.7546771E-02  0.1105161E+00
         21   -1    0    0  502  501  0.00000000000E+00  0.00000000000E+00  0.94119349131E+03  0.94119349131E+03  0.00000000000E+00 0.  1.
         21   -1    0    0  501  502 -0.00000000000E+00 -0.00000000000E+00 -0.73673538728E+02  0.73673538728E+02  0.00000000000E+00 0.  1.
         25    1    1    2    0    0 -0.21402520521E+03 -0.71887813098E+02  0.33286469810E+03  0.42118707646E+03  0.12500000000E+03 0.  0.
         25    1    1    2    0    0  0.21402520521E+03  0.71887813098E+02  0.53465525448E+03  0.59367995358E+03  0.12500000000E+03 0.  0.
</event>
<event>
 4    0  0.2219362E-002  0.4021971E+03  0.7546771E-02  0.1043022E+00
         21   -1    0    0  502  501  0.00000000000E+00  0.00000000000E+00  0.48673423581E+03  0.48673423581E+03  0.00000000000E+00 0.  1.
         21   -1    0    0  501  502 -0.00000000000E+00 -0.00000000000E+00 -0.33234262624E+03  0.33234262624E+03  0.00000000000E+00 0.  1.
         25    1    1    2    0    0 -0.33410406118E+03  0.16752729719E+03  0.15895216819E+03  0.42494906844E+03  0.12500000000E+03 0.  0.
         25    1    1    2    0    0  0.33410406118E+03 -0.16752729719E+03 -0.45605586208E+01  0.39412779360E+03  0.12500000000E+03 0.  0.
</event>
<event>
 4    0  0.2219362E-002  0.1929119E+03  0.7546771E-02  0.1155861E+00
         21   -1    0    0  502  501  0.00000000000E+00  0.00000000000E+00  0.12796206624E+04  0.12796206624E+04  0.00000000000E+00 0.  1.
         21   -1    0    0  501  502 -0.00000000000E+00 -0.00000000000E+00 -0.29082837651E+02  0.29082837651E+02  0.00000000000E+00 0.  1.
         25    1    1    2    0    0  0.44437323250E+02  0.12019965735E+03  0.86909877601E+03  0.88734453049E+03  0.12500000000E+03 0.  0.
         25    1    1    2    0    0 -0.44437323250E+02 -0.12019965735E+03  0.38143904869E+03  0.42135896952E+03  0.12500000000E+03 0.  0.
</event>
<event>
 4    0  0.2219362E-002  0.2814702E+03  0.7546771E-02  0.1094889E+00
         21   -1    0    0  502  501  0.00000000000E+00  0.00000000000E+00  0.18018189797E+03  0.18018189797E+03  0.00000000000E+00 0. -1.
         21   -1    0    0  501  502 -0.00000000000E+00 -0.00000000000E+00 -0.43969718047E+03  0.43969718047E+03  0.00000000000E+00 0. -1.
         25    1    1    2    0    0  0.73654398773E+02 -0.12501708194E+03 -0.35688796099E+03  0.40502871248E+03  0.12500000000E+03 0.  0.
         25    1    1    2    0    0 -0.73654398773E+02  0.12501708194E+03  0.97372678489E+02  0.21485036596E+03  0.12500000000E+03 0.  0.
</event>
<event>
 4    0  0.2219362E-002  0.2372094E+03  0.7546771E-02  0.1121666E+00
         21   -1    0    0  502  501  0.00000000000E+00  0.00000000000E+00  0.36379988827E+03  0.36379988827E+03  0.00000000000E+00 0.  1.
         21   -1    0    0  501  502 -0.00000000000E+00 -0.00000000000E+00 -0.15466828348E+03  0.15466828348E+03  0.00000000000E+00 0.  1.
         25    1    1    2    0    0 -0.41260354484E+02  0.44967168595E+02 -0.10541723894E+03  0.17453440168E+03  0.12500000000E+03 0.  0.
         25    1    1    2    0    0  0.41260354484E+02 -0.44967168595E+02  0.31454884373E+03  0.34393377007E+03  0.12500000000E+03 0.  0.
</event>
<event>
 4    0  0.2219362E-002  0.1903357E+03  0.7546771E-02  0.1158159E+00
         21   -1    0    0  502  501  0.00000000000E+00  0.00000000000E+00  0.97454708175E+02  0.97454708175E+02  0.00000000000E+00 0.  1.
         21   -1    0    0  501  502 -0.00000000000E+00 -0.00000000000E+00 -0.37173880792E+03  0.37173880792E+03  0.00000000000E+00 0.  1.
         25    1    1    2    0    0  0.81555951716E+02 -0.10245877921E+03 -0.20957443357E+03  0.27693973695E+03  0.12500000000E+03 0.  0.
         25    1    1    2    0    0 -0.81555951716E+02  0.10245877921E+03 -0.64709666178E+02  0.19225377914E+03  0.12500000000E+03 0.  0.
</event>
<event>
 4    0  0.2219362E-002  0.2534568E+03  0.7546771E-02  0.1111139E+00
         21   -1    0    0  502  501  0.00000000000E+00  0.00000000000E+00  0.67970420955E+03  0.67970420955E+03  0.00000000000E+00 0.  1.
         21   -1    0    0  501  502 -0.00000000000E+00 -0.00000000000E+00 -0.94512205265E+02  0.94512205265E+02  0.00000000000E+00 0.  1.
         25    1    1    2    0    0 -0.14375762531E+03  0.16717447320E+03  0.29055576592E+03  0.38556609347E+03  0.12500000000E+03 0.  0.
         25    1    1    2    0    0  0.14375762531E+03 -0.16717447320E+03  0.29463623836E+03  0.38865032134E+03  0.12500000000E+03 0.  0.
</event>
<event>
 4    0  0.2219362E-002  0.2796715E+03  0.7546771E-02  0.1095868E+00
         21   -1    0    0  502  501  0.00000000000E+00  0.00000000000E+00  0.16462850090E+03  0.16462850090E+03  0.00000000000E+00 0. -1.
         21   -1    0    0  501  502 -0.00000000000E+00 -0.00000000000E+00 -0.47510705694E+03  0.47510705694E+03  0.00000000000E+00 0. -1.
         25    1    1    2    0    0  0.12728871806E+03 -0.45865654387E+02  0.85446811696E+02  0.20305721762E+03  0.12500000000E+03 0.  0.
         25    1    1    2    0    0 -0.12728871806E+03  0.45865654387E+02 -0.39592536774E+03  0.43667834022E+03  0.12500000000E+03 0.  0.
</event>
<event>
 4    0  0.2219362E-002  0.2095269E+03  0.7546771E-02  0.1141941E+00
         21   -1    0    0  502  501  0.00000000000E+00  0.00000000000E+00  0.12529819953E+02  0.12529819953E+02  0.00000000000E+00 0. -1.
         21   -1    0    0  501  502 -0.00000000000E+00 -0.00000000000E+00 -0.35037641464E+04  0.35037641464E+04  0.00000000000E+00 0. -1.
         25    1    1    2    0    0 -0.12766769558E+03  0.68614620230E+02 -0.10301850692E+04  0.10478135728E+04  0.12500000000E+03 0.  0.
         25    1    1    2    0    0  0.12766769558E+03 -0.68614620230E+02 -0.24610492573E+04  0.24684803935E+04  0.12500000000E+03 0.  0.
</event>
<event>
 4    0  0.2219362E-002  0.2138794E+03  0.7546771E-02  0.1138530E+00
         21   -1    0    0  502  501  0.00000000000E+00  0.00000000000E+00  0.10634985205E+04  0.10634985205E+04  0.00000000000E+00 0.  1.
         21   -1    0    0  501  502 -0.00000000000E+00 -0.00000000000E+00 -0.43013113614E+02  0.43013113614E+02  0.00000000000E+00 0.  1.
         25    1    1    2    0    0  0.13554484203E+03  0.41554664505E+02  0.25130514675E+03  0.31444947309E+03  0.12500000000E+03 0.  0.
         25    1    1    2    0    0 -0.13554484203E+03 -0.41554664505E+02  0.76918026012E+03  0.79206216101E+03  0.12500000000E+03 0.  0.
</event>
<event>
 4    0  0.2219362E-002  0.2419905E+03  0.7546771E-02  0.1118474E+00
         21   -1    0    0  502  501  0.00000000000E+00  0.00000000000E+00  0.11256453691E+04  0.11256453691E+04  0.00000000000E+00 0.  1.
         21   -1    0    0  501  502 -0.00000000000E+00 -0.00000000000E+00 -0.52022950314E+02  0.52022950314E+02  0.00000000000E+00 0. -1.
         25    1    1    2    0    0 -0.18445331695E+03  0.75258663344E+02  0.67547699957E+03  0.71524895630E+03  0.12500000000E+03 0.  0.
         25    1    1    2    0    0  0.18445331695E+03 -0.75258663344E+02  0.39814541926E+03  0.46241936316E+03  0.12500000000E+03 0.  0.
</event>
<event>
 4    0  0.2219362E-002  0.2060020E+03  0.7546771E-02  0.1144772E+00
         21   -1    0    0  502  501  0.00000000000E+00  0.00000000000E+00  0.10131820216E+03  0.10131820216E+03  0.00000000000E+00 0. -1.
         21   -1    0    0  501  502 -0.00000000000E+00 -0.00000000000E+00 -0.41884681166E+03  0.41884681166E+03  0.00000000000E+00 0. -1.
         25    1    1    2    0    0 -0.84762096553E+02 -0.14009690388E+03 -0.15904787557E+03  0.26025560938E+03  0.12500000000E+03 0.  0.
         25    1    1    2    0    0  0.84762096553E+02  0.14009690388E+03 -0.15848073393E+03  0.25990940444E+03  0.12500000000E+03 0.  0.
</event>
<event>
 4    0  0.2318785E-002  0.1953836E+03  0.7546771E-02  0.1153693E+00
         21   -1    0    0  502  501  0.00000000000E+00  0.00000000000E+00  0.22459341919E+03  0.22459341919E+03  0.00000000000E+00 0.  1.
         21   -1    0    0  501  502 -0.00000000000E+00 -0.00000000000E+00 -0.16997270731E+03  0.16997270731E+03  0.00000000000E+00 0.  1.
         25    1    1    2    0    0 -0.43858172007E+00 -0.27702693348E+01  0.17890951978E+03  0.21826929013E+03  0.12500000000E+03 0.  0.
         25    1    1    2    0    0  0.43858172007E+00  0.27702693348E+01 -0.12428880790E+03  0.17629683637E+03  0.12500000000E+03 0.  0.
</event>
<event>
 4    0  0.2219362E-002  0.2331658E+03  0.7546771E-02  0.1124431E+00
         21   -1    0    0  502  501  0.00000000000E+00  0.00000000000E+00  0.39704516971E+03  0.39704516971E+03  0.00000000000E+00 0.  1.
         21   -1    0    0  501  502 -0.00000000000E+00 -0.00000000000E+00 -0.13692725757E+03  0.13692725757E+03  0.00000000000E+00 0.  1.
         25    1    1    2    0    0  0.59528694776E+02  0.88747688850E+02  0.31932647999E+03  0.35918549331E+03  0.12500000000E+03 0.  0.
         25    1    1    2    0    0 -0.59528694776E+02 -0.88747688850E+02 -0.59208567856E+02  0.17478693397E+03  0.12500000000E+03 0.  0.
</event>
<event>
 4    0  0.2219362E-002  0.2269840E+03  0.7546771E-02  0.1128781E+00
         21   -1    0    0  502  501  0.00000000000E+00  0.00000000000E+00  0.90356254930E+03  0.90356254930E+03  0.00000000000E+00 0.  1.
         21   -1    0    0  501  502 -0.00000000000E+00 -0.00000000000E+00 -0.57020648730E+02  0.57020648730E+02  0.00000000000E+00 0.  1.
         25    1    1    2    0    0 -0.12456845912E+03  0.93684686434E+02  0.65119360029E+03  0.68115506791E+03  0.12500000000E+03 0.  0.
         25    1    1    2    0    0  0.12456845912E+03 -0.93684686434E+02  0.19534830028E+03  0.27942813012E+03  0.12500000000E+03 0.  0.
</event>
<event>
 4    0  0.2219362E-002  0.2151848E+03  0.7546771E-02  0.1137525E+00
         21   -1    0    0  502  501  0.00000000000E+00  0.00000000000E+00  0.10793676149E+03  0.10793676149E+03  0.00000000000E+00 0. -1.
         21   -1    0    0  501  502 -0.00000000000E+00 -0.00000000000E+00 -0.42899662444E+03  0.42899662444E+03  0.00000000000E+00 0. -1.
         25    1    1    2    0    0 -0.13946408062E+02  0.62424928276E+02 -0.36396353871E+03  0.39011002484E+03  0.12500000000E+03 0.  0.
         25    1    1    2    0    0  0.13946408062E+02 -0.62424928276E+02  0.42903675764E+02  0.14682336109E+03  0.12500000000E+03 0.  0.
</event>
<event>
 4    0  0.2219362E-002  0.1923844E+03  0.7546771E-02  0.1156328E+00
         21   -1    0    0  502  501  0.00000000000E+00  0.00000000000E+00  0.60229137580E+02  0.60229137580E+02  0.00000000000E+00 0. -1.
         21   -1    0    0  501  502 -0.00000000000E+00 -0.00000000000E+00 -0.61451606819E+03  0.61451606819E+03  0.00000000000E+00 0. -1.
         25    1    1    2    0    0 -0.11811553915E+03 -0.23667811903E+02 -0.42255087715E+03  0.45682128856E+03  0.12500000000E+03 0.  0.
         25    1    1    2    0    0  0.11811553915E+03  0.23667811903E+02 -0.13173605346E+03  0.21792391721E+03  0.12500000000E+03 0.  0.
</event>
<event>
 4    0  0.2219362E-002  0.1710405E+03  0.7546771E-02  0.1176767E+00
         21   -1    0    0  502  501  0.00000000000E+00  0.00000000000E+00  0.19417254294E+03  0.19417254294E+03  0.00000000000E+00 0.  1.
         21   -1    0    0  501  502 -0.00000000000E+00 -0.00000000000E+00 -0.15066420413E+03  0.15066420413E+03  0.00000000000E+00 0.  1.
         25    1    1    2    0    0 -0.32710325852E+02 -0.10588349285E+03 -0.15264575526E+02  0.16774768774E+03  0.12500000000E+03 0.  0.
         25    1    1    2    0    0  0.32710325852E+02  0.10588349285E+03  0.58772914331E+02  0.17708905933E+03  0.12500000000E+03 0.  0.
</event>
<event>
 4    0  0.2219362E-002  0.2312491E+03  0.7546771E-02  0.1125764E+00
         21   -1    0    0  502  501  0.00000000000E+00  0.00000000000E+00  0.58272902176E+03  0.58272902176E+03  0.00000000000E+00 0.  1.
         21   -1    0    0  501  502 -0.00000000000E+00 -0.00000000000E+00 -0.91768430425E+02  0.91768430425E+02  0.00000000000E+00 0.  1.
         25    1    1    2    0    0 -0.16338918184E+02  0.19386507577E+03  0.24651135929E+03  0.33799922797E+03  0.12500000000E+03 0.  0.
         25    1    1    2    0    0  0.16338918184E+02 -0.19386507577E+03  0.24444923205E+03  0.33649822421E+03  0.12500000000E+03 0.  0.
</event>
<event>
 4    0  0.2219362E-002  0.1985122E+03  0.7546771E-02  0.1151000E+00
         21   -1    0    0  502  501  0.00000000000E+00  0.00000000000E+00  0.17078573535E+04  0.17078573535E+04  0.00000000000E+00 0.  1.
         21   -1    0    0  501  502 -0.00000000000E+00 -0.00000000000E+00 -0.23073990131E+02  0.23073990131E+02  0.00000000000E+00 0.  1.
         25    1    1    2    0    0 -0.41681198153E+01  0.13222711050E+03  0.49687677947E+03  0.52916246649E+03  0.12500000000E+03 0.  0.
         25    1    1    2    0    0  0.41681198153E+01 -0.13222711050E+03  0.11879065839E+04  0.12017688771E+04  0.12500000000E+03 0.  0.
</event>
<event>
 4    0  0.2219362E-002  0.2069458E+03  0.7546771E-02  0.1144008E+00
         21   -1    0    0  502  501  0.00000000000E+00  0.00000000000E+00  0.44035458241E+02  0.44035458241E+02  0.00000000000E+00 0.  1.
         21   -1    0    0  501  502 -0.00000000000E+00 -0.00000000000E+00 -0.97254689734E+03  0.97254689734E+03  0.00000000000E+00 0.  1.
         25    1    1    2    0    0 -0.10458080222E+03  0.86669480929E+02 -0.23446649145E+03  0.29840958217E+03  0.12500000000E+03 0.  0.
         25    1    1    2    0    0  0.10458080222E+03 -0.86669480929E+02 -0.69404494764E+03  0.71817277341E+03  0.12500000000E+03 0.  0.
</event>
<event>
 4    0  0.2219362E-002  0.2281388E+03  0.7546771E-02  0.1127957E+00
         21   -1    0    0  502  501  0.00000000000E+00  0.00000000000E+00  0.58661932414E+02  0.58661932414E+02  0.00000000000E+00 0.  1.
         21   -1    0    0  501  502 -0.00000000000E+00 -0.00000000000E+00 -0.88724145639E+03  0.88724145639E+03  0.00000000000E+00 0.  1.
         25    1    1    2    0    0 -0.30668167004E+02 -0.13060359528E+03 -0.69568393947E+03  0.71944352051E+03  0.12500000000E+03 0.  0.
         25    1    1    2    0    0  0.30668167004E+02  0.13060359528E+03 -0.13289558450E+03  0.22645986829E+03  0.12500000000E+03 0.  0.
</event>
<event>
 4    0  0.2219362E-002  0.1884529E+03  0.7546771E-02  0.1159864E+00
         21   -1    0    0  502  501  0.00000000000E+00  0.00000000000E+00  0.85420077758E+02  0.85420077758E+02  0.00000000000E+00 0.  1.
         21   -1    0    0  501  502 -0.00000000000E+00 -0.00000000000E+00 -0.41576267898E+03  0.41576267898E+03  0.00000000000E+00 0.  1.
         25    1    1    2    0    0  0.11113538757E+03 -0.33767114365E+01 -0.49806196927E+02  0.17455123547E+03  0.12500000000E+03 0.  0.
         25    1    1    2    0    0 -0.11113538757E+03  0.33767114365E+01 -0.28053640429E+03  0.32663152127E+03  0.12500000000E+03 0.  0.
</event>
<event>
 4    0  0.2219362E-002  0.2811098E+03  0.7546771E-02  0.1095084E+00
         21   -1    0    0  502  501  0.00000000000E+00  0.00000000000E+00  0.21020633235E+03  0.21020633235E+03  0.00000000000E+00 0.  1.
         21   -1    0    0  501  502 -0.00000000000E+00 -0.00000000000E+00 -0.37592927839E+03  0.37592927839E+03  0.00000000000E+00 0.  1.
         25    1    1    2    0    0 -0.13095983823E+03  0.10572034140E+03 -0.27809876610E+03  0.34826885235E+03  0.12500000000E+03 0.  0.
         25    1    1    2    0    0  0.13095983823E+03 -0.10572034140E+03  0.11237582005E+03  0.23786675839E+03  0.12500000000E+03 0.  0.
</event>
<event>
 4    0  0.2219362E-002  0.2471555E+03  0.7546771E-02  0.1115116E+00
         21   -1    0    0  502  501  0.00000000000E+00  0.00000000000E+00  0.33557554788E+03  0.33557554788E+03  0.00000000000E+00 0.  1.
         21   -1    0    0  501  502 -0.00000000000E+00 -0.00000000000E+00 -0.18203311677E+03  0.18203311677E+03  0.00000000000E+00 0. -1.
         25    1    1    2    0    0  0.52507869408E+02 -0.18444748268E+03  0.17434516909E+03  0.28774848080E+03  0.12500000000E+03 0.  0.
         25    1    1    2    0    0 -0.52507869408E+02  0.18444748268E+03 -0.20802737980E+02  0.22986018386E+03  0.12500000000E+03 0.  0.
</event>
<event>
 4    0  0.2219362E-002  0.2228419E+03  0.7546771E-02  0.1131782E+00
         21   -1    0    0  502  501  0.00000000000E+00  0.00000000000E+00  0.63778821712E+02  0.63778821712E+02  0.00000000000E+00 0.  1.
         21   -1    0    0  501  502 -0.00000000000E+00 -0.00000000000E+00 -0.77860477329E+03  0.77860477329E+03  0.00000000000E+00 0.  1.
         25    1    1    2    0    0  0.65968698672E+02  0.14166099764E+03 -0.17208952051E+03  0.26393088209E+03  0.12500000000E+03 0.  0.
         25    1    1    2    0    0 -0.65968698672E+02 -0.14166099764E+03 -0.54273643107E+03  0.57845271291E+03  0.12500000000E+03 0.  0.
</event>
<event>
 4    0  0.2219362E-002  0.2247688E+03  0.7546771E-02  0.1130377E+00
         21   -1    0    0  502  501  0.00000000000E+00  0.00000000000E+00  0.16664249327E+03  0.16664249327E+03  0.00000000000E+00 0.  1.
         21   -1    0    0  501  502 -0.00000000000E+00 -0.00000000000E+00 -0.30317009709E+03  0.30317009709E+03  0.00000000000E+00 0.  1.
         25    1    1    2    0    0  0.56766261604E+02  0.59432728412E+02  0.10705607712E+03  0.18395831406E+03  0.12500000000E+03 0.  0.
         25    1    1    2    0    0 -0.56766261604E+02 -0.59432728412E+02 -0.24358368094E+03  0.28585427631E+03  0.12500000000E+03 0.  0.
</event>
<event>
 4    0  0.2219362E-002  0.2344758E+03  0.7546771E-02  0.1123529E+00
         21   -1    0    0  502  501  0.00000000000E+00  0.00000000000E+00  0.32940263666E+03  0.32940263666E+03  0.00000000000E+00 0.  1.
         21   -1    0    0  501  502 -0.00000000000E+00 -0.00000000000E+00 -0.16690490324E+03  0.16690490324E+03  0.00000000000E+00 0.  1.
         25    1    1    2    0    0  0.96319898029E+02  0.71186968836E+02 -0.86117924400E+02  0.19335564174E+03  0.12500000000E+03 0.  0.
         25    1    1    2    0    0 -0.96319898029E+02 -0.71186968836E+02  0.24861565782E+03  0.30295189817E+03  0.12500000000E+03 0.  0.
</event>
<event>
 4    0  0.2219362E-002  0.1382341E+03  0.7546771E-02  0.1215725E+00
         21   -1    0    0  502  501  0.00000000000E+00  0.00000000000E+00  0.89090264904E+02  0.89090264904E+02  0.00000000000E+00 0. -1.
         21   -1    0    0  501  502 -0.00000000000E+00 -0.00000000000E+00 -0.21448652639E+03  0.21448652639E+03  0.00000000000E+00 0. -1.
         25    1    1    2    0    0 -0.33593528557E+02  0.40856413028E+02 -0.33940664927E+02  0.13990975799E+03  0.12500000000E+03 0.  0.
         25    1    1    2    0    0  0.33593528557E+02 -0.40856413028E+02 -0.91455596555E+02  0.16366703330E+03  0.12500000000E+03 0.  0.
</event>
<event>
 4    0  0.2219362E-002  0.1773002E+03  0.7546771E-02  0.1170442E+00
         21   -1    0    0  502  501  0.00000000000E+00  0.00000000000E+00  0.49160573952E+03  0.49160573952E+03  0.00000000000E+00 0.  1.
         21   -1    0    0  501  502 -0.00000000000E+00 -0.00000000000E+00 -0.63944260294E+02  0.63944260294E+02  0.00000000000E+00 0.  1.
         25    1    1    2    0    0 -0.91161774876E+01  0.11589639415E+03  0.13877181271E+03  0.21999476101E+03  0.12500000000E+03 0.  0.
         25    1    1    2    0    0  0.91161774876E+01 -0.11589639415E+03  0.28888966651E+03  0.33555523880E+03  0.12500000000E+03 0.  0.
</event>
<event>
 4    0  0.2219362E-002  0.2812894E+03  0.7546771E-02  0.1094987E+00
         21   -1    0    0  502  501  0.00000000000E+00  0.00000000000E+00  0.66590280477E+02  0.66590280477E+02  0.00000000000E+00 0.  1.
         21   -1    0    0  501  502 -0.00000000000E+00 -0.00000000000E+00 -0.11882176679E+04  0.11882176679E+04  0.00000000000E+00 0.  1.
         25    1    1    2    0    0  0.33489239309E+02 -0.24950877495E+03 -0.53611800781E+03  0.60532939481E+03  0.12500000000E+03 0.  0.
         25    1    1    2    0    0 -0.33489239309E+02  0.24950877495E+03 -0.58550937962E+03  0.64947855357E+03  0.12500000000E+03 0.  0.
</event>
<event>
 4    0  0.2219362E-002  0.2014087E+03  0.7546771E-02  0.1148556E+00
         21   -1    0    0  502  501  0.00000000000E+00  0.00000000000E+00  0.75609777165E+02  0.75609777165E+02  0.00000000000E+00 0.  1.
         21   -1    0    0  501  502 -0.00000000000E+00 -0.00000000000E+00 -0.53651093362E+03  0.53651093362E+03  0.00000000000E+00 0.  1.
         25    1    1    2    0    0 -0.14933513985E+02  0.14032089046E+03 -0.33819760183E+03  0.38718933357E+03  0.12500000000E+03 0.  0.
         25    1    1    2    0    0  0.14933513985E+02 -0.14032089046E+03 -0.12270355462E+03  0.22493137722E+03  0.12500000000E+03 0.  0.
</event>
<event>
 4    0  0.2219362E-002  0.2675314E+03  0.7546771E-02  0.1102701E+00
         21   -1    0    0  502  501  0.00000000000E+00  0.00000000000E+00  0.12427177003E+03  0.12427177003E+03  0.00000000000E+00 0. -1.
         21   -1    0    0  501  502 -0.00000000000E+00 -0.00000000000E+00 -0.57593953492E+03  0.57593953492E+03  0.00000000000E+00 0. -1.
         25    1    1    2    0    0 -0.98831506513E+02  0.96358913673E+02 -0.47720192703E+03  0.51224933976E+03  0.12500000000E+03 0.  0.
         25    1    1    2    0    0  0.98831506513E+02 -0.96358913673E+02  0.25534162140E+02  0.18796196520E+03  0.12500000000E+03 0.  0.
</event>
<event>
 4    0  0.2219362E-002  0.3206378E+03  0.7546771E-02  0.1075356E+00
         21   -1    0    0  502  501  0.00000000000E+00  0.00000000000E+00  0.27779973094E+04  0.27779973094E+04  0.00000000000E+00 0. -1.
         21   -1    0    0  501  502 -0.00000000000E+00 -0.00000000000E+00 -0.37008179154E+02  0.37008179154E+02  0.00000000000E+00 0.  1.
         25    1    1    2    0    0  0.18536654851E+03 -0.16159821648E+03  0.65309298396E+03  0.70896416452E+03  0.12500000000E+03 0.  0.
         25    1    1    2    0    0 -0.18536654851E+03  0.16159821648E+03  0.20878961463E+04  0.21060413241E+04  0.12500000000E+03 0.  0.
</event>
<event>
 4    0  0.2219362E-002  0.2057308E+03  0.7546771E-02  0.1144992E+00
         21   -1    0    0  502  501  0.00000000000E+00  0.00000000000E+00  0.31233367452E+04  0.31233367452E+04  0.00000000000E+00 0. -1.
         21   -1    0    0  501  502 -0.00000000000E+00 -0.00000000000E+00 -0.13551261589E+02  0.13551261589E+02  0.00000000000E+00 0. -1.
         25    1    1    2    0    0 -0.15653570550E+03  0.30281442532E+02  0.18276234770E+04  0.18388183615E+04  0.12500000000E+03 0.  0.
         25    1    1    2    0    0  0.15653570550E+03 -0.30281442532E+02  0.12821620066E+04  0.12980696453E+04  0.12500000000E+03 0.  0.
</event>
<event>
 4    0  0.2219362E-002  0.1700425E+03  0.7546771E-02  0.1177804E+00
         21   -1    0    0  502  501  0.00000000000E+00  0.00000000000E+00  0.13243906612E+03  0.13243906612E+03  0.00000000000E+00 0.  1.
         21   -1    0    0  501  502 -0.00000000000E+00 -0.00000000000E+00 -0.21832265210E+03  0.21832265210E+03  0.00000000000E+00 0.  1.
         25    1    1    2    0    0 -0.94234259210E+01 -0.21933630503E+02  0.73379932403E+02  0.14689962417E+03  0.12500000000E+03 0.  0.
         25    1    1    2    0    0  0.94234259210E+01  0.21933630503E+02 -0.15926351838E+03  0.20386209405E+03  0.12500000000E+03 0.  0.
</event>
<event>
 4    0  0.2219362E-002  0.2121385E+03  0.7546771E-02  0.1139884E+00
         21   -1    0    0  502  501  0.00000000000E+00  0.00000000000E+00  0.14737847159E+02  0.14737847159E+02  0.00000000000E+00 0. -1.
         21   -1    0    0  501  502 -0.00000000000E+00 -0.00000000000E+00 -0.30535484746E+04  0.30535484746E+04  0.00000000000E+00 0. -1.
         25    1    1    2    0    0 -0.10777319220E+03 -0.12913009876E+03 -0.17579547174E+04  0.17704009241E+04  0.12500000000E+03 0.  0.
         25    1    1    2    0    0  0.10777319220E+03  0.12913009876E+03 -0.12808559100E+04  0.12978853977E+04  0.12500000000E+03 0.  0.
</event>
<event>
 4    0  0.2219362E-002  0.2336339E+03  0.7546771E-02  0.1124108E+00
         21   -1    0    0  502  501  0.00000000000E+00  0.00000000000E+00  0.70375865553E+03  0.70375865553E+03  0.00000000000E+00 0. -1.
         21   -1    0    0  501  502 -0.00000000000E+00 -0.00000000000E+00 -0.77561830410E+02  0.77561830410E+02  0.00000000000E+00 0. -1.
         25    1    1    2    0    0  0.88556496725E+02  0.52421378241E+02  0.31461495367E+02  0.16493962441E+03  0.12500000000E+03 0.  0.
         25    1    1    2    0    0 -0.88556496725E+02 -0.52421378241E+02  0.59473532975E+03  0.61638086153E+03  0.12500000000E+03 0.  0.
</event>
<event>
 4    0  0.2219362E-002  0.1902352E+03  0.7546771E-02  0.1158249E+00
         21   -1    0    0  502  501  0.00000000000E+00  0.00000000000E+00  0.47001169862E+02  0.47001169862E+02  0.00000000000E+00 0. -1.
         21   -1    0    0  501  502 -0.00000000000E+00 -0.00000000000E+00 -0.76996857100E+03  0.76996857100E+03  0.00000000000E+00 0. -1.
         25    1    1    2    0    0 -0.98961359745E+02 -0.27637476944E+02 -0.57628769832E+03  0.59857304658E+03  0.12500000000E+03 0.  0.
         25    1    1    2    0    0  0.98961359745E+02  0.27637476944E+02 -0.14667970281E+03  0.21839669428E+03  0.12500000000E+03 0.  0.
</event>
<event>
 4    0  0.2219362E-002  0.2496554E+03  0.7546771E-02  0.1113523E+00
         21   -1    0    0  502  501  0.00000000000E+00  0.00000000000E+00  0.10110238604E+03  0.10110238604E+03  0.00000000000E+00 0.  1.
         21   -1    0    0  501  502 -0.00000000000E+00 -0.00000000000E+00 -0.61648199625E+03  0.61648199625E+03  0.00000000000E+00 0.  1.
         25    1    1    2    0    0  0.11140584901E+03  0.11771603812E+03 -0.46312922997E+03  0.50634179412E+03  0.12500000000E+03 0.  0.
         25    1    1    2    0    0 -0.11140584901E+03 -0.11771603812E+03 -0.52250380237E+02  0.21124258817E+03  0.12500000000E+03 0.  0.
</event>
<event>
 4    0  0.2219362E-002  0.1647512E+03  0.7546771E-02  0.1183435E+00
         21   -1    0    0  502  501  0.00000000000E+00  0.00000000000E+00  0.25050482173E+03  0.25050482173E+03  0.00000000000E+00 0.  1.
         21   -1    0    0  501  502 -0.00000000000E+00 -0.00000000000E+00 -0.10835306620E+03  0.10835306620E+03  0.00000000000E+00 0.  1.
         25    1    1    2    0    0 -0.13815190534E+02 -0.24707304385E+02  0.18381988881E+03  0.22408940605E+03  0.12500000000E+03 0.  0.
         25    1    1    2    0    0  0.13815190534E+02  0.24707304385E+02 -0.41668133279E+02  0.13476848189E+03  0.12500000000E+03 0.  0.
</event>
<event>
 4    0  0.2219362E-002  0.2321236E+03  0.7546771E-02  0.1125154E+00
         21   -1    0    0  502  501  0.00000000000E+00  0.00000000000E+00  0.69516205149E+02  0.69516205149E+02  0.00000000000E+00 0.  1.
         21   -1    0    0  501  502 -0.00000000000E+00 -0.00000000000E+00 -0.77509078197E+03  0.77509078197E+03  0.00000000000E+00 0.  1.
         25    1    1    2    0    0  0.33542905747E+02 -0.14245249183E+03 -0.58886634373E+03  0.61952111323E+03  0.12500000000E+03 0.  0.
         25    1    1    2    0    0 -0.33542905747E+02  0.14245249183E+03 -0.11670823309E+03  0.22508587389E+03  0.12500000000E+03 0.  0.
</event>
<event>
 4    0  0.2219362E-002  0.1841612E+03  0.7546771E-02  0.1163836E+00
         21   -1    0    0  502  501  0.00000000000E+00  0.00000000000E+00  0.87553437146E+02  0.87553437146E+02  0.00000000000E+00 0. -1.
         21   -1    0    0  501  502 -0.00000000000E+00 -0.00000000000E+00 -0.38736733274E+03  0.38736733274E+03  0.00000000000E+00 0. -1.
         25    1    1    2    0    0  0.83988041935E+02 -0.84079861888E+02 -0.66672899185E+02  0.18491535861E+03  0.12500000000E+03 0.  0.
         25    1    1    2    0    0 -0.83988041935E+02  0.84079861888E+02 -0.23314099640E+03  0.29000541127E+03  0.12500000000E+03 0.  0.
</event>
<event>
 4    0  0.2219362E-002  0.2124918E+03  0.7546771E-02  0.1139608E+00
         21   -1    0    0  502  501  0.00000000000E+00  0.00000000000E+00  0.25549496171E+03  0.25549496171E+03  0.00000000000E+00 0. -1.
         21   -1    0    0  501  502 -0.00000000000E+00 -0.00000000000E+00 -0.17672659666E+03  0.17672659666E+03  0.00000000000E+00 0. -1.
         25    1    1    2    0    0  0.11757778242E+03 -0.14521634608E+01  0.16682234441E+03  0.23933520069E+03  0.12500000000E+03 0.  0.
         25    1    1    2    0    0 -0.11757778242E+03  0.14521634608E+01 -0.88053979353E+02  0.19288635768E+03  0.12500000000E+03 0.  0.
</event>
<event>
 4    0  0.2219362E-002  0.1947480E+03  0.7546771E-02  0.1154247E+00
         21   -1    0    0  502  501  0.00000000000E+00  0.00000000000E+00  0.21354822399E+04  0.21354822399E+04  0.00000000000E+00 0.  1.
         21   -1    0    0  501  502 -0.00000000000E+00 -0.00000000000E+00 -0.17760281635E+02  0.17760281635E+02  0.00000000000E+00 0.  1.
         25    1    1    2    0    0 -0.80180451015E+02 -0.93736747562E+02  0.59348999084E+03  0.61892717810E+03  0.12500000000E+03 0.  0.
         25    1    1    2    0    0  0.80180451015E+02  0.93736747562E+02  0.15242319674E+04  0.15343153434E+04  0.12500000000E+03 0.  0.
</event>
<event>
 4    0  0.2219362E-002  0.2018457E+03  0.7546771E-02  0.1148191E+00
         21   -1    0    0  502  501  0.00000000000E+00  0.00000000000E+00  0.71683694220E+03  0.71683694220E+03  0.00000000000E+00 0.  1.
         21   -1    0    0  501  502 -0.00000000000E+00 -0.00000000000E+00 -0.56835356047E+02  0.56835356047E+02  0.00000000000E+00 0.  1.
         25    1    1    2    0    0  0.14605128994E+03  0.50141480612E+02  0.39834029489E+03  0.44513496595E+03  0.12500000000E+03 0.  0.
         25    1    1    2    0    0 -0.14605128994E+03 -0.50141480612E+02  0.26166129126E+03  0.32853733230E+03  0.12500000000E+03 0.  0.
</event>
<event>
 4    0  0.2219362E-002  0.2061247E+03  0.7546771E-02  0.1144672E+00
         21   -1    0    0  502  501  0.00000000000E+00  0.00000000000E+00  0.12201382138E+03  0.12201382138E+03  0.00000000000E+00 0.  1.
         21   -1    0    0  501  502 -0.00000000000E+00 -0.00000000000E+00 -0.34821770393E+03  0.34821770393E+03  0.00000000000E+00 0. -1.
         25    1    1    2    0    0 -0.15685401821E+03 -0.47365440910E+02 -0.10858164669E+03  0.23294128449E+03  0.12500000000E+03 0.  0.
         25    1    1    2    0    0  0.15685401821E+03  0.47365440910E+02 -0.11762223586E+03  0.23729024083E+03  0.12500000000E+03 0.  0.
</event>
<event>
 4    0  0.2219362E-002  0.2084074E+03  0.7546771E-02  0.1142833E+00
         21   -1    0    0  502  501  0.00000000000E+00  0.00000000000E+00  0.13401743239E+03  0.13401743239E+03  0.00000000000E+00 0.  1.
         21   -1    0    0  501  502 -0.00000000000E+00 -0.00000000000E+00 -0.32408946874E+03  0.32408946874E+03  0.00000000000E+00 0.  1.
         25    1    1    2    0    0  0.95638845730E+02  0.48277170408E+02 -0.23548943502E+03  0.28732864111E+03  0.12500000000E+03 0.  0.
         25    1    1    2    0    0 -0.95638845730E+02 -0.48277170408E+02  0.45417398669E+02  0.17077826002E+03  0.12500000000E+03 0.  0.
</event>
<event>
 4    0  0.2219362E-002  0.3437593E+03  0.7546771E-02  0.1065206E+00
         21   -1    0    0  502  501  0.00000000000E+00  0.00000000000E+00  0.47243382138E+03  0.47243382138E+03  0.00000000000E+00 0.  1.
         21   -1    0    0  501  502 -0.00000000000E+00 -0.00000000000E+00 -0.25013126910E+03  0.25013126910E+03  0.00000000000E+00 0.  1.
         25    1    1    2    0    0  0.31144731988E+03 -0.73818139379E+02  0.10080461039E+03  0.35809931617E+03  0.12500000000E+03 0.  0.
         25    1    1    2    0    0 -0.31144731988E+03  0.73818139379E+02  0.12149794189E+03  0.36446577432E+03  0.12500000000E+03 0.  0.
</event>
<event>
 4    0  0.2219362E-002  0.2209670E+03  0.7546771E-02  0.1133164E+00
         21   -1    0    0  502  501  0.00000000000E+00  0.00000000000E+00  0.27654499335E+04  0.27654499335E+04  0.00000000000E+00 0. -1.
         21   -1    0    0  501  502 -0.00000000000E+00 -0.00000000000E+00 -0.17655865723E+02  0.17655865723E+02  0.00000000000E+00 0. -1.
         25    1    1    2    0    0  0.15036298137E+03  0.19189445988E+02  0.73712210816E+03  0.76285730209E+03  0.12500000000E+03 0.  0.
         25    1    1    2    0    0 -0.15036298137E+03 -0.19189445988E+02  0.20106719596E+04  0.20202484972E+04  0.12500000000E+03 0.  0.
</event>
<event>
 4    0  0.2219362E-002  0.2025846E+03  0.7546771E-02  0.1147577E+00
         21   -1    0    0  502  501  0.00000000000E+00  0.00000000000E+00  0.41862530002E+02  0.41862530002E+02  0.00000000000E+00 0. -1.
         21   -1    0    0  501  502 -0.00000000000E+00 -0.00000000000E+00 -0.98036398798E+03  0.98036398798E+03  0.00000000000E+00 0. -1.
         25    1    1    2    0    0  0.36787456620E+02  0.67299990760E+02 -0.82186040339E+03  0.83484257701E+03  0.12500000000E+03 0.  0.
         25    1    1    2    0    0 -0.36787456620E+02 -0.67299990760E+02 -0.11664105459E+03  0.18738394098E+03  0.12500000000E+03 0.  0.
</event>
<event>
 4    0  0.2219362E-002  0.1840394E+03  0.7546771E-02  0.1163950E+00
         21   -1    0    0  502  501  0.00000000000E+00  0.00000000000E+00  0.25905268271E+03  0.25905268271E+03  0.00000000000E+00 0.  1.
         21   -1    0    0  501  502 -0.00000000000E+00 -0.00000000000E+00 -0.13074753854E+03  0.13074753854E+03  0.00000000000E+00 0.  1.
         25    1    1    2    0    0 -0.69333314397E+02 -0.11586622292E+03  0.68030717341E+02  0.19617662603E+03  0.12500000000E+03 0.  0.
         25    1    1    2    0    0  0.69333314397E+02  0.11586622292E+03  0.60274426824E+02  0.19362359522E+03  0.12500000000E+03 0.  0.
</event>
<event>
 4    0  0.2219362E-002  0.2143545E+03  0.7546771E-02  0.1138163E+00
         21   -1    0    0  502  501  0.00000000000E+00  0.00000000000E+00  0.26458220187E+02  0.26458220187E+02  0.00000000000E+00 0. -1.
         21   -1    0    0  501  502 -0.00000000000E+00 -0.00000000000E+00 -0.17366187977E+04  0.17366187977E+04  0.00000000000E+00 0. -1.
         25    1    1    2    0    0 -0.90579954700E+02 -0.37523793425E+02 -0.26324670292E+03  0.30746803064E+03  0.12500000000E+03 0.  0.
         25    1    1    2    0    0  0.90579954700E+02  0.37523793425E+02 -0.14469138746E+04  0.14556089872E+04  0.12500000000E+03 0.  0.
</event>
<event>
 4    0  0.2219362E-002  0.3188724E+03  0.7546771E-02  0.1076169E+00
         21   -1    0    0  502  501  0.00000000000E+00  0.00000000000E+00  0.48355142161E+03  0.48355142161E+03  0.00000000000E+00 0. -1.
         21   -1    0    0  501  502 -0.00000000000E+00 -0.00000000000E+00 -0.21027669172E+03  0.21027669172E+03  0.00000000000E+00 0. -1.
         25    1    1    2    0    0  0.11376020455E+03  0.11842941009E+03 -0.12781866922E+03  0.24275403501E+03  0.12500000000E+03 0.  0.
         25    1    1    2    0    0 -0.11376020455E+03 -0.11842941009E+03  0.40109339912E+03  0.45107407832E+03  0.12500000000E+03 0.  0.
</event>
<event>
 4    0  0.2219362E-002  0.2200376E+03  0.7546771E-02  0.1133855E+00
         21   -1    0    0  502  501  0.00000000000E+00  0.00000000000E+00  0.19070182862E+04  0.19070182862E+04  0.00000000000E+00 0. -1.
         21   -1    0    0  501  502 -0.00000000000E+00 -0.00000000000E+00 -0.25388615307E+02  0.25388615307E+02  0.00000000000E+00 0. -1.
         25    1    1    2    0    0  0.15837713422E+03  0.45775017080E+02  0.61183845876E+03  0.64587147983E+03  0.12500000000E+03 0.  0.
         25    1    1    2    0    0 -0.15837713422E+03 -0.45775017080E+02  0.12697912121E+04  0.12865354217E+04  0.12500000000E+03 0.  0.
</event>
<event>
 4    0  0.2219362E-002  0.2065256E+03  0.7546771E-02  0.1144347E+00
         21   -1    0    0  502  501  0.00000000000E+00  0.00000000000E+00  0.32094321672E+02  0.32094321672E+02  0.00000000000E+00 0. -1.
         21   -1    0    0  501  502 -0.00000000000E+00 -0.00000000000E+00 -0.13289839087E+04  0.13289839087E+04  0.00000000000E+00 0. -1.
         25    1    1    2    0    0 -0.51601915964E+02 -0.99746923195E+02 -0.25280865588E+03  0.30356123419E+03  0.12500000000E+03 0.  0.
         25    1    1    2    0    0  0.51601915964E+02  0.99746923195E+02 -0.10440809312E+04  0.10575169962E+04  0.12500000000E+03 0.  0.
</event>
<event>
 4    0  0.2219362E-002  0.1911319E+03  0.7546771E-02  0.1157444E+00
         21   -1    0    0  502  501  0.00000000000E+00  0.00000000000E+00  0.82401003841E+02  0.82401003841E+02  0.00000000000E+00 0. -1.
         21   -1    0    0  501  502 -0.00000000000E+00 -0.00000000000E+00 -0.44333710153E+03  0.44333710153E+03  0.00000000000E+00 0. -1.
         25    1    1    2    0    0  0.84109284521E+02 -0.99416772609E+02 -0.26688805842E+03  0.32219916534E+03  0.12500000000E+03 0.  0.
         25    1    1    2    0    0 -0.84109284521E+02  0.99416772609E+02 -0.94048039269E+02  0.20353894003E+03  0.12500000000E+03 0.  0.
</event>
<event>
 4    0  0.2219362E-002  0.1857848E+03  0.7546771E-02  0.1162319E+00
         21   -1    0    0  502  501  0.00000000000E+00  0.00000000000E+00  0.38074275642E+02  0.38074275642E+02  0.00000000000E+00 0.  1.
         21   -1    0    0  501  502 -0.00000000000E+00 -0.00000000000E+00 -0.90654322802E+03  0.90654322802E+03  0.00000000000E+00 0.  1.
         25    1    1    2    0    0  0.95223519675E+01  0.13711313344E+03 -0.43286497591E+03  0.47104965122E+03  0.12500000000E+03 0.  0.
         25    1    1    2    0    0 -0.95223519675E+01 -0.13711313344E+03 -0.43560397648E+03  0.47356785245E+03  0.12500000000E+03 0.  0.
</event>
<event>
 4    0  0.2219362E-002  0.2158008E+03  0.7546771E-02  0.1137053E+00
         21   -1    0    0  502  501  0.00000000000E+00  0.00000000000E+00  0.44563643908E+02  0.44563643908E+02  0.00000000000E+00 0. -1.
         21   -1    0    0  501  502 -0.00000000000E+00 -0.00000000000E+00 -0.10450222539E+04  0.10450222539E+04  0.00000000000E+00 0. -1.
         25    1    1    2    0    0 -0.71350824306E+02 -0.91409188072E+02 -0.83417648211E+03  0.85142350396E+03  0.12500000000E+03 0.  0.
         25    1    1    2    0    0  0.71350824306E+02  0.91409188072E+02 -0.16628212791E+03  0.23816239387E+03  0.12500000000E+03 0.  0.
</event>
<event>
 4    0  0.2219362E-002  0.3021463E+03  0.7546771E-02  0.1084173E+00
         21   -1    0    0  502  501  0.00000000000E+00  0.00000000000E+00  0.78487833636E+02  0.78487833636E+02  0.00000000000E+00 0. -1.
         21   -1    0    0  501  502 -0.00000000000E+00 -0.00000000000E+00 -0.11631405502E+04  0.11631405502E+04  0.00000000000E+00 0. -1.
         25    1    1    2    0    0  0.73698294361E+02 -0.25103289840E+03 -0.71689477028E+03  0.77331239893E+03  0.12500000000E+03 0.  0.
         25    1    1    2    0    0 -0.73698294361E+02  0.25103289840E+03 -0.36775794629E+03  0.46831598492E+03  0.12500000000E+03 0.  0.
</event>
<event>
 4    0  0.2219362E-002  0.2113390E+03  0.7546771E-02  0.1140510E+00
         21   -1    0    0  502  501  0.00000000000E+00  0.00000000000E+00  0.13176461112E+03  0.13176461112E+03  0.00000000000E+00 0. -1.
         21   -1    0    0  501  502 -0.00000000000E+00 -0.00000000000E+00 -0.33896947427E+03  0.33896947427E+03  0.00000000000E+00 0. -1.
         25    1    1    2    0    0 -0.14252999931E+03 -0.88197074153E+02 -0.13785022844E+03  0.25044202937E+03  0.12500000000E+03 0.  0.
         25    1    1    2    0    0  0.14252999931E+03  0.88197074153E+02 -0.69354634712E+02  0.22029205603E+03  0.12500000000E+03 0.  0.
</event>
<event>
 4    0  0.2219362E-002  0.1814753E+03  0.7546771E-02  0.1166383E+00
         21   -1    0    0  502  501  0.00000000000E+00  0.00000000000E+00  0.15458704591E+03  0.15458704591E+03  0.00000000000E+00 0.  1.
         21   -1    0    0  501  502 -0.00000000000E+00 -0.00000000000E+00 -0.21304033664E+03  0.21304033664E+03  0.00000000000E+00 0.  1.
         25    1    1    2    0    0 -0.13089476353E+03 -0.57014652893E+01 -0.17142683867E+02  0.18189232374E+03  0.12500000000E+03 0.  0.
         25    1    1    2    0    0  0.13089476353E+03  0.57014652893E+01 -0.41310606862E+02  0.18573505880E+03  0.12500000000E+03 0.  0.
</event>
<event>
 4    0  0.2219362E-002  0.1710451E+03  0.7546771E-02  0.1176762E+00
         21   -1    0    0  502  501  0.00000000000E+00  0.00000000000E+00  0.16816363266E+03  0.16816363266E+03  0.00000000000E+00 0. -1.
         21   -1    0    0  501  502 -0.00000000000E+00 -0.00000000000E+00 -0.17397584094E+03  0.17397584094E+03  0.00000000000E+00 0. -1.
         25    1    1    2    0    0 -0.27035129165E+02 -0.78171617497E+02  0.79505481204E+02  0.16966974254E+03  0.12500000000E+03 0.  0.
         25    1    1    2    0    0  0.27035129165E+02  0.78171617497E+02 -0.85317689486E+02  0.17246973106E+03  0.12500000000E+03 0.  0.
</event>
<event>
 4    0  0.2219362E-002  0.2664749E+03  0.7546771E-02  0.1103314E+00
         21   -1    0    0  502  501  0.00000000000E+00  0.00000000000E+00  0.25206136756E+03  0.25206136756E+03  0.00000000000E+00 0. -1.
         21   -1    0    0  501  502 -0.00000000000E+00 -0.00000000000E+00 -0.28171270092E+03  0.28171270092E+03  0.00000000000E+00 0. -1.
         25    1    1    2    0    0 -0.19619438291E+03 -0.11178115791E+03  0.51583931914E+02  0.26319795816E+03  0.12500000000E+03 0.  0.
         25    1    1    2    0    0  0.19619438291E+03  0.11178115791E+03 -0.81235265282E+02  0.27057611032E+03  0.12500000000E+03 0.  0.
</event>
<event>
 4    0  0.2219362E-002  0.1993831E+03  0.7546771E-02  0.1150261E+00
         21   -1    0    0  502  501  0.00000000000E+00  0.00000000000E+00  0.28655871133E+03  0.28655871133E+03  0.00000000000E+00 0.  1.
         21   -1    0    0  501  502 -0.00000000000E+00 -0.00000000000E+00 -0.13872764051E+03  0.13872764051E+03  0.00000000000E+00 0.  1.
         25    1    1    2    0    0  0.17926738669E+02  0.90198223789E+02 -0.59596000217E+02  0.16623408428E+03  0.12500000000E+03 0.  0.
         25    1    1    2    0    0 -0.17926738669E+02 -0.90198223789E+02  0.20742707103E+03  0.25905226756E+03  0.12500000000E+03 0.  0.
</event>
<event>
 4    0  0.2219362E-002  0.2330783E+03  0.7546771E-02  0.1124492E+00
         21   -1    0    0  502  501  0.00000000000E+00  0.00000000000E+00  0.34321872007E+03  0.34321872007E+03  0.00000000000E+00 0. -1.
         21   -1    0    0  501  502 -0.00000000000E+00 -0.00000000000E+00 -0.15828240889E+03  0.15828240889E+03  0.00000000000E+00 0. -1.
         25    1    1    2    0    0  0.13266407481E+03 -0.33419875157E+02 -0.59614466880E+02  0.19466774119E+03  0.12500000000E+03 0.  0.
         25    1    1    2    0    0 -0.13266407481E+03  0.33419875157E+02  0.24455077805E+03  0.30683338776E+03  0.12500000000E+03 0.  0.
</event>
<event>
 4    0  0.2219362E-002  0.1892222E+03  0.7546771E-02  0.1159165E+00
         21   -1    0    0  502  501  0.00000000000E+00  0.00000000000E+00  0.15237853898E+03  0.15237853898E+03  0.00000000000E+00 0.  1.
         21   -1    0    0  501  502 -0.00000000000E+00 -0.00000000000E+00 -0.23497421184E+03  0.23497421184E+03  0.00000000000E+00 0.  1.
         25    1    1    2    0    0  0.69848441059E+02  0.84372674024E+02 -0.13388418769E+03  0.21341866965E+03  0.12500000000E+03 0.  0.
         25    1    1    2    0    0 -0.69848441059E+02 -0.84372674024E+02  0.51288514835E+02  0.17393408118E+03  0.12500000000E+03 0.  0.
</event>
<event>
 4    0  0.2219362E-002  0.1825931E+03  0.7546771E-02  0.1165317E+00
         21   -1    0    0  502  501  0.00000000000E+00  0.00000000000E+00  0.93316366591E+02  0.93316366591E+02  0.00000000000E+00 0.  1.
         21   -1    0    0  501  502 -0.00000000000E+00 -0.00000000000E+00 -0.35728170602E+03  0.35728170602E+03  0.00000000000E+00 0.  1.
         25    1    1    2    0    0  0.34122490331E+02 -0.60655733081E+02  0.80064045976E+01  0.14329188678E+03  0.12500000000E+03 0.  0.
         25    1    1    2    0    0 -0.34122490331E+02  0.60655733081E+02 -0.27197174403E+03  0.30730618584E+03  0.12500000000E+03 0.  0.
</event>
<event>
 4    0  0.2219362E-002  0.2005277E+03  0.7546771E-02  0.1149295E+00
         21   -1    0    0  502  501  0.00000000000E+00  0.00000000000E+00  0.10475550510E+04  0.10475550510E+04  0.00000000000E+00 0. -1.
         21   -1    0    0  501  502 -0.00000000000E+00 -0.00000000000E+00 -0.38385902185E+02  0.38385902185E+02  0.00000000000E+00 0. -1.
         25    1    1    2    0    0  0.13209416350E+03 -0.71010911702E+01  0.27663712985E+03  0.33113803034E+03  0.12500000000E+03 0.  0.
         25    1    1    2    0    0 -0.13209416350E+03  0.71010911702E+01  0.73253201895E+03  0.75480292284E+03  0.12500000000E+03 0.  0.
</event>
<event>
 4    0  0.2219362E-002  0.1965930E+03  0.7546771E-02  0.1152646E+00
         21   -1    0    0  502  501  0.00000000000E+00  0.00000000000E+00  0.24677515278E+03  0.24677515278E+03  0.00000000000E+00 0. -1.
         21   -1    0    0  501  502 -0.00000000000E+00 -0.00000000000E+00 -0.15661542582E+03  0.15661542582E+03  0.00000000000E+00 0. -1.
         25    1    1    2    0    0  0.13775723296E+03 -0.63093844672E+02  0.36750839922E+02  0.19983371263E+03  0.12500000000E+03 0.  0.
         25    1    1    2    0    0 -0.13775723296E+03  0.63093844672E+02  0.53408887043E+02  0.20355686597E+03  0.12500000000E+03 0.  0.
</event>
<event>
 4    0  0.2219362E-002  0.2652181E+03  0.7546771E-02  0.1104048E+00
         21   -1    0    0  502  501  0.00000000000E+00  0.00000000000E+00  0.10835642342E+03  0.10835642342E+03  0.00000000000E+00 0.  1.
         21   -1    0    0  501  502 -0.00000000000E+00 -0.00000000000E+00 -0.64915968949E+03  0.64915968949E+03  0.00000000000E+00 0.  1.
         25    1    1    2    0    0  0.52957597981E+02  0.22645640527E+03 -0.30620714945E+03  0.40432020608E+03  0.12500000000E+03 0.  0.
         25    1    1    2    0    0 -0.52957597981E+02 -0.22645640527E+03 -0.23459611662E+03  0.35319590684E+03  0.12500000000E+03 0.  0.
</event>
<event>
 4    0  0.2219362E-002  0.2518490E+03  0.7546771E-02  0.1112142E+00
         21   -1    0    0  502  501  0.00000000000E+00  0.00000000000E+00  0.22370038104E+03  0.22370038104E+03  0.00000000000E+00 0.  1.
         21   -1    0    0  501  502 -0.00000000000E+00 -0.00000000000E+00 -0.28353958732E+03  0.28353958732E+03  0.00000000000E+00 0.  1.
         25    1    1    2    0    0 -0.19056133101E+03  0.23600470438E+02  0.75373333794E+02  0.24119855416E+03  0.12500000000E+03 0.  0.
         25    1    1    2    0    0  0.19056133101E+03 -0.23600470438E+02 -0.13521254008E+03  0.26604141421E+03  0.12500000000E+03 0.  0.
</event>
<event>
 4    0  0.2219362E-002  0.1989281E+03  0.7546771E-02  0.1150647E+00
         21   -1    0    0  502  501  0.00000000000E+00  0.00000000000E+00  0.14641226498E+03  0.14641226498E+03  0.00000000000E+00 0.  1.
         21   -1    0    0  501  502 -0.00000000000E+00 -0.00000000000E+00 -0.27028048446E+03  0.27028048446E+03  0.00000000000E+00 0.  1.
         25    1    1    2    0    0 -0.18193143370E+02 -0.43648355388E+02  0.92389322351E+02  0.16247140142E+03  0.12500000000E+03 0.  0.
         25    1    1    2    0    0  0.18193143370E+02  0.43648355388E+02 -0.21625754183E+03  0.25422134803E+03  0.12500000000E+03 0.  0.
</event>
<event>
 4    0  0.2219362E-002  0.4072578E+03  0.7546771E-02  0.1041295E+00
         21   -1    0    0  502  501  0.00000000000E+00  0.00000000000E+00  0.27764929891E+03  0.27764929891E+03  0.00000000000E+00 0.  1.
         21   -1    0    0  501  502 -0.00000000000E+00 -0.00000000000E+00 -0.59736849347E+03  0.59736849347E+03  0.00000000000E+00 0.  1.
         25    1    1    2    0    0 -0.26859337173E+03  0.13090730060E+03  0.10536968942E+03  0.34059784517E+03  0.12500000000E+03 0.  0.
         25    1    1    2    0    0  0.26859337173E+03 -0.13090730060E+03 -0.42508888399E+03  0.53441994721E+03  0.12500000000E+03 0.  0.
</event>
<event>
 4    0  0.2219362E-002  0.2320221E+03  0.7546771E-02  0.1125225E+00
         21   -1    0    0  502  501  0.00000000000E+00  0.00000000000E+00  0.33119255384E+02  0.33119255384E+02  0.00000000000E+00 0. -1.
         21   -1    0    0  501  502 -0.00000000000E+00 -0.00000000000E+00 -0.16254666665E+04  0.16254666665E+04  0.00000000000E+00 0. -1.
         25    1    1    2    0    0  0.26087368151E+02  0.11470375142E+03 -0.13541579928E+04  0.13649931761E+04  0.12500000000E+03 0.  0.
         25    1    1    2    0    0 -0.26087368151E+02 -0.11470375142E+03 -0.23818941827E+03  0.29359274572E+03  0.12500000000E+03 0.  0.
</event>
<event>
 4    0  0.2219362E-002  0.2721773E+03  0.7546771E-02  0.1100040E+00
         21   -1    0    0  502  501  0.00000000000E+00  0.00000000000E+00  0.15686104329E+03  0.15686104329E+03  0.00000000000E+00 0.  1.
         21   -1    0    0  501  502 -0.00000000000E+00 -0.00000000000E+00 -0.47226824579E+03  0.47226824579E+03  0.00000000000E+00 0.  1.
         25    1    1    2    0    0 -0.12225904141E+03 -0.10738588763E+02 -0.39845416911E+03  0.43526235235E+03  0.12500000000E+03 0.  0.
         25    1    1    2    0    0  0.12225904141E+03  0.10738588763E+02  0.83046966612E+02  0.19386693673E+03  0.12500000000E+03 0.  0.
</event>
<event>
 4    0  0.2219362E-002  0.2431577E+03  0.7546771E-02  0.1117707E+00
         21   -1    0    0  502  501  0.00000000000E+00  0.00000000000E+00  0.10041945181E+03  0.10041945181E+03  0.00000000000E+00 0.  1.
         21   -1    0    0  501  502 -0.00000000000E+00 -0.00000000000E+00 -0.58878679982E+03  0.58878679982E+03  0.00000000000E+00 0.  1.
         25    1    1    2    0    0  0.96197543522E+02 -0.18155158515E+03 -0.19336755960E+03  0.30859513696E+03  0.12500000000E+03 0.  0.
         25    1    1    2    0    0 -0.96197543522E+02  0.18155158515E+03 -0.29499978841E+03  0.38061111467E+03  0.12500000000E+03 0.  0.
</event>
<event>
 4    0  0.2219362E-002  0.1885237E+03  0.7546771E-02  0.1159800E+00
         21   -1    0    0  502  501  0.00000000000E+00  0.00000000000E+00  0.82900926526E+02  0.82900926526E+02  0.00000000000E+00 0. -1.
         21   -1    0    0  501  502 -0.00000000000E+00 -0.00000000000E+00 -0.42871888014E+03  0.42871888014E+03  0.00000000000E+00 0. -1.
         25    1    1    2    0    0  0.21365412085E+02  0.96626162996E+02 -0.30943267311E+03  0.34809003921E+03  0.12500000000E+03 0.  0.
         25    1    1    2    0    0 -0.21365412085E+02 -0.96626162996E+02 -0.36385280513E+02  0.16352976746E+03  0.12500000000E+03 0.  0.
</event>
<event>
 4    0  0.2219362E-002  0.2208866E+03  0.7546771E-02  0.1133224E+00
         21   -1    0    0  502  501  0.00000000000E+00  0.00000000000E+00  0.50077514822E+03  0.50077514822E+03  0.00000000000E+00 0.  1.
         21   -1    0    0  501  502 -0.00000000000E+00 -0.00000000000E+00 -0.97430721176E+02  0.97430721176E+02  0.00000000000E+00 0.  1.
         25    1    1    2    0    0 -0.70518261230E+02  0.16786336523E+03  0.19643667265E+03  0.29557283521E+03  0.12500000000E+03 0.  0.
         25    1    1    2    0    0  0.70518261230E+02 -0.16786336523E+03  0.20690775439E+03  0.30263303418E+03  0.12500000000E+03 0.  0.
</event>
<event>
 4    0  0.2219362E-002  0.2299279E+03  0.7546771E-02  0.1126690E+00
         21   -1    0    0  502  501  0.00000000000E+00  0.00000000000E+00  0.46524880803E+02  0.46524880803E+02  0.00000000000E+00 0. -1.
         21   -1    0    0  501  502 -0.00000000000E+00 -0.00000000000E+00 -0.11363137209E+04  0.11363137209E+04  0.00000000000E+00 0. -1.
         25    1    1    2    0    0  0.90061609598E+02  0.12478022995E+03 -0.84442706740E+03  0.86738876604E+03  0.12500000000E+03 0.  0.
         25    1    1    2    0    0 -0.90061609598E+02 -0.12478022995E+03 -0.24536177266E+03  0.31544983562E+03  0.12500000000E+03 0.  0.
</event>
<event>
 4    0  0.2219362E-002  0.2169037E+03  0.7546771E-02  0.1136213E+00
         21   -1    0    0  502  501  0.00000000000E+00  0.00000000000E+00  0.20562584855E+03  0.20562584855E+03  0.00000000000E+00 0. -1.
         21   -1    0    0  501  502 -0.00000000000E+00 -0.00000000000E+00 -0.22880015782E+03  0.22880015782E+03  0.00000000000E+00 0. -1.
         25    1    1    2    0    0  0.15715748731E+03 -0.77577113327E+02 -0.38187074305E+02  0.21863196695E+03  0.12500000000E+03 0.  0.
         25    1    1    2    0    0 -0.15715748731E+03  0.77577113327E+02  0.15012765038E+02  0.21579403941E+03  0.12500000000E+03 0.  0.
</event>
<event>
 4    0  0.2219362E-002  0.2271569E+03  0.7546771E-02  0.1128657E+00
         21   -1    0    0  502  501  0.00000000000E+00  0.00000000000E+00  0.87620381103E+02  0.87620381103E+02  0.00000000000E+00 0. -1.
         21   -1    0    0  501  502 -0.00000000000E+00 -0.00000000000E+00 -0.58890726523E+03  0.58890726523E+03  0.00000000000E+00 0. -1.
         25    1    1    2    0    0 -0.50915981513E+02 -0.53014898576E+02  0.97279812338E+01  0.14533633497E+03  0.12500000000E+03 0.  0.
         25    1    1    2    0    0  0.50915981513E+02  0.53014898576E+02 -0.51101486536E+03  0.53119131136E+03  0.12500000000E+03 0.  0.
</event>
<event>
 4    0  0.2219362E-002  0.2915010E+03  0.7546771E-02  0.1089568E+00
         21   -1    0    0  502  501  0.00000000000E+00  0.00000000000E+00  0.74095795714E+03  0.74095795714E+03  0.00000000000E+00 0.  1.
         21   -1    0    0  501  502 -0.00000000000E+00 -0.00000000000E+00 -0.11467971456E+03  0.11467971456E+03  0.00000000000E+00 0.  1.
         25    1    1    2    0    0  0.45319994820E+02 -0.25719562919E+03  0.26349133347E+03  0.39147947126E+03  0.12500000000E+03 0.  0.
         25    1    1    2    0    0 -0.45319994820E+02  0.25719562919E+03  0.36278690912E+03  0.46415820044E+03  0.12500000000E+03 0.  0.
</event>
<event>
 4    0  0.2219362E-002  0.1999587E+03  0.7546771E-02  0.1149774E+00
         21   -1    0    0  502  501  0.00000000000E+00  0.00000000000E+00  0.26751085586E+03  0.26751085586E+03  0.00000000000E+00 0. -1.
         21   -1    0    0  501  502 -0.00000000000E+00 -0.00000000000E+00 -0.14946490995E+03  0.14946490995E+03  0.00000000000E+00 0. -1.
         25    1    1    2    0    0 -0.48591264076E+01 -0.82722221894E+02 -0.78875384944E+02  0.16944882252E+03  0.12500000000E+03 0.  0.
         25    1    1    2    0    0  0.48591264076E+01  0.82722221894E+02  0.19692133086E+03  0.24752694328E+03  0.12500000000E+03 0.  0.
</event>
<event>
 4    0  0.2219362E-002  0.2896728E+03  0.7546771E-02  0.1090520E+00
         21   -1    0    0  502  501  0.00000000000E+00  0.00000000000E+00  0.22026467234E+03  0.22026467234E+03  0.00000000000E+00 0.  1.
         21   -1    0    0  501  502 -0.00000000000E+00 -0.00000000000E+00 -0.38095217673E+03  0.38095217673E+03  0.00000000000E+00 0.  1.
         25    1    1    2    0    0  0.14346895012E+03  0.14952161748E+03 -0.24555583503E+03  0.34476473407E+03  0.12500000000E+03 0.  0.
         25    1    1    2    0    0 -0.14346895012E+03 -0.14952161748E+03  0.84868330636E+02  0.25645211500E+03  0.12500000000E+03 0.  0.
</event>
<event>
 4    0  0.2219362E-002  0.2811992E+03  0.7546771E-02  0.1095036E+00
         21   -1    0    0  502  501  0.00000000000E+00  0.00000000000E+00  0.84314235007E+03  0.84314235007E+03  0.00000000000E+00 0.  1.
         21   -1    0    0  501  502 -0.00000000000E+00 -0.00000000000E+00 -0.93783660872E+02  0.93783660872E+02  0.00000000000E+00 0.  1.
         25    1    1    2    0    0 -0.11737577135E+03 -0.21700176105E+03  0.29004102012E+03  0.40076879787E+03  0.12500000000E+03 0.  0.
         25    1    1    2    0    0  0.11737577135E+03  0.21700176105E+03  0.45931766908E+03  0.53615721307E+03  0.12500000000E+03 0.  0.
</event>
<event>
 4    0  0.2219362E-002  0.2216680E+03  0.7546771E-02  0.1132646E+00
         21   -1    0    0  502  501  0.00000000000E+00  0.00000000000E+00  0.31353325496E+03  0.31353325496E+03  0.00000000000E+00 0.  1.
         21   -1    0    0  501  502 -0.00000000000E+00 -0.00000000000E+00 -0.15671922602E+03  0.15671922602E+03  0.00000000000E+00 0.  1.
         25    1    1    2    0    0  0.43999985328E+00 -0.12539468098E+03  0.21987484064E+03  0.28230119583E+03  0.12500000000E+03 0.  0.
         25    1    1    2    0    0 -0.43999985328E+00  0.12539468098E+03 -0.63060811695E+02  0.18795128515E+03  0.12500000000E+03 0.  0.
</event>
<event>
 4    0  0.2219362E-002  0.1474450E+03  0.7546771E-02  0.1203648E+00
         21   -1    0    0  502  501  0.00000000000E+00  0.00000000000E+00  0.35167284333E+03  0.35167284333E+03  0.00000000000E+00 0.  1.
         21   -1    0    0  501  502 -0.00000000000E+00 -0.00000000000E+00 -0.61818875076E+02  0.61818875076E+02  0.00000000000E+00 0.  1.
         25    1    1    2    0    0 -0.59703492135E+02  0.29767058367E+02  0.20213280907E+03  0.24684662695E+03  0.12500000000E+03 0.  0.
         25    1    1    2    0    0  0.59703492135E+02 -0.29767058367E+02  0.87721159192E+02  0.16664509146E+03  0.12500000000E+03 0.  0.
</event>
<event>
 4    0  0.2219362E-002  0.1878362E+03  0.7546771E-02  0.1160428E+00
         21   -1    0    0  502  501  0.00000000000E+00  0.00000000000E+00  0.28983162385E+03  0.28983162385E+03  0.00000000000E+00 0. -1.
         21   -1    0    0  501  502 -0.00000000000E+00 -0.00000000000E+00 -0.12173429332E+03  0.12173429332E+03  0.00000000000E+00 0. -1.
         25    1    1    2    0    0 -0.89519607852E+02  0.92902037842E+02  0.14418297707E+03  0.23034382931E+03  0.12500000000E+03 0.  0.
         25    1    1    2    0    0  0.89519607852E+02 -0.92902037842E+02  0.23914353464E+02  0.18122208786E+03  0.12500000000E+03 0.  0.
</event>
<event>
 4    0  0.2219362E-002  0.2081942E+03  0.7546771E-02  0.1143004E+00
         21   -1    0    0  502  501  0.00000000000E+00  0.00000000000E+00  0.39805594617E+03  0.39805594617E+03  0.00000000000E+00 0.  1.
         21   -1    0    0  501  502 -0.00000000000E+00 -0.00000000000E+00 -0.10889130053E+03  0.10889130053E+03  0.00000000000E+00 0.  1.
         25    1    1    2    0    0 -0.82721213834E+01 -0.79288659324E+02 -0.33373673168E+02  0.15196684359E+03  0.12500000000E+03 0.  0.
         25    1    1    2    0    0  0.82721213834E+01  0.79288659324E+02  0.32253831881E+03  0.35498040311E+03  0.12500000000E+03 0.  0.
</event>
<event>
 4    0  0.2219362E-002  0.1803890E+03  0.7546771E-02  0.1167427E+00
         21   -1    0    0  502  501  0.00000000000E+00  0.00000000000E+00  0.25388175753E+03  0.25388175753E+03  0.00000000000E+00 0.  1.
         21   -1    0    0  501  502 -0.00000000000E+00 -0.00000000000E+00 -0.12817058865E+03  0.12817058865E+03  0.00000000000E+00 0.  1.
         25    1    1    2    0    0 -0.86373237581E+02 -0.73042489423E+02  0.13082479029E+03  0.21339087887E+03  0.12500000000E+03 0.  0.
         25    1    1    2    0    0  0.86373237581E+02  0.73042489423E+02 -0.51136214166E+01  0.16866146731E+03  0.12500000000E+03 0.  0.
</event>
<event>
 4    0  0.2219362E-002  0.2672571E+03  0.7546771E-02  0.1102860E+00
         21   -1    0    0  502  501  0.00000000000E+00  0.00000000000E+00  0.13932671955E+03  0.13932671955E+03  0.00000000000E+00 0.  1.
         21   -1    0    0  501  502 -0.00000000000E+00 -0.00000000000E+00 -0.51265388352E+03  0.51265388352E+03  0.00000000000E+00 0.  1.
         25    1    1    2    0    0  0.56206945497E+02 -0.21641634294E+03 -0.27960701554E+03  0.37921014933E+03  0.12500000000E+03 0.  0.
         25    1    1    2    0    0 -0.56206945497E+02  0.21641634294E+03 -0.93720148429E+02  0.27277045374E+03  0.12500000000E+03 0.  0.
</event>
<event>
 4    0  0.2219362E-002  0.2275393E+03  0.7546771E-02  0.1128384E+00
         21   -1    0    0  502  501  0.00000000000E+00  0.00000000000E+00  0.77288164008E+02  0.77288164008E+02  0.00000000000E+00 0.  1.
         21   -1    0    0  501  502 -0.00000000000E+00 -0.00000000000E+00 -0.66988444105E+03  0.66988444105E+03  0.00000000000E+00 0.  1.
         25    1    1    2    0    0 -0.17029310031E+03 -0.76022779501E+02 -0.23552879168E+03  0.32538902060E+03  0.12500000000E+03 0.  0.
         25    1    1    2    0    0  0.17029310031E+03  0.76022779501E+02 -0.35706748536E+03  0.42178358445E+03  0.12500000000E+03 0.  0.
</event>
<event>
 4    0  0.2219362E-002  0.4377298E+03  0.7546771E-02  0.1031446E+00
         21   -1    0    0  502  501  0.00000000000E+00  0.00000000000E+00  0.39833067149E+03  0.39833067149E+03  0.00000000000E+00 0.  1.
         21   -1    0    0  501  502 -0.00000000000E+00 -0.00000000000E+00 -0.48102601496E+03  0.48102601496E+03  0.00000000000E+00 0. -1.
         25    1    1    2    0    0 -0.31893330425E+02  0.40833582123E+03 -0.13245472335E+03  0.44824611673E+03  0.12500000000E+03 0.  0.
         25    1    1    2    0    0  0.31893330425E+02 -0.40833582123E+03  0.49759379878E+02  0.43111056971E+03  0.12500000000E+03 0.  0.
</event>
<event>
 4    0  0.2219362E-002  0.1778344E+03  0.7546771E-02  0.1169916E+00
         21   -1    0    0  502  501  0.00000000000E+00  0.00000000000E+00  0.19553382113E+02  0.19553382113E+02  0.00000000000E+00 0. -1.
         21   -1    0    0  501  502 -0.00000000000E+00 -0.00000000000E+00 -0.16173710758E+04  0.16173710758E+04  0.00000000000E+00 0. -1.
         25    1    1    2    0    0 -0.10890892568E+03 -0.46186069179E+02 -0.10050302862E+04  0.10196593466E+04  0.12500000000E+03 0.  0.
         25    1    1    2    0    0  0.10890892568E+03  0.46186069179E+02 -0.59278740754E+03  0.61726511129E+03  0.12500000000E+03 0.  0.
</event>
<event>
 4    0  0.2219362E-002  0.2111954E+03  0.7546771E-02  0.1140623E+00
         21   -1    0    0  502  501  0.00000000000E+00  0.00000000000E+00  0.42953970716E+03  0.42953970716E+03  0.00000000000E+00 0.  1.
         21   -1    0    0  501  502 -0.00000000000E+00 -0.00000000000E+00 -0.10384023463E+03  0.10384023463E+03  0.00000000000E+00 0.  1.
         25    1    1    2    0    0  0.24689090149E+02 -0.70709290263E+02  0.35588810758E+03  0.38456559911E+03  0.12500000000E+03 0.  0.
         25    1    1    2    0    0 -0.24689090149E+02  0.70709290263E+02 -0.30188635050E+02  0.14881434268E+03  0.12500000000E+03 0.  0.
</event>
<event>
 4    0  0.2219362E-002  0.1867085E+03  0.7546771E-02  0.1161464E+00
         21   -1    0    0  502  501  0.00000000000E+00  0.00000000000E+00  0.38450170026E+02  0.38450170026E+02  0.00000000000E+00 0.  1.
         21   -1    0    0  501  502 -0.00000000000E+00 -0.00000000000E+00 -0.90662919327E+03  0.90662919327E+03  0.00000000000E+00 0.  1.
         25    1    1    2    0    0 -0.13684136439E+03 -0.22558001159E+02 -0.43208993236E+03  0.47070280653E+03  0.12500000000E+03 0.  0.
         25    1    1    2    0    0  0.13684136439E+03  0.22558001159E+02 -0.43608909088E+03  0.47437655677E+03  0.12500000000E+03 0.  0.
</event>
<event>
 4    0  0.2219362E-002  0.1830518E+03  0.7546771E-02  0.1164882E+00
         21   -1    0    0  502  501  0.00000000000E+00  0.00000000000E+00  0.37869470341E+02  0.37869470341E+02  0.00000000000E+00 0. -1.
         21   -1    0    0  501  502 -0.00000000000E+00 -0.00000000000E+00 -0.88482809407E+03  0.88482809407E+03  0.00000000000E+00 0. -1.
         25    1    1    2    0    0  0.31097313228E+02  0.12439556631E+03 -0.51917413885E+03  0.54918857076E+03  0.12500000000E+03 0.  0.
         25    1    1    2    0    0 -0.31097313228E+02 -0.12439556631E+03 -0.32778448488E+03  0.37350899365E+03  0.12500000000E+03 0.  0.
</event>
<event>
 4    0  0.2219362E-002  0.2265170E+03  0.7546771E-02  0.1129116E+00
         21   -1    0    0  502  501  0.00000000000E+00  0.00000000000E+00  0.39609241759E+03  0.39609241759E+03  0.00000000000E+00 0. -1.
         21   -1    0    0  501  502 -0.00000000000E+00 -0.00000000000E+00 -0.12954029644E+03  0.12954029644E+03  0.00000000000E+00 0. -1.
         25    1    1    2    0    0 -0.11239720870E+03 -0.11885050940E+03  0.23656334075E+02  0.20722740709E+03  0.12500000000E+03 0.  0.
         25    1    1    2    0    0  0.11239720870E+03  0.11885050940E+03  0.24289578708E+03  0.31840530694E+03  0.12500000000E+03 0.  0.
</event>
<event>
 4    0  0.2219362E-002  0.2078529E+03  0.7546771E-02  0.1143278E+00
         21   -1    0    0  502  501  0.00000000000E+00  0.00000000000E+00  0.10412674955E+02  0.10412674955E+02  0.00000000000E+00 0.  1.
         21   -1    0    0  501  502 -0.00000000000E+00 -0.00000000000E+00 -0.41490620697E+04  0.41490620697E+04  0.00000000000E+00 0.  1.
         25    1    1    2    0    0 -0.16272026293E+03 -0.29402522330E+02 -0.22228552197E+04  0.22324992094E+04  0.12500000000E+03 0.  0.
         25    1    1    2    0    0  0.16272026293E+03  0.29402522330E+02 -0.19157941751E+04  0.19269755353E+04  0.12500000000E+03 0.  0.
</event>
<event>
 4    0  0.2219362E-002  0.1808931E+03  0.7546771E-02  0.1166941E+00
         21   -1    0    0  502  501  0.00000000000E+00  0.00000000000E+00  0.68920293279E+03  0.68920293279E+03  0.00000000000E+00 0.  1.
         21   -1    0    0  501  502 -0.00000000000E+00 -0.00000000000E+00 -0.47478514020E+02  0.47478514020E+02  0.00000000000E+00 0.  1.
         25    1    1    2    0    0  0.84055978498E+02 -0.84694562766E+02  0.21199024492E+03  0.27350217627E+03  0.12500000000E+03 0.  0.
         25    1    1    2    0    0 -0.84055978498E+02  0.84694562766E+02  0.42973417385E+03  0.46317927054E+03  0.12500000000E+03 0.  0.
</event>
<event>
 4    0  0.2219362E-002  0.1495125E+03  0.7546771E-02  0.1201073E+00
         21   -1    0    0  502  501  0.00000000000E+00  0.00000000000E+00  0.14319204919E+04  0.14319204919E+04  0.00000000000E+00 0. -1.
         21   -1    0    0  501  502 -0.00000000000E+00 -0.00000000000E+00 -0.15611196442E+02  0.15611196442E+02  0.00000000000E+00 0. -1.
         25    1    1    2    0    0  0.16950892482E+01  0.79411732005E+02  0.80734996930E+03  0.82082158198E+03  0.12500000000E+03 0.  0.
         25    1    1    2    0    0 -0.16950892482E+01 -0.79411732005E+02  0.60895932613E+03  0.62671010634E+03  0.12500000000E+03 0.  0.
</event>
<event>
 4    0  0.2219362E-002  0.2748519E+03  0.7546771E-02  0.1098534E+00
         21   -1    0    0  502  501  0.00000000000E+00  0.00000000000E+00  0.38666566174E+03  0.38666566174E+03  0.00000000000E+00 0.  1.
         21   -1    0    0  501  502 -0.00000000000E+00 -0.00000000000E+00 -0.19537180438E+03  0.19537180438E+03  0.00000000000E+00 0.  1.
         25    1    1    2    0    0 -0.98014267674E+02  0.13333917482E+03 -0.95329817589E+02  0.22825184847E+03  0.12500000000E+03 0.  0.
         25    1    1    2    0    0  0.98014267674E+02 -0.13333917482E+03  0.28662367495E+03  0.35378561764E+03  0.12500000000E+03 0.  0.
</event>
<event>
 4    0  0.2219362E-002  0.1969109E+03  0.7546771E-02  0.1152372E+00
         21   -1    0    0  502  501  0.00000000000E+00  0.00000000000E+00  0.54368366365E+03  0.54368366365E+03  0.00000000000E+00 0. -1.
         21   -1    0    0  501  502 -0.00000000000E+00 -0.00000000000E+00 -0.71316997352E+02  0.71316997352E+02  0.00000000000E+00 0. -1.
         25    1    1    2    0    0 -0.46812297143E+02 -0.87973773400E+02  0.56643586491E+02  0.16960032978E+03  0.12500000000E+03 0.  0.
         25    1    1    2    0    0  0.46812297143E+02  0.87973773400E+02  0.41572307980E+03  0.44540033122E+03  0.12500000000E+03 0.  0.
</event>
<event>
 4    0  0.2219362E-002  0.2087907E+03  0.7546771E-02  0.1142527E+00
         21   -1    0    0  502  501  0.00000000000E+00  0.00000000000E+00  0.74622913643E+02  0.74622913643E+02  0.00000000000E+00 0. -1.
         21   -1    0    0  501  502 -0.00000000000E+00 -0.00000000000E+00 -0.58418470290E+03  0.58418470290E+03  0.00000000000E+00 0. -1.
         25    1    1    2    0    0  0.12312586612E+03  0.44958721334E+02 -0.41864120942E+03  0.45614331932E+03  0.12500000000E+03 0.  0.
         25    1    1    2    0    0 -0.12312586612E+03 -0.44958721334E+02 -0.90920579839E+02  0.20266429723E+03  0.12500000000E+03 0.  0.
</event>
<event>
 4    0  0.2219362E-002  0.2219374E+03  0.7546771E-02  0.1132447E+00
         21   -1    0    0  502  501  0.00000000000E+00  0.00000000000E+00  0.14863519700E+04  0.14863519700E+04  0.00000000000E+00 0. -1.
         21   -1    0    0  501  502 -0.00000000000E+00 -0.00000000000E+00 -0.33139001387E+02  0.33139001387E+02  0.00000000000E+00 0. -1.
         25    1    1    2    0    0 -0.23707767068E+02  0.17445103959E+03  0.55085054586E+03  0.59165576758E+03  0.12500000000E+03 0.  0.
         25    1    1    2    0    0  0.23707767068E+02 -0.17445103959E+03  0.90236242273E+03  0.92783520379E+03  0.12500000000E+03 0.  0.
</event>
<event>
 4    0  0.2219362E-002  0.1906939E+03  0.7546771E-02  0.1157837E+00
         21   -1    0    0  502  501  0.00000000000E+00  0.00000000000E+00  0.99091316232E+02  0.99091316232E+02  0.00000000000E+00 0.  1.
         21   -1    0    0  501  502 -0.00000000000E+00 -0.00000000000E+00 -0.36697615801E+03  0.36697615801E+03  0.00000000000E+00 0.  1.
         25    1    1    2    0    0  0.31802419629E+01 -0.14390049250E+03 -0.13963304899E+03  0.23630457899E+03  0.12500000000E+03 0.  0.
         25    1    1    2    0    0 -0.31802419629E+01  0.14390049250E+03 -0.12825179279E+03  0.22976289525E+03  0.12500000000E+03 0.  0.
</event>
<event>
 4    0  0.2219362E-002  0.1895881E+03  0.7546771E-02  0.1158833E+00
         21   -1    0    0  502  501  0.00000000000E+00  0.00000000000E+00  0.10556752395E+03  0.10556752395E+03  0.00000000000E+00 0.  1.
         21   -1    0    0  501  502 -0.00000000000E+00 -0.00000000000E+00 -0.34048024018E+03  0.34048024018E+03  0.00000000000E+00 0.  1.
         25    1    1    2    0    0  0.95439893570E+02 -0.23850975419E+02 -0.23880411314E+03  0.28693212919E+03  0.12500000000E+03 0.  0.
         25    1    1    2    0    0 -0.95439893570E+02  0.23850975419E+02  0.38913969062E+01  0.15911563494E+03  0.12500000000E+03 0.  0.
</event>
<event>
 4    0  0.2219362E-002  0.2180114E+03  0.7546771E-02  0.1135374E+00
         21   -1    0    0  502  501  0.00000000000E+00  0.00000000000E+00  0.23076228000E+03  0.23076228000E+03  0.00000000000E+00 0.  1.
         21   -1    0    0  501  502 -0.00000000000E+00 -0.00000000000E+00 -0.20596517041E+03  0.20596517041E+03  0.00000000000E+00 0.  1.
         25    1    1    2    0    0 -0.12727513323E+03  0.74300012919E+02  0.11348011083E+03  0.22410307230E+03  0.12500000000E+03 0.  0.
         25    1    1    2    0    0  0.12727513323E+03 -0.74300012919E+02 -0.88683001241E+02  0.21262437811E+03  0.12500000000E+03 0.  0.
</event>
<event>
 4    0  0.2219362E-002  0.2694789E+03  0.7546771E-02  0.1101578E+00
         21   -1    0    0  502  501  0.00000000000E+00  0.00000000000E+00  0.19403851458E+03  0.19403851458E+03  0.00000000000E+00 0.  1.
         21   -1    0    0  501  502 -0.00000000000E+00 -0.00000000000E+00 -0.37424987365E+03  0.37424987365E+03  0.00000000000E+00 0.  1.
         25    1    1    2    0    0 -0.18576286198E+03 -0.12990948975E+03 -0.11132632935E+02  0.25910085282E+03  0.12500000000E+03 0.  0.
         25    1    1    2    0    0  0.18576286198E+03  0.12990948975E+03 -0.16907872614E+03  0.30918753541E+03  0.12500000000E+03 0.  0.
</event>
<event>
 4    0  0.2219362E-002  0.2432451E+03  0.7546771E-02  0.1117650E+00
         21   -1    0    0  502  501  0.00000000000E+00  0.00000000000E+00  0.42124586353E+03  0.42124586353E+03  0.00000000000E+00 0.  1.
         21   -1    0    0  501  502 -0.00000000000E+00 -0.00000000000E+00 -0.14045996664E+03  0.14045996664E+03  0.00000000000E+00 0.  1.
         25    1    1    2    0    0  0.15341181182E+03 -0.56748783063E+02  0.28999197558E+03  0.35563457971E+03  0.12500000000E+03 0.  0.
         25    1    1    2    0    0 -0.15341181182E+03  0.56748783063E+02 -0.92060786821E+01  0.20607125047E+03  0.12500000000E+03 0.  0.
</event>
<event>
 4    0  0.2219362E-002  0.2370653E+03  0.7546771E-02  0.1121763E+00
         21   -1    0    0  502  501  0.00000000000E+00  0.00000000000E+00  0.63059968456E+03  0.63059968456E+03  0.00000000000E+00 0.  1.
         21   -1    0    0  501  502 -0.00000000000E+00 -0.00000000000E+00 -0.89121446386E+02  0.89121446386E+02  0.00000000000E+00 0.  1.
         25    1    1    2    0    0 -0.95596962190E+02 -0.89445131807E+02  0.38355423436E+02  0.18502796894E+03  0.12500000000E+03 0.  0.
         25    1    1    2    0    0  0.95596962190E+02  0.89445131807E+02  0.50312281474E+03  0.53469316201E+03  0.12500000000E+03 0.  0.
</event>
<event>
 4    0  0.2219362E-002  0.2309906E+03  0.7546771E-02  0.1125944E+00
         21   -1    0    0  502  501  0.00000000000E+00  0.00000000000E+00  0.27689341933E+03  0.27689341933E+03  0.00000000000E+00 0.  1.
         21   -1    0    0  501  502 -0.00000000000E+00 -0.00000000000E+00 -0.19269743696E+03  0.19269743696E+03  0.00000000000E+00 0.  1.
         25    1    1    2    0    0  0.88411734609E+02  0.11666006349E+03  0.17189410940E+03  0.25806741382E+03  0.12500000000E+03 0.  0.
         25    1    1    2    0    0 -0.88411734609E+02 -0.11666006349E+03 -0.87698127034E+02  0.21152344247E+03  0.12500000000E+03 0.  0.
</event>
<event>
 4    0  0.2219362E-002  0.2309401E+03  0.7546771E-02  0.1125980E+00
         21   -1    0    0  502  501  0.00000000000E+00  0.00000000000E+00  0.12439228276E+03  0.12439228276E+03  0.00000000000E+00 0.  1.
         21   -1    0    0  501  502 -0.00000000000E+00 -0.00000000000E+00 -0.42875095890E+03  0.42875095890E+03  0.00000000000E+00 0.  1.
         25    1    1    2    0    0 -0.13456634901E+03  0.13916411587E+03 -0.13387707208E+03  0.26650107666E+03  0.12500000000E+03 0.  0.
         25    1    1    2    0    0  0.13456634901E+03 -0.13916411587E+03 -0.17048160407E+03  0.28664216500E+03  0.12500000000E+03 0.  0.
</event>
<event>
 4    0  0.2219362E-002  0.1935263E+03  0.7546771E-02  0.1155319E+00
         21   -1    0    0  502  501  0.00000000000E+00  0.00000000000E+00  0.11980196080E+04  0.11980196080E+04  0.00000000000E+00 0. -1.
         21   -1    0    0  501  502 -0.00000000000E+00 -0.00000000000E+00 -0.31261955341E+02  0.31261955341E+02  0.00000000000E+00 0. -1.
         25    1    1    2    0    0  0.78798195080E+02  0.12299903186E+03  0.51310951198E+03  0.54794551615E+03  0.12500000000E+03 0.  0.
         25    1    1    2    0    0 -0.78798195080E+02 -0.12299903186E+03  0.65364814066E+03  0.68133604717E+03  0.12500000000E+03 0.  0.
</event>
<event>
 4    0  0.2219362E-002  0.1977207E+03  0.7546771E-02  0.1151676E+00
         21   -1    0    0  502  501  0.00000000000E+00  0.00000000000E+00  0.12819677199E+03  0.12819677199E+03  0.00000000000E+00 0.  1.
         21   -1    0    0  501  502 -0.00000000000E+00 -0.00000000000E+00 -0.30494894448E+03  0.30494894448E+03  0.00000000000E+00 0.  1.
         25    1    1    2    0    0  0.14443886562E+03  0.50146663324E+02 -0.77915858349E+02  0.21230439168E+03  0.12500000000E+03 0.  0.
         25    1    1    2    0    0 -0.14443886562E+03 -0.50146663324E+02 -0.98836314136E+02  0.22084132479E+03  0.12500000000E+03 0.  0.
</event>
<event>
 4    0  0.2219362E-002  0.2412694E+03  0.7546771E-02  0.1118950E+00
         21   -1    0    0  502  501  0.00000000000E+00  0.00000000000E+00  0.30099644810E+02  0.30099644810E+02  0.00000000000E+00 0. -1.
         21   -1    0    0  501  502 -0.00000000000E+00 -0.00000000000E+00 -0.19339397554E+04  0.19339397554E+04  0.00000000000E+00 0. -1.
         25    1    1    2    0    0  0.60149134702E+02 -0.63679183214E+01 -0.14886389928E+03  0.20357782123E+03  0.12500000000E+03 0.  0.
         25    1    1    2    0    0 -0.60149134702E+02  0.63679183214E+01 -0.17549762114E+04  0.17604615790E+04  0.12500000000E+03 0.  0.
</event>
<event>
 4    0  0.2219362E-002  0.2014826E+03  0.7546771E-02  0.1148494E+00
         21   -1    0    0  502  501  0.00000000000E+00  0.00000000000E+00  0.48409123940E+03  0.48409123940E+03  0.00000000000E+00 0.  1.
         21   -1    0    0  501  502 -0.00000000000E+00 -0.00000000000E+00 -0.83858630696E+02  0.83858630696E+02  0.00000000000E+00 0.  1.
         25    1    1    2    0    0 -0.78469138343E+02  0.13714652770E+03  0.19742258963E+03  0.28207668218E+03  0.12500000000E+03 0.  0.
         25    1    1    2    0    0  0.78469138343E+02 -0.13714652770E+03  0.20281001908E+03  0.28587318792E+03  0.12500000000E+03 0.  0.
</event>
<event>
 4    0  0.2219362E-002  0.2117559E+03  0.7546771E-02  0.1140183E+00
         21   -1    0    0  502  501  0.00000000000E+00  0.00000000000E+00  0.23820684138E+03  0.23820684138E+03  0.00000000000E+00 0.  1.
         21   -1    0    0  501  502 -0.00000000000E+00 -0.00000000000E+00 -0.18824212528E+03  0.18824212528E+03  0.00000000000E+00 0.  1.
         25    1    1    2    0    0 -0.56680436212E+02 -0.85006325532E+02  0.16296120418E+03  0.22939071755E+03  0.12500000000E+03 0.  0.
         25    1    1    2    0    0  0.56680436212E+02  0.85006325532E+02 -0.11299648808E+03  0.19705824912E+03  0.12500000000E+03 0.  0.
</event>
<event>
 4    0  0.2219362E-002  0.2555204E+03  0.7546771E-02  0.1109865E+00
         21   -1    0    0  502  501  0.00000000000E+00  0.00000000000E+00  0.14680048076E+03  0.14680048076E+03  0.00000000000E+00 0. -1.
         21   -1    0    0  501  502 -0.00000000000E+00 -0.00000000000E+00 -0.44475807937E+03  0.44475807937E+03  0.00000000000E+00 0. -1.
         25    1    1    2    0    0 -0.41886548327E+02 -0.18166688719E+03 -0.29031616979E+03  0.36696841727E+03  0.12500000000E+03 0.  0.
         25    1    1    2    0    0  0.41886548327E+02  0.18166688719E+03 -0.76414288241E+01  0.22459014286E+03  0.12500000000E+03 0.  0.
</event>
<event>
 4    0  0.2219362E-002  0.2883735E+03  0.7546771E-02  0.1091201E+00
         21   -1    0    0  502  501  0.00000000000E+00  0.00000000000E+00  0.10238103963E+03  0.10238103963E+03  0.00000000000E+00 0. -1.
         21   -1    0    0  501  502 -0.00000000000E+00 -0.00000000000E+00 -0.81225272330E+03  0.81225272330E+03  0.00000000000E+00 0.  1.
         25    1    1    2    0    0  0.10787200038E+03 -0.20183933074E+03 -0.55018726507E+03  0.60885672415E+03  0.12500000000E+03 0.  0.
         25    1    1    2    0    0 -0.10787200038E+03  0.20183933074E+03 -0.15968441860E+03  0.30577703877E+03  0.12500000000E+03 0.  0.
</event>
<event>
 4    0  0.2219362E-002  0.2340530E+03  0.7546771E-02  0.1123819E+00
         21   -1    0    0  502  501  0.00000000000E+00  0.00000000000E+00  0.19693581261E+04  0.19693581261E+04  0.00000000000E+00 0. -1.
         21   -1    0    0  501  502 -0.00000000000E+00 -0.00000000000E+00 -0.27816586229E+02  0.27816586229E+02  0.00000000000E+00 0. -1.
         25    1    1    2    0    0 -0.12625878157E+03  0.70637046988E+02  0.15467475087E+04  0.15585197233E+04  0.12500000000E+03 0.  0.
         25    1    1    2    0    0  0.12625878157E+03 -0.70637046988E+02  0.39479403120E+03  0.43865498903E+03  0.12500000000E+03 0.  0.
</event>
<event>
 4    0  0.2219362E-002  0.3067436E+03  0.7546771E-02  0.1081917E+00
         21   -1    0    0  502  501  0.00000000000E+00  0.00000000000E+00  0.20326273701E+03  0.20326273701E+03  0.00000000000E+00 0.  1.
         21   -1    0    0  501  502 -0.00000000000E+00 -0.00000000000E+00 -0.46290657071E+03  0.46290657071E+03  0.00000000000E+00 0.  1.
         25    1    1    2    0    0  0.24798293599E+03  0.11813045307E+03 -0.70184683191E+02  0.30984065298E+03  0.12500000000E+03 0.  0.
         25    1    1    2    0    0 -0.24798293599E+03 -0.11813045307E+03 -0.18945915051E+03  0.35632865475E+03  0.12500000000E+03 0.  0.
</event>
<event>
 4    0  0.2219362E-002  0.1729302E+03  0.7546771E-02  0.1174826E+00
         21   -1    0    0  502  501  0.00000000000E+00  0.00000000000E+00  0.66292085064E+03  0.66292085064E+03  0.00000000000E+00 0. -1.
         21   -1    0    0  501  502 -0.00000000000E+00 -0.00000000000E+00 -0.45110756461E+02  0.45110756461E+02  0.00000000000E+00 0. -1.
         25    1    1    2    0    0 -0.36627122181E+02 -0.11359651598E+03  0.32086763117E+03  0.36445404547E+03  0.12500000000E+03 0.  0.
         25    1    1    2    0    0  0.36627122181E+02  0.11359651598E+03  0.29694246300E+03  0.34357756163E+03  0.12500000000E+03 0.  0.
</event>
<event>
 4    0  0.2219362E-002  0.1754572E+03  0.7546771E-02  0.1172273E+00
         21   -1    0    0  502  501  0.00000000000E+00  0.00000000000E+00  0.46447610322E+02  0.46447610322E+02  0.00000000000E+00 0.  1.
         21   -1    0    0  501  502 -0.00000000000E+00 -0.00000000000E+00 -0.66279451897E+03  0.66279451897E+03  0.00000000000E+00 0.  1.
         25    1    1    2    0    0  0.10006481260E+03 -0.71483200576E+02 -0.32053489223E+03  0.36536342431E+03  0.12500000000E+03 0.  0.
         25    1    1    2    0    0 -0.10006481260E+03  0.71483200576E+02 -0.29581201642E+03  0.34387870499E+03  0.12500000000E+03 0.  0.
</event>
<event>
 4    0  0.2219362E-002  0.2193617E+03  0.7546771E-02  0.1134360E+00
         21   -1    0    0  502  501  0.00000000000E+00  0.00000000000E+00  0.13289900652E+04  0.13289900652E+04  0.00000000000E+00 0.  1.
         21   -1    0    0  501  502 -0.00000000000E+00 -0.00000000000E+00 -0.36207623929E+02  0.36207623929E+02  0.00000000000E+00 0.  1.
         25    1    1    2    0    0  0.13260958791E+03 -0.44989094429E+02  0.99961595828E+03  0.10170872064E+04  0.12500000000E+03 0.  0.
         25    1    1    2    0    0 -0.13260958791E+03  0.44989094429E+02  0.29316648301E+03  0.34811048272E+03  0.12500000000E+03 0.  0.
</event>
<event>
 4    0  0.2219362E-002  0.1882753E+03  0.7546771E-02  0.1160026E+00
         21   -1    0    0  502  501  0.00000000000E+00  0.00000000000E+00  0.75835776783E+02  0.75835776783E+02  0.00000000000E+00 0.  1.
         21   -1    0    0  501  502 -0.00000000000E+00 -0.00000000000E+00 -0.46742581372E+03  0.46742581372E+03  0.00000000000E+00 0.  1.
         25    1    1    2    0    0  0.10465462575E+02  0.11426760943E+03 -0.78090854226E+02  0.18678809916E+03  0.12500000000E+03 0.  0.
         25    1    1    2    0    0 -0.10465462575E+02 -0.11426760943E+03 -0.31349918271E+03  0.35647349134E+03  0.12500000000E+03 0.  0.
</event>
<event>
 4    0  0.2219362E-002  0.1643641E+03  0.7546771E-02  0.1183856E+00
         21   -1    0    0  502  501  0.00000000000E+00  0.00000000000E+00  0.15539395653E+03  0.15539395653E+03  0.00000000000E+00 0.  1.
         21   -1    0    0  501  502 -0.00000000000E+00 -0.00000000000E+00 -0.17385211627E+03  0.17385211627E+03  0.00000000000E+00 0.  1.
         25    1    1    2    0    0  0.39261036903E+02  0.98033546713E+02 -0.24698890803E+02  0.16549030336E+03  0.12500000000E+03 0.  0.
         25    1    1    2    0    0 -0.39261036903E+02 -0.98033546713E+02  0.62407310578E+01  0.16375576944E+03  0.12500000000E+03 0.  0.
</event>
<event>
 4    0  0.2219362E-002  0.3127489E+03  0.7546771E-02  0.1079036E+00
         21   -1    0    0  502  501  0.00000000000E+00  0.00000000000E+00  0.93951995674E+03  0.93951995674E+03  0.00000000000E+00 0.  1.
         21   -1    0    0  501  502 -0.00000000000E+00 -0.00000000000E+00 -0.10410835338E+03  0.10410835338E+03  0.00000000000E+00 0. -1.
         25    1    1    2    0    0 -0.10633309644E+03  0.24298154603E+03  0.23615505012E+03  0.37648501538E+03  0.12500000000E+03 0.  0.
         25    1    1    2    0    0  0.10633309644E+03 -0.24298154603E+03  0.59925655325E+03  0.66714329474E+03  0.12500000000E+03 0.  0.
</event>
<event>
 4    0  0.2219362E-002  0.2241543E+03  0.7546771E-02  0.1130823E+00
         21   -1    0    0  502  501  0.00000000000E+00  0.00000000000E+00  0.94497235683E+03  0.94497235683E+03  0.00000000000E+00 0. -1.
         21   -1    0    0  501  502 -0.00000000000E+00 -0.00000000000E+00 -0.53171044652E+02  0.53171044652E+02  0.00000000000E+00 0. -1.
         25    1    1    2    0    0  0.17781782637E+03  0.10860564720E+02  0.32635306241E+03  0.39226069468E+03  0.12500000000E+03 0.  0.
         25    1    1    2    0    0 -0.17781782637E+03 -0.10860564720E+02  0.56544824977E+03  0.60588270681E+03  0.12500000000E+03 0.  0.
</event>
<event>
 4    0  0.2219362E-002  0.1950283E+03  0.7546771E-02  0.1154003E+00
         21   -1    0    0  502  501  0.00000000000E+00  0.00000000000E+00  0.13694221708E+03  0.13694221708E+03  0.00000000000E+00 0.  1.
         21   -1    0    0  501  502 -0.00000000000E+00 -0.00000000000E+00 -0.27775258961E+03  0.27775258961E+03  0.00000000000E+00 0.  1.
         25    1    1    2    0    0  0.68649407719E+02  0.50588539489E+02  0.60407870344E+02  0.16292959310E+03  0.12500000000E+03 0.  0.
         25    1    1    2    0    0 -0.68649407719E+02 -0.50588539489E+02 -0.20121824288E+03  0.25176521359E+03  0.12500000000E+03 0.  0.
</event>
<event>
 4    0  0.2219362E-002  0.1804945E+03  0.7546771E-02  0.1167325E+00
         21   -1    0    0  502  501  0.00000000000E+00  0.00000000000E+00  0.61812580030E+02  0.61812580030E+02  0.00000000000E+00 0. -1.
         21   -1    0    0  501  502 -0.00000000000E+00 -0.00000000000E+00 -0.52704882288E+03  0.52704882288E+03  0.00000000000E+00 0. -1.
         25    1    1    2    0    0  0.23845242065E+02  0.79650183267E+02 -0.39607263234E+03  0.42356968418E+03  0.12500000000E+03 0.  0.
         25    1    1    2    0    0 -0.23845242065E+02 -0.79650183267E+02 -0.69163610509E+02  0.16529171873E+03  0.12500000000E+03 0.  0.
</event>
<event>
 4    0  0.2219362E-002  0.2959497E+03  0.7546771E-02  0.1087283E+00
         21   -1    0    0  502  501  0.00000000000E+00  0.00000000000E+00  0.82523682979E+03  0.82523682979E+03  0.00000000000E+00 0.  1.
         21   -1    0    0  501  502 -0.00000000000E+00 -0.00000000000E+00 -0.10613463883E+03  0.10613463883E+03  0.00000000000E+00 0.  1.
         25    1    1    2    0    0  0.17365234739E+03 -0.15059568090E+03  0.14193116327E+03  0.29766365577E+03  0.12500000000E+03 0.  0.
         25    1    1    2    0    0 -0.17365234739E+03  0.15059568090E+03  0.57717102770E+03  0.63370781286E+03  0.12500000000E+03 0.  0.
</event>
<event>
 4    0  0.2219362E-002  0.3110184E+03  0.7546771E-02  0.1079859E+00
         21   -1    0    0  502  501  0.00000000000E+00  0.00000000000E+00  0.58609369187E+03  0.58609369187E+03  0.00000000000E+00 0.  1.
         21   -1    0    0  501  502 -0.00000000000E+00 -0.00000000000E+00 -0.16504600918E+03  0.16504600918E+03  0.00000000000E+00 0.  1.
         25    1    1    2    0    0 -0.16760832365E+03 -0.16327515249E+03  0.40656409298E+03  0.48545925399E+03  0.12500000000E+03 0.  0.
         25    1    1    2    0    0  0.16760832365E+03  0.16327515249E+03  0.14483589709E+02  0.26568044706E+03  0.12500000000E+03 0.  0.
</event>
<event>
 4    0  0.2219362E-002  0.2486952E+03  0.7546771E-02  0.1114132E+00
         21   -1    0    0  502  501  0.00000000000E+00  0.00000000000E+00  0.13953947750E+04  0.13953947750E+04  0.00000000000E+00 0.  1.
         21   -1    0    0  501  502 -0.00000000000E+00 -0.00000000000E+00 -0.44323890839E+02  0.44323890839E+02  0.00000000000E+00 0.  1.
         25    1    1    2    0    0 -0.33694378121E+02  0.21154936302E+03  0.72858395874E+03  0.76964149384E+03  0.12500000000E+03 0.  0.
         25    1    1    2    0    0  0.33694378121E+02 -0.21154936302E+03  0.62248692543E+03  0.67007717200E+03  0.12500000000E+03 0.  0.
</event>
<event>
 4    0  0.2219362E-002  0.2767576E+03  0.7546771E-02  0.1097473E+00
         21   -1    0    0  502  501  0.00000000000E+00  0.00000000000E+00  0.18202692300E+03  0.18202692300E+03  0.00000000000E+00 0.  1.
         21   -1    0    0  501  502 -0.00000000000E+00 -0.00000000000E+00 -0.42078814713E+03  0.42078814713E+03  0.00000000000E+00 0.  1.
         25    1    1    2    0    0  0.79629136539E+02 -0.21082661925E+03 -0.22926907116E+03  0.34493183350E+03  0.12500000000E+03 0.  0.
         25    1    1    2    0    0 -0.79629136539E+02  0.21082661925E+03 -0.94921529688E+01  0.25788323664E+03  0.12500000000E+03 0.  0.
</event>
<event>
 4    0  0.2219362E-002  0.2923935E+03  0.7546771E-02  0.1089106E+00
         21   -1    0    0  502  501  0.00000000000E+00  0.00000000000E+00  0.10162099017E+04  0.10162099017E+04  0.00000000000E+00 0. -1.
         21   -1    0    0  501  502 -0.00000000000E+00 -0.00000000000E+00 -0.84130243481E+02  0.84130243481E+02  0.00000000000E+00 0. -1.
         25    1    1    2    0    0 -0.26001557685E+03 -0.23387128844E+02  0.54393768853E+03  0.61615604112E+03  0.12500000000E+03 0.  0.
         25    1    1    2    0    0  0.26001557685E+03  0.23387128844E+02  0.38814196972E+03  0.48418410410E+03  0.12500000000E+03 0.  0.
</event>
<event>
 4    0  0.2219362E-002  0.3025707E+03  0.7546771E-02  0.1083963E+00
         21   -1    0    0  502  501  0.00000000000E+00  0.00000000000E+00  0.12154842630E+03  0.12154842630E+03  0.00000000000E+00 0. -1.
         21   -1    0    0  501  502 -0.00000000000E+00 -0.00000000000E+00 -0.75318996056E+03  0.75318996056E+03  0.00000000000E+00 0. -1.
         25    1    1    2    0    0 -0.90131152517E+01  0.15680137582E+03  0.11440219466E+02  0.20105667441E+03  0.12500000000E+03 0.  0.
         25    1    1    2    0    0  0.90131152517E+01 -0.15680137582E+03 -0.64308175373E+03  0.67368171245E+03  0.12500000000E+03 0.  0.
</event>
<event>
 4    0  0.2219362E-002  0.3990026E+03  0.7546771E-02  0.1044126E+00
         21   -1    0    0  502  501  0.00000000000E+00  0.00000000000E+00  0.37638118989E+03  0.37638118989E+03  0.00000000000E+00 0. -1.
         21   -1    0    0  501  502 -0.00000000000E+00 -0.00000000000E+00 -0.42298357178E+03  0.42298357178E+03  0.00000000000E+00 0. -1.
         25    1    1    2    0    0 -0.83077426377E+02  0.35043205534E+03 -0.14128801333E+03  0.40656092642E+03  0.12500000000E+03 0.  0.
         25    1    1    2    0    0  0.83077426377E+02 -0.35043205534E+03  0.94685631442E+02  0.39280383524E+03  0.12500000000E+03 0.  0.
</event>
<event>
 4    0  0.2219362E-002  0.1962288E+03  0.7546771E-02  0.1152960E+00
         21   -1    0    0  502  501  0.00000000000E+00  0.00000000000E+00  0.85147187633E+02  0.85147187633E+02  0.00000000000E+00 0.  1.
         21   -1    0    0  501  502 -0.00000000000E+00 -0.00000000000E+00 -0.45222585498E+03  0.45222585498E+03  0.00000000000E+00 0.  1.
         25    1    1    2    0    0 -0.13904728136E+03 -0.59547649502E+02 -0.18467730412E+03  0.26946386710E+03  0.12500000000E+03 0.  0.
         25    1    1    2    0    0  0.13904728136E+03  0.59547649502E+02 -0.18240136322E+03  0.26790917551E+03  0.12500000000E+03 0.  0.
</event>
<event>
 4    0  0.2219362E-002  0.1619789E+03  0.7546771E-02  0.1186481E+00
         21   -1    0    0  502  501  0.00000000000E+00  0.00000000000E+00  0.24480101611E+03  0.24480101611E+03  0.00000000000E+00 0.  1.
         21   -1    0    0  501  502 -0.00000000000E+00 -0.00000000000E+00 -0.10717753335E+03  0.10717753335E+03  0.00000000000E+00 0.  1.
         25    1    1    2    0    0 -0.32614982041E+02 -0.19514684715E+02  0.17284106098E+03  0.21666470025E+03  0.12500000000E+03 0.  0.
         25    1    1    2    0    0  0.32614982041E+02  0.19514684715E+02 -0.35217578224E+02  0.13531384921E+03  0.12500000000E+03 0.  0.
</event>
<event>
 4    0  0.2219362E-002  0.1941478E+03  0.7546771E-02  0.1154773E+00
         21   -1    0    0  502  501  0.00000000000E+00  0.00000000000E+00  0.22065159785E+03  0.22065159785E+03  0.00000000000E+00 0.  1.
         21   -1    0    0  501  502 -0.00000000000E+00 -0.00000000000E+00 -0.17082756615E+03  0.17082756615E+03  0.00000000000E+00 0.  1.
         25    1    1    2    0    0 -0.48100777909E+02 -0.11135218870E+03  0.11137868279E+03  0.20674430039E+03  0.12500000000E+03 0.  0.
         25    1    1    2    0    0  0.48100777909E+02  0.11135218870E+03 -0.61554651084E+02  0.18473486361E+03  0.12500000000E+03 0.  0.
</event>
<event>
 4    0  0.2219362E-002  0.2783207E+03  0.7546771E-02  0.1096610E+00
         21   -1    0    0  502  501  0.00000000000E+00  0.00000000000E+00  0.12084565856E+04  0.12084565856E+04  0.00000000000E+00 0.  1.
         21   -1    0    0  501  502 -0.00000000000E+00 -0.00000000000E+00 -0.64100277240E+02  0.64100277240E+02  0.00000000000E+00 0.  1.
         25    1    1    2    0    0 -0.13829483527E+03  0.75440784087E+02  0.13230888979E+03  0.24072269457E+03  0.12500000000E+03 0.  0.
         25    1    1    2    0    0  0.13829483527E+03 -0.75440784087E+02  0.10120474186E+04  0.10318341683E+04  0.12500000000E+03 0.  0.
</event>
<event>
 4    0  0.2219362E-002  0.2199079E+03  0.7546771E-02  0.1133952E+00
         21   -1    0    0  502  501  0.00000000000E+00  0.00000000000E+00  0.11049914863E+04  0.11049914863E+04  0.00000000000E+00 0. -1.
         21   -1    0    0  501  502 -0.00000000000E+00 -0.00000000000E+00 -0.43764582622E+02  0.43764582622E+02  0.00000000000E+00 0. -1.
         25    1    1    2    0    0 -0.11702374891E+03 -0.10109851935E+02  0.89004885909E+03  0.90642635579E+03  0.12500000000E+03 0.  0.
         25    1    1    2    0    0  0.11702374891E+03  0.10109851935E+02  0.17117804459E+03  0.24232971313E+03  0.12500000000E+03 0.  0.
</event>
<event>
 4    0  0.2219362E-002  0.1794845E+03  0.7546771E-02  0.1168303E+00
         21   -1    0    0  502  501  0.00000000000E+00  0.00000000000E+00  0.99394088639E+03  0.99394088639E+03  0.00000000000E+00 0. -1.
         21   -1    0    0  501  502 -0.00000000000E+00 -0.00000000000E+00 -0.32411066832E+02  0.32411066832E+02  0.00000000000E+00 0. -1.
         25    1    1    2    0    0 -0.78406129296E+02 -0.10217022445E+03  0.48604363011E+03  0.51812130456E+03  0.12500000000E+03 0.  0.
         25    1    1    2    0    0  0.78406129296E+02  0.10217022445E+03  0.47548618945E+03  0.50823064865E+03  0.12500000000E+03 0.  0.
</event>
<event>
 4    0  0.2219362E-002  0.2021873E+03  0.7546771E-02  0.1147907E+00
         21   -1    0    0  502  501  0.00000000000E+00  0.00000000000E+00  0.42133032746E+03  0.42133032746E+03  0.00000000000E+00 0.  1.
         21   -1    0    0  501  502 -0.00000000000E+00 -0.00000000000E+00 -0.97025317893E+02  0.97025317893E+02  0.00000000000E+00 0.  1.
         25    1    1    2    0    0  0.96259452014E+02  0.32298780944E+02  0.54410134339E+01  0.16113254786E+03  0.12500000000E+03 0.  0.
         25    1    1    2    0    0 -0.96259452014E+02 -0.32298780944E+02  0.31886399613E+03  0.35722309749E+03  0.12500000000E+03 0.  0.
</event>
<event>
 4    0  0.2219362E-002  0.2513513E+03  0.7546771E-02  0.1112454E+00
         21   -1    0    0  502  501  0.00000000000E+00  0.00000000000E+00  0.23360755566E+03  0.23360755566E+03  0.00000000000E+00 0. -1.
         21   -1    0    0  501  502 -0.00000000000E+00 -0.00000000000E+00 -0.27044282206E+03  0.27044282206E+03  0.00000000000E+00 0. -1.
         25    1    1    2    0    0  0.20627324214E+03  0.45165699316E+02 -0.73005263512E+02  0.25601437326E+03  0.12500000000E+03 0.  0.
         25    1    1    2    0    0 -0.20627324214E+03 -0.45165699316E+02  0.36169997108E+02  0.24803600446E+03  0.12500000000E+03 0.  0.
</event>
<event>
 4    0  0.2219362E-002  0.1587664E+03  0.7546771E-02  0.1190097E+00
         21   -1    0    0  502  501  0.00000000000E+00  0.00000000000E+00  0.47668262310E+02  0.47668262310E+02  0.00000000000E+00 0.  1.
         21   -1    0    0  501  502 -0.00000000000E+00 -0.00000000000E+00 -0.52879565305E+03  0.52879565305E+03  0.00000000000E+00 0.  1.
         25    1    1    2    0    0  0.23791682266E+02  0.87930787758E+02 -0.17551336233E+03  0.23393975280E+03  0.12500000000E+03 0.  0.
         25    1    1    2    0    0 -0.23791682266E+02 -0.87930787758E+02 -0.30561402841E+03  0.34252416256E+03  0.12500000000E+03 0.  0.
</event>
<event>
 4    0  0.2219362E-002  0.2191656E+03  0.7546771E-02  0.1134507E+00
         21   -1    0    0  502  501  0.00000000000E+00  0.00000000000E+00  0.23613193259E+03  0.23613193259E+03  0.00000000000E+00 0. -1.
         21   -1    0    0  501  502 -0.00000000000E+00 -0.00000000000E+00 -0.20341823894E+03  0.20341823894E+03  0.00000000000E+00 0. -1.
         25    1    1    2    0    0 -0.13231978205E+03 -0.12164255265E+03  0.61744673976E+01  0.21901725819E+03  0.12500000000E+03 0.  0.
         25    1    1    2    0    0  0.13231978205E+03  0.12164255265E+03  0.26539226256E+02  0.22053291334E+03  0.12500000000E+03 0.  0.
</event>
<event>
 4    0  0.2219362E-002  0.2508052E+03  0.7546771E-02  0.1112797E+00
         21   -1    0    0  502  501  0.00000000000E+00  0.00000000000E+00  0.42417411363E+03  0.42417411363E+03  0.00000000000E+00 0.  1.
         21   -1    0    0  501  502 -0.00000000000E+00 -0.00000000000E+00 -0.14829579433E+03  0.14829579433E+03  0.00000000000E+00 0.  1.
         25    1    1    2    0    0 -0.13304063327E+03  0.75076398719E+02 -0.38650810119E+02  0.20113468341E+03  0.12500000000E+03 0.  0.
         25    1    1    2    0    0  0.13304063327E+03 -0.75076398719E+02  0.31452912942E+03  0.37133522456E+03  0.12500000000E+03 0.  0.
</event>
<event>
 4    0  0.2219362E-002  0.2113225E+03  0.7546771E-02  0.1140523E+00
         21   -1    0    0  502  501  0.00000000000E+00  0.00000000000E+00  0.18027993531E+03  0.18027993531E+03  0.00000000000E+00 0.  1.
         21   -1    0    0  501  502 -0.00000000000E+00 -0.00000000000E+00 -0.24771039266E+03  0.24771039266E+03  0.00000000000E+00 0.  1.
         25    1    1    2    0    0  0.87260262034E+02 -0.14615190155E+03 -0.26037659743E+02  0.21278555257E+03  0.12500000000E+03 0.  0.
         25    1    1    2    0    0 -0.87260262034E+02  0.14615190155E+03 -0.41392797606E+02  0.21520477539E+03  0.12500000000E+03 0.  0.
</event>
<event>
 4    0  0.2219362E-002  0.3401912E+03  0.7546771E-02  0.1066715E+00
         21   -1    0    0  502  501  0.00000000000E+00  0.00000000000E+00  0.57888718445E+03  0.57888718445E+03  0.00000000000E+00 0.  1.
         21   -1    0    0  501  502 -0.00000000000E+00 -0.00000000000E+00 -0.19991817010E+03  0.19991817010E+03  0.00000000000E+00 0.  1.
         25    1    1    2    0    0  0.18089326747E+02 -0.14180792983E+03  0.51257096396E+03  0.54661751326E+03  0.12500000000E+03 0.  0.
         25    1    1    2    0    0 -0.18089326747E+02  0.14180792983E+03 -0.13360194961E+03  0.23218784129E+03  0.12500000000E+03 0.  0.
</event>
<event>
 4    0  0.2219362E-002  0.2574455E+03  0.7546771E-02  0.1108688E+00
         21   -1    0    0  502  501  0.00000000000E+00  0.00000000000E+00  0.12211949363E+03  0.12211949363E+03  0.00000000000E+00 0.  1.
         21   -1    0    0  501  502 -0.00000000000E+00 -0.00000000000E+00 -0.54273225141E+03  0.54273225141E+03  0.00000000000E+00 0.  1.
         25    1    1    2    0    0 -0.19310679623E+03  0.10793164319E+03 -0.15685257729E+03  0.29860878312E+03  0.12500000000E+03 0.  0.
         25    1    1    2    0    0  0.19310679623E+03 -0.10793164319E+03 -0.26376018049E+03  0.36624296193E+03  0.12500000000E+03 0.  0.
</event>
<event>
 4    0  0.2219362E-002  0.2043517E+03  0.7546771E-02  0.1146119E+00
         21   -1    0    0  502  501  0.00000000000E+00  0.00000000000E+00  0.92783957275E+02  0.92783957275E+02  0.00000000000E+00 0.  1.
         21   -1    0    0  501  502 -0.00000000000E+00 -0.00000000000E+00 -0.45007355955E+03  0.45007355955E+03  0.00000000000E+00 0.  1.
         25    1    1    2    0    0  0.72683062192E+02 -0.87413671133E+00  0.13151954755E+02  0.14519492263E+03  0.12500000000E+03 0.  0.
         25    1    1    2    0    0 -0.72683062192E+02  0.87413671133E+00 -0.37044155703E+03  0.39766259419E+03  0.12500000000E+03 0.  0.
</event>
<event>
 4    0  0.2219362E-002  0.1890782E+03  0.7546771E-02  0.1159295E+00
         21   -1    0    0  502  501  0.00000000000E+00  0.00000000000E+00  0.15306596957E+04  0.15306596957E+04  0.00000000000E+00 0. -1.
         21   -1    0    0  501  502 -0.00000000000E+00 -0.00000000000E+00 -0.23356308048E+02  0.23356308048E+02  0.00000000000E+00 0. -1.
         25    1    1    2    0    0 -0.16571847192E+02  0.11585096699E+03  0.42413894527E+03  0.45740017224E+03  0.12500000000E+03 0.  0.
         25    1    1    2    0    0  0.16571847192E+02 -0.11585096699E+03  0.10831644424E+04  0.10966158315E+04  0.12500000000E+03 0.  0.
</event>
<event>
 4    0  0.2219362E-002  0.2837910E+03  0.7546771E-02  0.1093636E+00
         21   -1    0    0  502  501  0.00000000000E+00  0.00000000000E+00  0.29487447027E+03  0.29487447027E+03  0.00000000000E+00 0.  1.
         21   -1    0    0  501  502 -0.00000000000E+00 -0.00000000000E+00 -0.27312414654E+03  0.27312414654E+03  0.00000000000E+00 0.  1.
         25    1    1    2    0    0  0.16668552407E+03 -0.15596686827E+03 -0.10235650658E+03  0.27966333755E+03  0.12500000000E+03 0.  0.
         25    1    1    2    0    0 -0.16668552407E+03  0.15596686827E+03  0.12410683030E+03  0.28833527925E+03  0.12500000000E+03 0.  0.
</event>
<event>
 4    0  0.2219362E-002  0.2135356E+03  0.7546771E-02  0.1138796E+00
         21   -1    0    0  502  501  0.00000000000E+00  0.00000000000E+00  0.11724194205E+03  0.11724194205E+03  0.00000000000E+00 0. -1.
         21   -1    0    0  501  502 -0.00000000000E+00 -0.00000000000E+00 -0.38891744750E+03  0.38891744750E+03  0.00000000000E+00 0. -1.
         25    1    1    2    0    0 -0.39657764327E+02 -0.16265365595E+03 -0.83588764903E+02  0.22503562315E+03  0.12500000000E+03 0.  0.
         25    1    1    2    0    0  0.39657764327E+02  0.16265365595E+03 -0.18808674055E+03  0.28112376641E+03  0.12500000000E+03 0.  0.
</event>
<event>
 4    0  0.2219362E-002  0.1848469E+03  0.7546771E-02  0.1163193E+00
         21   -1    0    0  502  501  0.00000000000E+00  0.00000000000E+00  0.48276648147E+03  0.48276648147E+03  0.00000000000E+00 0.  1.
         21   -1    0    0  501  502 -0.00000000000E+00 -0.00000000000E+00 -0.70776162971E+02  0.70776162971E+02  0.00000000000E+00 0.  1.
         25    1    1    2    0    0 -0.84946219501E+02 -0.13745901643E+02  0.36401926431E+03  0.39438538869E+03  0.12500000000E+03 0.  0.
         25    1    1    2    0    0  0.84946219501E+02  0.13745901643E+02  0.47971054186E+02  0.15915725575E+03  0.12500000000E+03 0.  0.
</event>
<event>
 4    0  0.2219362E-002  0.3704765E+03  0.7546771E-02  0.1054511E+00
         21   -1    0    0  502  501  0.00000000000E+00  0.00000000000E+00  0.45799137810E+03  0.45799137810E+03  0.00000000000E+00 0. -1.
         21   -1    0    0  501  502 -0.00000000000E+00 -0.00000000000E+00 -0.29968427854E+03  0.29968427854E+03  0.00000000000E+00 0. -1.
         25    1    1    2    0    0  0.19918289736E+03 -0.19548381088E+03  0.29301496575E+03  0.42352156624E+03  0.12500000000E+03 0.  0.
         25    1    1    2    0    0 -0.19918289736E+03  0.19548381088E+03 -0.13470786620E+03  0.33415409040E+03  0.12500000000E+03 0.  0.
</event>
<event>
 4    0  0.2219362E-002  0.1836432E+03  0.7546771E-02  0.1164323E+00
         21   -1    0    0  502  501  0.00000000000E+00  0.00000000000E+00  0.99811329353E+02  0.99811329353E+02  0.00000000000E+00 0. -1.
         21   -1    0    0  501  502 -0.00000000000E+00 -0.00000000000E+00 -0.33788575716E+03  0.33788575716E+03  0.00000000000E+00 0. -1.
         25    1    1    2    0    0 -0.12855044815E+03  0.36062459649E+02 -0.99307101687E+02  0.20811684017E+03  0.12500000000E+03 0.  0.
         25    1    1    2    0    0  0.12855044815E+03 -0.36062459649E+02 -0.13876732612E+03  0.22958024635E+03  0.12500000000E+03 0.  0.
</event>
<event>
 4    0  0.2219362E-002  0.2228141E+03  0.7546771E-02  0.1131802E+00
         21   -1    0    0  502  501  0.00000000000E+00  0.00000000000E+00  0.10282589923E+03  0.10282589923E+03  0.00000000000E+00 0. -1.
         21   -1    0    0  501  502 -0.00000000000E+00 -0.00000000000E+00 -0.48281708517E+03  0.48281708517E+03  0.00000000000E+00 0. -1.
         25    1    1    2    0    0 -0.38563189520E+02 -0.16800959655E+03 -0.27624091572E+03  0.34878128912E+03  0.12500000000E+03 0.  0.
         25    1    1    2    0    0  0.38563189520E+02  0.16800959655E+03 -0.10375027022E+03  0.23686169528E+03  0.12500000000E+03 0.  0.
</event>
<event>
 4    0  0.2219362E-002  0.2106442E+03  0.7546771E-02  0.1141057E+00
         21   -1    0    0  502  501  0.00000000000E+00  0.00000000000E+00  0.63290968212E+03  0.63290968212E+03  0.00000000000E+00 0.  1.
         21   -1    0    0  501  502 -0.00000000000E+00 -0.00000000000E+00 -0.70106335171E+02  0.70106335171E+02  0.00000000000E+00 0.  1.
         25    1    1    2    0    0 -0.95898487187E+02  0.13757580365E+03  0.23977176929E+03  0.31818095943E+03  0.12500000000E+03 0.  0.
         25    1    1    2    0    0  0.95898487187E+02 -0.13757580365E+03  0.32303157766E+03  0.38483505786E+03  0.12500000000E+03 0.  0.
</event>
<event>
 4    0  0.2219362E-002  0.2746189E+03  0.7546771E-02  0.1098665E+00
         21   -1    0    0  502  501  0.00000000000E+00  0.00000000000E+00  0.62379409503E+02  0.62379409503E+02  0.00000000000E+00 0. -1.
         21   -1    0    0  501  502 -0.00000000000E+00 -0.00000000000E+00 -0.12089811701E+04  0.12089811701E+04  0.00000000000E+00 0. -1.
         25    1    1    2    0    0 -0.16164919596E+03 -0.72347214698E+02 -0.18303027907E+03  0.28370700570E+03  0.12500000000E+03 0.  0.
         25    1    1    2    0    0  0.16164919596E+03  0.72347214698E+02 -0.96357148152E+03  0.98765357390E+03  0.12500000000E+03 0.  0.
</event>
<event>
 4    0  0.2219362E-002  0.2087044E+03  0.7546771E-02  0.1142596E+00
         21   -1    0    0  502  501  0.00000000000E+00  0.00000000000E+00  0.21740076805E+03  0.21740076805E+03  0.00000000000E+00 0.  1.
         21   -1    0    0  501  502 -0.00000000000E+00 -0.00000000000E+00 -0.20035593551E+03  0.20035593551E+03  0.00000000000E+00 0.  1.
         25    1    1    2    0    0 -0.52163531045E+02  0.64247417874E+02 -0.13680110721E+03  0.20294902712E+03  0.12500000000E+03 0.  0.
         25    1    1    2    0    0  0.52163531045E+02 -0.64247417874E+02  0.15384593976E+03  0.21480767643E+03  0.12500000000E+03 0.  0.
</event>
<event>
 4    0  0.2219362E-002  0.2315662E+03  0.7546771E-02  0.1125542E+00
         21   -1    0    0  502  501  0.00000000000E+00  0.00000000000E+00  0.33983882016E+03  0.33983882016E+03  0.00000000000E+00 0. -1.
         21   -1    0    0  501  502 -0.00000000000E+00 -0.00000000000E+00 -0.15778921873E+03  0.15778921873E+03  0.00000000000E+00 0. -1.
         25    1    1    2    0    0 -0.49351340108E+02  0.75991941883E+02  0.27647070348E+03  0.31665656457E+03  0.12500000000E+03 0.  0.
         25    1    1    2    0    0  0.49351340108E+02 -0.75991941883E+02 -0.94421102052E+02  0.18097147431E+03  0.12500000000E+03 0.  0.
</event>
<event>
 4    0  0.2219362E-002  0.1618792E+03  0.7546771E-02  0.1186591E+00
         21   -1    0    0  502  501  0.00000000000E+00  0.00000000000E+00  0.17654558143E+03  0.17654558143E+03  0.00000000000E+00 0. -1.
         21   -1    0    0  501  502 -0.00000000000E+00 -0.00000000000E+00 -0.14843127181E+03  0.14843127181E+03  0.00000000000E+00 0. -1.
         25    1    1    2    0    0  0.69118103625E+02 -0.49614097406E+02  0.72076185428E+02  0.16750775330E+03  0.12500000000E+03 0.  0.
         25    1    1    2    0    0 -0.69118103625E+02  0.49614097406E+02 -0.43961875804E+02  0.15746909993E+03  0.12500000000E+03 0.  0.
</event>
<event>
 4    0  0.2219362E-002  0.2242273E+03  0.7546771E-02  0.1130770E+00
         21   -1    0    0  502  501  0.00000000000E+00  0.00000000000E+00  0.48323757397E+02  0.48323757397E+02  0.00000000000E+00 0.  1.
         21   -1    0    0  501  502 -0.00000000000E+00 -0.00000000000E+00 -0.10404381089E+04  0.10404381089E+04  0.00000000000E+00 0.  1.
         25    1    1    2    0    0 -0.35736876421E+01 -0.59909069705E+02 -0.68245823919E+02  0.15454565784E+03  0.12500000000E+03 0.  0.
         25    1    1    2    0    0  0.35736876421E+01  0.59909069705E+02 -0.92386852762E+03  0.93421620849E+03  0.12500000000E+03 0.  0.
</event>
<event>
 4    0  0.2219362E-002  0.3446950E+03  0.7546771E-02  0.1064814E+00
         21   -1    0    0  502  501  0.00000000000E+00  0.00000000000E+00  0.37409209559E+03  0.37409209559E+03  0.00000000000E+00 0.  1.
         21   -1    0    0  501  502 -0.00000000000E+00 -0.00000000000E+00 -0.31760800299E+03  0.31760800299E+03  0.00000000000E+00 0.  1.
         25    1    1    2    0    0  0.31863160420E+03  0.29115385530E+02 -0.41655347136E+00  0.34350979373E+03  0.12500000000E+03 0.  0.
         25    1    1    2    0    0 -0.31863160420E+03 -0.29115385530E+02  0.56900646066E+02  0.34819030485E+03  0.12500000000E+03 0.  0.
</event>
<event>
 4    0  0.2282429E-002  0.2072367E+03  0.7546771E-02  0.1143773E+00
         21   -1    0    0  502  501  0.00000000000E+00  0.00000000000E+00  0.20283596097E+03  0.20283596097E+03  0.00000000000E+00 0. -1.
         21   -1    0    0  501  502 -0.00000000000E+00 -0.00000000000E+00 -0.21173284478E+03  0.21173284478E+03  0.00000000000E+00 0. -1.
         25    1    1    2    0    0 -0.27143763077E+02 -0.10012071698E+02  0.15833120375E+03  0.20379105852E+03  0.12500000000E+03 0.  0.
         25    1    1    2    0    0  0.27143763077E+02  0.10012071698E+02 -0.16722808757E+03  0.21077774722E+03  0.12500000000E+03 0.  0.
</event>
<event>
 4    0  0.2219362E-002  0.2647262E+03  0.7546771E-02  0.1104336E+00
         21   -1    0    0  502  501  0.00000000000E+00  0.00000000000E+00  0.24869204403E+03  0.24869204403E+03  0.00000000000E+00 0. -1.
         21   -1    0    0  501  502 -0.00000000000E+00 -0.00000000000E+00 -0.28179418043E+03  0.28179418043E+03  0.00000000000E+00 0. -1.
         25    1    1    2    0    0  0.14683852415E+03  0.15535287012E+02  0.16450060440E+03  0.25394555748E+03  0.12500000000E+03 0.  0.
         25    1    1    2    0    0 -0.14683852415E+03 -0.15535287012E+02 -0.19760274081E+03  0.27654066698E+03  0.12500000000E+03 0.  0.
</event>
<event>
 4    0  0.2219362E-002  0.3075910E+03  0.7546771E-02  0.1081506E+00
         21   -1    0    0  502  501  0.00000000000E+00  0.00000000000E+00  0.25777389949E+04  0.25777389949E+04  0.00000000000E+00 0. -1.
         21   -1    0    0  501  502 -0.00000000000E+00 -0.00000000000E+00 -0.36703563998E+02  0.36703563998E+02  0.00000000000E+00 0.  1.
         25    1    1    2    0    0 -0.16998414005E+03  0.21735305683E+03  0.14974085327E+04  0.15277415596E+04  0.12500000000E+03 0.  0.
         25    1    1    2    0    0  0.16998414005E+03 -0.21735305683E+03  0.10436268982E+04  0.10867009992E+04  0.12500000000E+03 0.  0.
</event>
<event>
 4    0  0.2219362E-002  0.1668021E+03  0.7546771E-02  0.1181224E+00
         21   -1    0    0  502  501  0.00000000000E+00  0.00000000000E+00  0.61824112139E+02  0.61824112139E+02  0.00000000000E+00 0.  1.
         21   -1    0    0  501  502 -0.00000000000E+00 -0.00000000000E+00 -0.45003379130E+03  0.45003379130E+03  0.00000000000E+00 0.  1.
         25    1    1    2    0    0 -0.33422401180E+02 -0.83946909078E+02 -0.96656364883E+02  0.18202085956E+03  0.12500000000E+03 0.  0.
         25    1    1    2    0    0  0.33422401180E+02  0.83946909078E+02 -0.29155331427E+03  0.32983704387E+03  0.12500000000E+03 0.  0.
</event>
<event>
 4    0  0.2219362E-002  0.1812754E+03  0.7546771E-02  0.1166574E+00
         21   -1    0    0  502  501  0.00000000000E+00  0.00000000000E+00  0.60740159952E+02  0.60740159952E+02  0.00000000000E+00 0. -1.
         21   -1    0    0  501  502 -0.00000000000E+00 -0.00000000000E+00 -0.54100593554E+03  0.54100593554E+03  0.00000000000E+00 0. -1.
         25    1    1    2    0    0  0.52615324019E+02 -0.27183405105E+02 -0.43460417488E+03  0.45608453016E+03  0.12500000000E+03 0.  0.
         25    1    1    2    0    0 -0.52615324019E+02  0.27183405105E+02 -0.45661600712E+02  0.14566156533E+03  0.12500000000E+03 0.  0.
</event>
<event>
 4    0  0.2219362E-002  0.2509370E+03  0.7546771E-02  0.1112714E+00
         21   -1    0    0  502  501  0.00000000000E+00  0.00000000000E+00  0.14633142427E+04  0.14633142427E+04  0.00000000000E+00 0. -1.
         21   -1    0    0  501  502 -0.00000000000E+00 -0.00000000000E+00 -0.43032014801E+02  0.43032014801E+02  0.00000000000E+00 0. -1.
         25    1    1    2    0    0  0.71901119084E+02  0.10275147343E+03  0.12438305551E+04  0.12563706006E+04  0.12500000000E+03 0.  0.
         25    1    1    2    0    0 -0.71901119084E+02 -0.10275147343E+03  0.17645167282E+03  0.24997565693E+03  0.12500000000E+03 0.  0.
</event>
<event>
 4    0  0.2219362E-002  0.1389530E+03  0.7546771E-02  0.1214745E+00
         21   -1    0    0  502  501  0.00000000000E+00  0.00000000000E+00  0.15676937188E+03  0.15676937188E+03  0.00000000000E+00 0.  1.
         21   -1    0    0  501  502 -0.00000000000E+00 -0.00000000000E+00 -0.12316144737E+03  0.12316144737E+03  0.00000000000E+00 0.  1.
         25    1    1    2    0    0  0.40186003902E+02 -0.15529748987E+02  0.59857091751E+02  0.14513428074E+03  0.12500000000E+03 0.  0.
         25    1    1    2    0    0 -0.40186003902E+02  0.15529748987E+02 -0.26249167245E+02  0.13479653851E+03  0.12500000000E+03 0.  0.
</event>
<event>
 4    0  0.2219362E-002  0.1319328E+03  0.7546771E-02  0.1224616E+00
         21   -1    0    0  502  501  0.00000000000E+00  0.00000000000E+00  0.10759374661E+02  0.10759374661E+02  0.00000000000E+00 0. -1.
         21   -1    0    0  501  502 -0.00000000000E+00 -0.00000000000E+00 -0.16177767340E+04  0.16177767340E+04  0.00000000000E+00 0. -1.
         25    1    1    2    0    0 -0.35810190544E+02 -0.21536852684E+02 -0.76696418502E+03  0.77820644232E+03  0.12500000000E+03 0.  0.
         25    1    1    2    0    0  0.35810190544E+02  0.21536852684E+02 -0.84005317431E+03  0.85032966633E+03  0.12500000000E+03 0.  0.
</event>
<event>
 4    0  0.2219362E-002  0.1550100E+03  0.7546771E-02  0.1194448E+00
         21   -1    0    0  502  501  0.00000000000E+00  0.00000000000E+00  0.30266142010E+02  0.30266142010E+02  0.00000000000E+00 0.  1.
         21   -1    0    0  501  502 -0.00000000000E+00 -0.00000000000E+00 -0.79389374606E+03  0.79389374606E+03  0.00000000000E+00 0.  1.
         25    1    1    2    0    0 -0.78818833864E+02 -0.44206009881E+02 -0.34092950002E+03  0.37419848191E+03  0.12500000000E+03 0.  0.
         25    1    1    2    0    0  0.78818833864E+02  0.44206009881E+02 -0.42269810404E+03  0.44996140616E+03  0.12500000000E+03 0.  0.
</event>
<event>
 4    0  0.2219362E-002  0.2744739E+03  0.7546771E-02  0.1098746E+00
         21   -1    0    0  502  501  0.00000000000E+00  0.00000000000E+00  0.40286451935E+03  0.40286451935E+03  0.00000000000E+00 0.  1.
         21   -1    0    0  501  502 -0.00000000000E+00 -0.00000000000E+00 -0.18700067798E+03  0.18700067798E+03  0.00000000000E+00 0.  1.
         25    1    1    2    0    0  0.22399483879E+03  0.97241234857E+02  0.11762617425E+03  0.29848025468E+03  0.12500000000E+03 0.  0.
         25    1    1    2    0    0 -0.22399483879E+03 -0.97241234857E+02  0.98237667120E+02  0.29138494265E+03  0.12500000000E+03 0.  0.
</event>
<event>
 4    0  0.2219362E-002  0.3105968E+03  0.7546771E-02  0.1080060E+00
         21   -1    0    0  502  501  0.00000000000E+00  0.00000000000E+00  0.14469211135E+03  0.14469211135E+03  0.00000000000E+00 0.  1.
         21   -1    0    0  501  502 -0.00000000000E+00 -0.00000000000E+00 -0.66672842722E+03  0.66672842722E+03  0.00000000000E+00 0.  1.
         25    1    1    2    0    0 -0.48053290253E+01 -0.27343970659E+03 -0.36264389045E+03  0.47109230052E+03  0.12500000000E+03 0.  0.
         25    1    1    2    0    0  0.48053290253E+01  0.27343970659E+03 -0.15939242542E+03  0.34032823804E+03  0.12500000000E+03 0.  0.
</event>
<event>
 4    0  0.2219362E-002  0.1978084E+03  0.7546771E-02  0.1151601E+00
         21   -1    0    0  502  501  0.00000000000E+00  0.00000000000E+00  0.12248440567E+03  0.12248440567E+03  0.00000000000E+00 0.  1.
         21   -1    0    0  501  502 -0.00000000000E+00 -0.00000000000E+00 -0.31945434936E+03  0.31945434936E+03  0.00000000000E+00 0.  1.
         25    1    1    2    0    0 -0.11277085526E+03  0.35740977907E+02  0.10443931518E+02  0.17242029754E+03  0.12500000000E+03 0.  0.
         25    1    1    2    0    0  0.11277085526E+03 -0.35740977907E+02 -0.20741387521E+03  0.26951845749E+03  0.12500000000E+03 0.  0.
</event>
<event>
 4    0  0.2219362E-002  0.2467288E+03  0.7546771E-02  0.1115390E+00
         21   -1    0    0  502  501  0.00000000000E+00  0.00000000000E+00  0.12266457470E+03  0.12266457470E+03  0.00000000000E+00 0.  1.
         21   -1    0    0  501  502 -0.00000000000E+00 -0.00000000000E+00 -0.49627270976E+03  0.49627270976E+03  0.00000000000E+00 0.  1.
         25    1    1    2    0    0 -0.15765468427E+03  0.10055423466E+03 -0.31400092237E+03  0.38624827874E+03  0.12500000000E+03 0.  0.
         25    1    1    2    0    0  0.15765468427E+03 -0.10055423466E+03 -0.59607212682E+02  0.23268900572E+03  0.12500000000E+03 0.  0.
</event>
<event>
 4    0  0.2219362E-002  0.2639636E+03  0.7546771E-02  0.1104785E+00
         21   -1    0    0  502  501  0.00000000000E+00  0.00000000000E+00  0.83204923217E+03  0.83204923217E+03  0.00000000000E+00 0. -1.
         21   -1    0    0  501  502 -0.00000000000E+00 -0.00000000000E+00 -0.83741152100E+02  0.83741152100E+02  0.00000000000E+00 0. -1.
         25    1    1    2    0    0 -0.23019121356E+03  0.18944595251E+02  0.32809909653E+03  0.42026290537E+03  0.12500000000E+03 0.  0.
         25    1    1    2    0    0  0.23019121356E+03 -0.18944595251E+02  0.42020898354E+03  0.49552747890E+03  0.12500000000E+03 0.  0.
</event>
<event>
 4    0  0.2219362E-002  0.3312640E+03  0.7546771E-02  0.1070579E+00
         21   -1    0    0  502  501  0.00000000000E+00  0.00000000000E+00  0.51746926258E+03  0.51746926258E+03  0.00000000000E+00 0. -1.
         21   -1    0    0  501  502 -0.00000000000E+00 -0.00000000000E+00 -0.21206253940E+03  0.21206253940E+03  0.00000000000E+00 0. -1.
         25    1    1    2    0    0  0.23958081339E+03  0.19124252731E+03  0.16564697335E+03  0.37018453530E+03  0.12500000000E+03 0.  0.
         25    1    1    2    0    0 -0.23958081339E+03 -0.19124252731E+03  0.13975974984E+03  0.35934726668E+03  0.12500000000E+03 0.  0.
</event>
<event>
 4    0  0.2219362E-002  0.2216758E+03  0.7546771E-02  0.1132640E+00
         21   -1    0    0  502  501  0.00000000000E+00  0.00000000000E+00  0.67815393418E+02  0.67815393418E+02  0.00000000000E+00 0. -1.
         21   -1    0    0  501  502 -0.00000000000E+00 -0.00000000000E+00 -0.72461680195E+03  0.72461680195E+03  0.00000000000E+00 0. -1.
         25    1    1    2    0    0 -0.69756828821E+01  0.82657661761E+02 -0.62009893838E+03  0.63798796429E+03  0.12500000000E+03 0.  0.
         25    1    1    2    0    0  0.69756828821E+01 -0.82657661761E+02 -0.36702470160E+02  0.15444423108E+03  0.12500000000E+03 0.  0.
</event>
<event>
 4    0  0.2219362E-002  0.2254840E+03  0.7546771E-02  0.1129859E+00
         21   -1    0    0  502  501  0.00000000000E+00  0.00000000000E+00  0.56167149226E+03  0.56167149226E+03  0.00000000000E+00 0.  1.
         21   -1    0    0  501  502 -0.00000000000E+00 -0.00000000000E+00 -0.90520982721E+02  0.90520982721E+02  0.00000000000E+00 0.  1.
         25    1    1    2    0    0  0.12673962217E+03 -0.12076140884E+03  0.33336061768E+03  0.39673738305E+03  0.12500000000E+03 0.  0.
         25    1    1    2    0    0 -0.12673962217E+03  0.12076140884E+03  0.13778989186E+03  0.25545509193E+03  0.12500000000E+03 0.  0.
</event>
<event>
 4    0  0.2219362E-002  0.2037911E+03  0.7546771E-02  0.1146579E+00
         21   -1    0    0  502  501  0.00000000000E+00  0.00000000000E+00  0.40325544596E+02  0.40325544596E+02  0.00000000000E+00 0.  1.
         21   -1    0    0  501  502 -0.00000000000E+00 -0.00000000000E+00 -0.10298887712E+04  0.10298887712E+04  0.00000000000E+00 0.  1.
         25    1    1    2    0    0 -0.13648512070E+03 -0.42200666871E+02 -0.30010753834E+03  0.35510367363E+03  0.12500000000E+03 0.  0.
         25    1    1    2    0    0  0.13648512070E+03  0.42200666871E+02 -0.68945568823E+03  0.71511064213E+03  0.12500000000E+03 0.  0.
</event>
<event>
 4    0  0.2219362E-002  0.2166792E+03  0.7546771E-02  0.1136383E+00
         21   -1    0    0  502  501  0.00000000000E+00  0.00000000000E+00  0.19929723214E+04  0.19929723214E+04  0.00000000000E+00 0. -1.
         21   -1    0    0  501  502 -0.00000000000E+00 -0.00000000000E+00 -0.23557715606E+02  0.23557715606E+02  0.00000000000E+00 0. -1.
         25    1    1    2    0    0 -0.76031933801E+02 -0.12903957642E+03  0.54589687996E+03  0.57970722852E+03  0.12500000000E+03 0.  0.
         25    1    1    2    0    0  0.76031933801E+02  0.12903957642E+03  0.14235177258E+04  0.14368228085E+04  0.12500000000E+03 0.  0.
</event>
<event>
 4    0  0.2219362E-002  0.3553333E+03  0.7546771E-02  0.1060447E+00
         21   -1    0    0  502  501  0.00000000000E+00  0.00000000000E+00  0.74819418722E+02  0.74819418722E+02  0.00000000000E+00 0. -1.
         21   -1    0    0  501  502 -0.00000000000E+00 -0.00000000000E+00 -0.16875536016E+04  0.16875536016E+04  0.00000000000E+00 0. -1.
         25    1    1    2    0    0 -0.47137855951E+02  0.35751732160E+02  0.53428197011E+01  0.13839692749E+03  0.12500000000E+03 0.  0.
         25    1    1    2    0    0  0.47137855951E+02 -0.35751732160E+02 -0.16180770026E+04  0.16239760928E+04  0.12500000000E+03 0.  0.
</event>
<event>
 4    0  0.2219362E-002  0.1819225E+03  0.7546771E-02  0.1165955E+00
         21   -1    0    0  502  501  0.00000000000E+00  0.00000000000E+00  0.52323456734E+03  0.52323456734E+03  0.00000000000E+00 0. -1.
         21   -1    0    0  501  502 -0.00000000000E+00 -0.00000000000E+00 -0.63252309086E+02  0.63252309086E+02  0.00000000000E+00 0. -1.
         25    1    1    2    0    0 -0.97879510663E+02  0.86100234085E+02  0.19478101878E+03  0.26562811258E+03  0.12500000000E+03 0.  0.
         25    1    1    2    0    0  0.97879510663E+02 -0.86100234085E+02  0.26520123947E+03  0.32085876385E+03  0.12500000000E+03 0.  0.
</event>
<event>
 4    0  0.2219362E-002  0.4307092E+03  0.7546771E-02  0.1033636E+00
         21   -1    0    0  502  501  0.00000000000E+00  0.00000000000E+00  0.36860478081E+03  0.36860478081E+03  0.00000000000E+00 0. -1.
         21   -1    0    0  501  502 -0.00000000000E+00 -0.00000000000E+00 -0.50327740020E+03  0.50327740020E+03  0.00000000000E+00 0. -1.
         25    1    1    2    0    0  0.16702369911E+02  0.19571676115E+03  0.29942063656E+03  0.37929109844E+03  0.12500000000E+03 0.  0.
         25    1    1    2    0    0 -0.16702369911E+02 -0.19571676115E+03 -0.43409325595E+03  0.49259108256E+03  0.12500000000E+03 0.  0.
</event>
<event>
 4    0  0.2219362E-002  0.2821724E+03  0.7546771E-02  0.1094508E+00
         21   -1    0    0  502  501  0.00000000000E+00  0.00000000000E+00  0.15758792469E+04  0.15758792469E+04  0.00000000000E+00 0.  1.
         21   -1    0    0  501  502 -0.00000000000E+00 -0.00000000000E+00 -0.50524991427E+02  0.50524991427E+02  0.00000000000E+00 0.  1.
         25    1    1    2    0    0 -0.24418283787E+03  0.50544261912E+02  0.63985453399E+03  0.69801060550E+03  0.12500000000E+03 0.  0.
         25    1    1    2    0    0  0.24418283787E+03 -0.50544261912E+02  0.88549972147E+03  0.92839363281E+03  0.12500000000E+03 0.  0.
</event>
<event>
 4    0  0.2219362E-002  0.3664308E+03  0.7546771E-02  0.1056066E+00
         21   -1    0    0  502  501  0.00000000000E+00  0.00000000000E+00  0.53988628702E+02  0.53988628702E+02  0.00000000000E+00 0. -1.
         21   -1    0    0  501  502 -0.00000000000E+00 -0.00000000000E+00 -0.24870337832E+04  0.24870337832E+04  0.00000000000E+00 0. -1.
         25    1    1    2    0    0  0.90233537414E+02  0.24338224672E+03 -0.20016067012E+04  0.20222342583E+04  0.12500000000E+03 0.  0.
         25    1    1    2    0    0 -0.90233537414E+02 -0.24338224672E+03 -0.43143845329E+03  0.51878815355E+03  0.12500000000E+03 0.  0.
</event>
<event>
 4    0  0.2219362E-002  0.2260137E+03  0.7546771E-02  0.1129477E+00
         21   -1    0    0  502  501  0.00000000000E+00  0.00000000000E+00  0.45911590256E+02  0.45911590256E+02  0.00000000000E+00 0.  1.
         21   -1    0    0  501  502 -0.00000000000E+00 -0.00000000000E+00 -0.11126210877E+04  0.11126210877E+04  0.00000000000E+00 0.  1.
         25    1    1    2    0    0 -0.18735646395E+03  0.18514767332E+02 -0.52449032024E+03  0.57110448888E+03  0.12500000000E+03 0.  0.
         25    1    1    2    0    0  0.18735646395E+03 -0.18514767332E+02 -0.54221917720E+03  0.58742818908E+03  0.12500000000E+03 0.  0.
</event>
<event>
 4    0  0.2219362E-002  0.2896979E+03  0.7546771E-02  0.1090507E+00
         21   -1    0    0  502  501  0.00000000000E+00  0.00000000000E+00  0.47773062040E+03  0.47773062040E+03  0.00000000000E+00 0. -1.
         21   -1    0    0  501  502 -0.00000000000E+00 -0.00000000000E+00 -0.17567403228E+03  0.17567403228E+03  0.00000000000E+00 0. -1.
         25    1    1    2    0    0  0.10903614097E+03  0.11150580378E+03 -0.85466658264E+02  0.21737519175E+03  0.12500000000E+03 0.  0.
         25    1    1    2    0    0 -0.10903614097E+03 -0.11150580378E+03  0.38752324638E+03  0.43602946094E+03  0.12500000000E+03 0.  0.
</event>
<event>
 4    0  0.2219362E-002  0.1917536E+03  0.7546771E-02  0.1156889E+00
         21   -1    0    0  502  501  0.00000000000E+00  0.00000000000E+00  0.19020157851E+03  0.19020157851E+03  0.00000000000E+00 0. -1.
         21   -1    0    0  501  502 -0.00000000000E+00 -0.00000000000E+00 -0.19331831967E+03  0.19331831967E+03  0.00000000000E+00 0. -1.
         25    1    1    2    0    0  0.26773353995E+02  0.11043783719E+01 -0.14448410839E+03  0.19292145996E+03  0.12500000000E+03 0.  0.
         25    1    1    2    0    0 -0.26773353995E+02 -0.11043783719E+01  0.14136736723E+03  0.19059843822E+03  0.12500000000E+03 0.  0.
</event>
<event>
 4    0  0.2219362E-002  0.1606100E+03  0.7546771E-02  0.1188010E+00
         21   -1    0    0  502  501  0.00000000000E+00  0.00000000000E+00  0.73307506543E+03  0.73307506543E+03  0.00000000000E+00 0.  1.
         21   -1    0    0  501  502 -0.00000000000E+00 -0.00000000000E+00 -0.35188188844E+02  0.35188188844E+02  0.00000000000E+00 0.  1.
         25    1    1    2    0    0  0.21105984856E+02  0.79944990911E+02  0.48704066297E+03  0.50957852345E+03  0.12500000000E+03 0.  0.
         25    1    1    2    0    0 -0.21105984856E+02 -0.79944990911E+02  0.21084621361E+03  0.25868473083E+03  0.12500000000E+03 0.  0.
</event>
<event>
 4    0  0.2219362E-002  0.1687945E+03  0.7546771E-02  0.1179111E+00
         21   -1    0    0  502  501  0.00000000000E+00  0.00000000000E+00  0.12701649096E+04  0.12701649096E+04  0.00000000000E+00 0. -1.
         21   -1    0    0  501  502 -0.00000000000E+00 -0.00000000000E+00 -0.22431398811E+02  0.22431398811E+02  0.00000000000E+00 0. -1.
         25    1    1    2    0    0  0.46257661320E+02  0.10307070014E+03  0.66277024468E+03  0.68385140030E+03  0.12500000000E+03 0.  0.
         25    1    1    2    0    0 -0.46257661320E+02 -0.10307070014E+03  0.58496326614E+03  0.60874490815E+03  0.12500000000E+03 0.  0.
</event>
<event>
 4    0  0.2219362E-002  0.2378959E+03  0.7546771E-02  0.1121203E+00
         21   -1    0    0  502  501  0.00000000000E+00  0.00000000000E+00  0.12239369447E+04  0.12239369447E+04  0.00000000000E+00 0. -1.
         21   -1    0    0  501  502 -0.00000000000E+00 -0.00000000000E+00 -0.46239675706E+02  0.46239675706E+02  0.00000000000E+00 0. -1.
         25    1    1    2    0    0  0.15062313526E+03  0.10978717376E+03  0.37815437048E+03  0.43973432924E+03  0.12500000000E+03 0.  0.
         25    1    1    2    0    0 -0.15062313526E+03 -0.10978717376E+03  0.79954289855E+03  0.83044229120E+03  0.12500000000E+03 0.  0.
</event>
<event>
 4    0  0.2219362E-002  0.1883992E+03  0.7546771E-02  0.1159913E+00
         21   -1    0    0  502  501  0.00000000000E+00  0.00000000000E+00  0.14612929372E+03  0.14612929372E+03  0.00000000000E+00 0.  1.
         21   -1    0    0  501  502 -0.00000000000E+00 -0.00000000000E+00 -0.24289623368E+03  0.24289623368E+03  0.00000000000E+00 0.  1.
         25    1    1    2    0    0 -0.80134707456E+02  0.11583973899E+03 -0.53927891183E+02  0.19589189344E+03  0.12500000000E+03 0.  0.
         25    1    1    2    0    0  0.80134707456E+02 -0.11583973899E+03 -0.42839048775E+02  0.19313363396E+03  0.12500000000E+03 0.  0.
</event>
<event>
 4    0  0.2219362E-002  0.3218890E+03  0.7546771E-02  0.1074783E+00
         21   -1    0    0  502  501  0.00000000000E+00  0.00000000000E+00  0.22152881315E+04  0.22152881315E+04  0.00000000000E+00 0.  1.
         21   -1    0    0  501  502 -0.00000000000E+00 -0.00000000000E+00 -0.46771592689E+02  0.46771592689E+02  0.00000000000E+00 0.  1.
         25    1    1    2    0    0 -0.10343225238E+03 -0.20972284098E+03  0.17255075048E+04  0.17457614528E+04  0.12500000000E+03 0.  0.
         25    1    1    2    0    0  0.10343225238E+03  0.20972284098E+03  0.44300903405E+03  0.51629827146E+03  0.12500000000E+03 0.  0.
</event>
<event>
 4    0  0.2219362E-002  0.1938109E+03  0.7546771E-02  0.1155068E+00
         21   -1    0    0  502  501  0.00000000000E+00  0.00000000000E+00  0.25817194021E+03  0.25817194021E+03  0.00000000000E+00 0.  1.
         21   -1    0    0  501  502 -0.00000000000E+00 -0.00000000000E+00 -0.14549478078E+03  0.14549478078E+03  0.00000000000E+00 0.  1.
         25    1    1    2    0    0 -0.65416635649E+02  0.60394844642E+02  0.17960538350E+03  0.23624133267E+03  0.12500000000E+03 0.  0.
         25    1    1    2    0    0  0.65416635649E+02 -0.60394844642E+02 -0.66928224062E+02  0.16742538832E+03  0.12500000000E+03 0.  0.
</event>
<event>
 4    0  0.2219362E-002  0.1667529E+03  0.7546771E-02  0.1181277E+00
         21   -1    0    0  502  501  0.00000000000E+00  0.00000000000E+00  0.10909786441E+04  0.10909786441E+04  0.00000000000E+00 0.  1.
         21   -1    0    0  501  502 -0.00000000000E+00 -0.00000000000E+00 -0.25487695085E+02  0.25487695085E+02  0.00000000000E+00 0. -1.
         25    1    1    2    0    0 -0.84976825140E+02 -0.70395871329E+02  0.52534151706E+03  0.55116726051E+03  0.12500000000E+03 0.  0.
         25    1    1    2    0    0  0.84976825140E+02  0.70395871329E+02  0.54014943197E+03  0.56529907869E+03  0.12500000000E+03 0.  0.
</event>
<event>
 4    0  0.2219362E-002  0.1991108E+03  0.7546771E-02  0.1150491E+00
         21   -1    0    0  502  501  0.00000000000E+00  0.00000000000E+00  0.33382925499E+02  0.33382925499E+02  0.00000000000E+00 0.  1.
         21   -1    0    0  501  502 -0.00000000000E+00 -0.00000000000E+00 -0.11875861706E+04  0.11875861706E+04  0.00000000000E+00 0.  1.
         25    1    1    2    0    0 -0.39385403036E+02  0.12129474276E+03 -0.84713170058E+03  0.86574866025E+03  0.12500000000E+03 0.  0.
         25    1    1    2    0    0  0.39385403036E+02 -0.12129474276E+03 -0.30707154453E+03  0.35522043586E+03  0.12500000000E+03 0.  0.
</event>
<event>
 4    0  0.2219362E-002  0.1988981E+03  0.7546771E-02  0.1150672E+00
         21   -1    0    0  502  501  0.00000000000E+00  0.00000000000E+00  0.21547707541E+02  0.21547707541E+02  0.00000000000E+00 0. -1.
         21   -1    0    0  501  502 -0.00000000000E+00 -0.00000000000E+00 -0.18359477513E+04  0.18359477513E+04  0.00000000000E+00 0. -1.
         25    1    1    2    0    0  0.10357567275E+03  0.23183786227E+02 -0.38159880858E+03  0.41534089449E+03  0.12500000000E+03 0.  0.
         25    1    1    2    0    0 -0.10357567275E+03 -0.23183786227E+02 -0.14328012352E+04  0.14421545644E+04  0.12500000000E+03 0.  0.
</event>
<event>
 4    0  0.2219362E-002  0.3115709E+03  0.7546771E-02  0.1079595E+00
         21   -1    0    0  502  501  0.00000000000E+00  0.00000000000E+00  0.28481874349E+03  0.28481874349E+03  0.00000000000E+00 0. -1.
         21   -1    0    0  501  502 -0.00000000000E+00 -0.00000000000E+00 -0.34083584063E+03  0.34083584063E+03  0.00000000000E+00 0.  1.
         25    1    1    2    0    0 -0.19776064178E+03  0.18726583475E+03 -0.11363827711E+03  0.32049402854E+03  0.12500000000E+03 0.  0.
         25    1    1    2    0    0  0.19776064178E+03 -0.18726583475E+03  0.57621179979E+02  0.30516055558E+03  0.12500000000E+03 0.  0.
</event>
<event>
 4    0  0.2219362E-002  0.2215259E+03  0.7546771E-02  0.1132751E+00
         21   -1    0    0  502  501  0.00000000000E+00  0.00000000000E+00  0.18421732475E+03  0.18421732475E+03  0.00000000000E+00 0. -1.
         21   -1    0    0  501  502 -0.00000000000E+00 -0.00000000000E+00 -0.26639027441E+03  0.26639027441E+03  0.00000000000E+00 0. -1.
         25    1    1    2    0    0 -0.17731730188E+03 -0.19827304183E+02 -0.22473346096E+00  0.21785223901E+03  0.12500000000E+03 0.  0.
         25    1    1    2    0    0  0.17731730188E+03  0.19827304183E+02 -0.81948216197E+02  0.23275536014E+03  0.12500000000E+03 0.  0.
</event>
<event>
 4    0  0.2219362E-002  0.2134509E+03  0.7546771E-02  0.1138862E+00
         21   -1    0    0  502  501  0.00000000000E+00  0.00000000000E+00  0.42853367479E+02  0.42853367479E+02  0.00000000000E+00 0.  1.
         21   -1    0    0  501  502 -0.00000000000E+00 -0.00000000000E+00 -0.10631903508E+04  0.10631903508E+04  0.00000000000E+00 0.  1.
         25    1    1    2    0    0 -0.45546455337E+02 -0.16567357651E+03 -0.45744758166E+03  0.50438626420E+03  0.12500000000E+03 0.  0.
         25    1    1    2    0    0  0.45546455337E+02  0.16567357651E+03 -0.56288940170E+03  0.60165745411E+03  0.12500000000E+03 0.  0.
</event>
<event>
 4    0  0.2219362E-002  0.1936773E+03  0.7546771E-02  0.1155186E+00
         21   -1    0    0  502  501  0.00000000000E+00  0.00000000000E+00  0.20158825045E+03  0.20158825045E+03  0.00000000000E+00 0. -1.
         21   -1    0    0  501  502 -0.00000000000E+00 -0.00000000000E+00 -0.18607671634E+03  0.18607671634E+03  0.00000000000E+00 0. -1.
         25    1    1    2    0    0 -0.47834635601E+02 -0.79015594216E+02  0.12340903295E+03  0.19846008643E+03  0.12500000000E+03 0.  0.
         25    1    1    2    0    0  0.47834635601E+02  0.79015594216E+02 -0.10789749885E+03  0.18920488035E+03  0.12500000000E+03 0.  0.
</event>
<event>
 4    0  0.2219362E-002  0.1881935E+03  0.7546771E-02  0.1160101E+00
         21   -1    0    0  502  501  0.00000000000E+00  0.00000000000E+00  0.36349780530E+03  0.36349780530E+03  0.00000000000E+00 0.  1.
         21   -1    0    0  501  502 -0.00000000000E+00 -0.00000000000E+00 -0.97433324299E+02  0.97433324299E+02  0.00000000000E+00 0.  1.
         25    1    1    2    0    0  0.12314403986E+03 -0.39445531636E+02  0.20090089288E+03  0.26964156445E+03  0.12500000000E+03 0.  0.
         25    1    1    2    0    0 -0.12314403986E+03  0.39445531636E+02  0.65163588121E+02  0.19128956515E+03  0.12500000000E+03 0.  0.
</event>
<event>
 4    0  0.2219362E-002  0.1764656E+03  0.7546771E-02  0.1171268E+00
         21   -1    0    0  502  501  0.00000000000E+00  0.00000000000E+00  0.32526770928E+02  0.32526770928E+02  0.00000000000E+00 0.  1.
         21   -1    0    0  501  502 -0.00000000000E+00 -0.00000000000E+00 -0.95736862271E+03  0.95736862271E+03  0.00000000000E+00 0.  1.
         25    1    1    2    0    0  0.98558123178E+02  0.11264535748E+02 -0.67370349443E+03  0.69234528367E+03  0.12500000000E+03 0.  0.
         25    1    1    2    0    0 -0.98558123178E+02 -0.11264535748E+02 -0.25113835736E+03  0.29755010998E+03  0.12500000000E+03 0.  0.
</event>
<event>
 4    0  0.2219362E-002  0.2345754E+03  0.7546771E-02  0.1123460E+00
         21   -1    0    0  502  501  0.00000000000E+00  0.00000000000E+00  0.28715154172E+04  0.28715154172E+04  0.00000000000E+00 0. -1.
         21   -1    0    0  501  502 -0.00000000000E+00 -0.00000000000E+00 -0.19162565560E+02  0.19162565560E+02  0.00000000000E+00 0. -1.
         25    1    1    2    0    0 -0.95121033547E+02  0.12962729228E+03  0.21433869455E+04  0.21530406044E+04  0.12500000000E+03 0.  0.
         25    1    1    2    0    0  0.95121033547E+02 -0.12962729228E+03  0.70896590610E+03  0.73763737835E+03  0.12500000000E+03 0.  0.
</event>
<event>
 4    0  0.2219362E-002  0.2784831E+03  0.7546771E-02  0.1096520E+00
         21   -1    0    0  502  501  0.00000000000E+00  0.00000000000E+00  0.12658356537E+04  0.12658356537E+04  0.00000000000E+00 0. -1.
         21   -1    0    0  501  502 -0.00000000000E+00 -0.00000000000E+00 -0.61266132710E+02  0.61266132710E+02  0.00000000000E+00 0. -1.
         25    1    1    2    0    0 -0.18987464206E+03  0.13508995117E+03  0.39420545782E+03  0.47468370267E+03  0.12500000000E+03 0.  0.
         25    1    1    2    0    0  0.18987464206E+03 -0.13508995117E+03  0.81036406313E+03  0.85241808370E+03  0.12500000000E+03 0.  0.
</event>
<event>
 4    0  0.2219362E-002  0.2251370E+03  0.7546771E-02  0.1130110E+00
         21   -1    0    0  502  501  0.00000000000E+00  0.00000000000E+00  0.14937065580E+03  0.14937065580E+03  0.00000000000E+00 0. -1.
         21   -1    0    0  501  502 -0.00000000000E+00 -0.00000000000E+00 -0.33933476533E+03  0.33933476533E+03  0.00000000000E+00 0. -1.
         25    1    1    2    0    0  0.11187520823E+03 -0.14898101564E+03 -0.11529440392E+03  0.25224829992E+03  0.12500000000E+03 0.  0.
         25    1    1    2    0    0 -0.11187520823E+03  0.14898101564E+03 -0.74669705620E+02  0.23645712122E+03  0.12500000000E+03 0.  0.
</event>
<event>
 4    0  0.2219362E-002  0.2028436E+03  0.7546771E-02  0.1147362E+00
         21   -1    0    0  502  501  0.00000000000E+00  0.00000000000E+00  0.10463793361E+04  0.10463793361E+04  0.00000000000E+00 0. -1.
         21   -1    0    0  501  502 -0.00000000000E+00 -0.00000000000E+00 -0.39321787389E+02  0.39321787389E+02  0.00000000000E+00 0. -1.
         25    1    1    2    0    0 -0.66804580867E+02 -0.76131268107E+02  0.17291547911E+03  0.23618548839E+03  0.12500000000E+03 0.  0.
         25    1    1    2    0    0  0.66804580867E+02  0.76131268107E+02  0.83414206961E+03  0.84951563511E+03  0.12500000000E+03 0.  0.
</event>
<event>
 4    0  0.2219362E-002  0.5942351E+03  0.7546771E-02  0.9917439E-01
         21   -1    0    0  502  501  0.00000000000E+00  0.00000000000E+00  0.60421310919E+03  0.60421310919E+03  0.00000000000E+00 0. -1.
         21   -1    0    0  501  502 -0.00000000000E+00 -0.00000000000E+00 -0.58442180596E+03  0.58442180596E+03  0.00000000000E+00 0. -1.
         25    1    1    2    0    0 -0.47480359432E+03  0.32669656981E+03  0.82852421018E+02  0.59553222043E+03  0.12500000000E+03 0.  0.
         25    1    1    2    0    0  0.47480359432E+03 -0.32669656981E+03 -0.63061117790E+02  0.59310269472E+03  0.12500000000E+03 0.  0.
</event>
<event>
 4    0  0.2219362E-002  0.2794164E+03  0.7546771E-02  0.1096008E+00
         21   -1    0    0  502  501  0.00000000000E+00  0.00000000000E+00  0.18363989467E+04  0.18363989467E+04  0.00000000000E+00 0. -1.
         21   -1    0    0  501  502 -0.00000000000E+00 -0.00000000000E+00 -0.42514459548E+02  0.42514459548E+02  0.00000000000E+00 0. -1.
         25    1    1    2    0    0  0.20056494112E+03  0.13182733169E+03  0.66294185626E+03  0.71604584055E+03  0.12500000000E+03 0.  0.
         25    1    1    2    0    0 -0.20056494112E+03 -0.13182733169E+03  0.11309426309E+04  0.11628675657E+04  0.12500000000E+03 0.  0.
</event>
<event>
 4    0  0.2219362E-002  0.1509217E+03  0.7546771E-02  0.1199345E+00
         21   -1    0    0  502  501  0.00000000000E+00  0.00000000000E+00  0.28184224122E+03  0.28184224122E+03  0.00000000000E+00 0.  1.
         21   -1    0    0  501  502 -0.00000000000E+00 -0.00000000000E+00 -0.80816030528E+02  0.80816030528E+02  0.00000000000E+00 0.  1.
         25    1    1    2    0    0  0.50327490151E+02  0.23129285253E+02  0.17730015083E+03  0.22389319683E+03  0.12500000000E+03 0.  0.
         25    1    1    2    0    0 -0.50327490151E+02 -0.23129285253E+02  0.23726059863E+02  0.13876507492E+03  0.12500000000E+03 0.  0.
</event>
<event>
 4    0  0.2219362E-002  0.2990004E+03  0.7546771E-02  0.1085741E+00
         21   -1    0    0  502  501  0.00000000000E+00  0.00000000000E+00  0.40317926383E+03  0.40317926383E+03  0.00000000000E+00 0. -1.
         21   -1    0    0  501  502 -0.00000000000E+00 -0.00000000000E+00 -0.22174065920E+03  0.22174065920E+03  0.00000000000E+00 0.  1.
         25    1    1    2    0    0  0.23830131937E+03  0.13010567413E+03  0.98896536555E+02  0.31483413125E+03  0.12500000000E+03 0.  0.
         25    1    1    2    0    0 -0.23830131937E+03 -0.13010567413E+03  0.82542068078E+02  0.31008579177E+03  0.12500000000E+03 0.  0.
</event>
<event>
 4    0  0.2219362E-002  0.2110625E+03  0.7546771E-02  0.1140727E+00
         21   -1    0    0  502  501  0.00000000000E+00  0.00000000000E+00  0.18055411101E+03  0.18055411101E+03  0.00000000000E+00 0.  1.
         21   -1    0    0  501  502 -0.00000000000E+00 -0.00000000000E+00 -0.24672584646E+03  0.24672584646E+03  0.00000000000E+00 0.  1.
         25    1    1    2    0    0 -0.16534996442E+03 -0.38284279945E+02 -0.22180766043E+02  0.21195113400E+03  0.12500000000E+03 0.  0.
         25    1    1    2    0    0  0.16534996442E+03  0.38284279945E+02 -0.43990969411E+02  0.21532882346E+03  0.12500000000E+03 0.  0.
</event>
<event>
 4    0  0.2219362E-002  0.3679507E+03  0.7546771E-02  0.1055479E+00
         21   -1    0    0  502  501  0.00000000000E+00  0.00000000000E+00  0.26487276920E+03  0.26487276920E+03  0.00000000000E+00 0.  1.
         21   -1    0    0  501  502 -0.00000000000E+00 -0.00000000000E+00 -0.51114232696E+03  0.51114232696E+03  0.00000000000E+00 0.  1.
         25    1    1    2    0    0  0.23903102167E+03  0.17006929932E+03  0.70456919167E+02  0.32657093158E+03  0.12500000000E+03 0.  0.
         25    1    1    2    0    0 -0.23903102167E+03 -0.17006929932E+03 -0.31672647693E+03  0.44944416458E+03  0.12500000000E+03 0.  0.
</event>
<event>
 4    0  0.2219362E-002  0.2903380E+03  0.7546771E-02  0.1090173E+00
         21   -1    0    0  502  501  0.00000000000E+00  0.00000000000E+00  0.12696790956E+03  0.12696790956E+03  0.00000000000E+00 0. -1.
         21   -1    0    0  501  502 -0.00000000000E+00 -0.00000000000E+00 -0.66391701717E+03  0.66391701717E+03  0.00000000000E+00 0. -1.
         25    1    1    2    0    0  0.49198083553E+02 -0.98724336808E+02 -0.59223204085E+03  0.61524851590E+03  0.12500000000E+03 0.  0.
         25    1    1    2    0    0 -0.49198083553E+02  0.98724336808E+02  0.55282933245E+02  0.17563641084E+03  0.12500000000E+03 0.  0.
</event>
<event>
 4    0  0.2219362E-002  0.1670727E+03  0.7546771E-02  0.1180935E+00
         21   -1    0    0  502  501  0.00000000000E+00  0.00000000000E+00  0.39563963857E+02  0.39563963857E+02  0.00000000000E+00 0.  1.
         21   -1    0    0  501  502 -0.00000000000E+00 -0.00000000000E+00 -0.70552338178E+03  0.70552338178E+03  0.00000000000E+00 0.  1.
         25    1    1    2    0    0 -0.24345086744E+02  0.30906558351E+02 -0.56407009399E+03  0.57909236701E+03  0.12500000000E+03 0.  0.
         25    1    1    2    0    0  0.24345086744E+02 -0.30906558351E+02 -0.10188932393E+03  0.16599497863E+03  0.12500000000E+03 0.  0.
</event>
<event>
 4    0  0.2219362E-002  0.2441535E+03  0.7546771E-02  0.1117056E+00
         21   -1    0    0  502  501  0.00000000000E+00  0.00000000000E+00  0.37195418080E+03  0.37195418080E+03  0.00000000000E+00 0. -1.
         21   -1    0    0  501  502 -0.00000000000E+00 -0.00000000000E+00 -0.16026412263E+03  0.16026412263E+03  0.00000000000E+00 0. -1.
         25    1    1    2    0    0 -0.18111972290E+03  0.27016929740E+02 -0.55816518200E+01  0.22178914165E+03  0.12500000000E+03 0.  0.
         25    1    1    2    0    0  0.18111972290E+03 -0.27016929740E+02  0.21727170999E+03  0.31042916178E+03  0.12500000000E+03 0.  0.
</event>
<event>
 4    0  0.2219362E-002  0.1929616E+03  0.7546771E-02  0.1155817E+00
         21   -1    0    0  502  501  0.00000000000E+00  0.00000000000E+00  0.67135325625E+03  0.67135325625E+03  0.00000000000E+00 0. -1.
         21   -1    0    0  501  502 -0.00000000000E+00 -0.00000000000E+00 -0.55461398443E+02  0.55461398443E+02  0.00000000000E+00 0. -1.
         25    1    1    2    0    0  0.44018371244E+02  0.73422239510E+02  0.82885987027E+02  0.17269490180E+03  0.12500000000E+03 0.  0.
         25    1    1    2    0    0 -0.44018371244E+02 -0.73422239510E+02  0.53300587078E+03  0.55411975289E+03  0.12500000000E+03 0.  0.
</event>
<event>
 4    0  0.2219362E-002  0.1602884E+03  0.7546771E-02  0.1188372E+00
         21   -1    0    0  502  501  0.00000000000E+00  0.00000000000E+00  0.28595243845E+03  0.28595243845E+03  0.00000000000E+00 0. -1.
         21   -1    0    0  501  502 -0.00000000000E+00 -0.00000000000E+00 -0.89848416053E+02  0.89848416053E+02  0.00000000000E+00 0. -1.
         25    1    1    2    0    0  0.95365531415E+02  0.30367201702E+02  0.10639258451E+03  0.19225278557E+03  0.12500000000E+03 0.  0.
         25    1    1    2    0    0 -0.95365531415E+02 -0.30367201702E+02  0.89711437892E+02  0.18354806894E+03  0.12500000000E+03 0.  0.
</event>
<event>
 4    0  0.2219362E-002  0.2268514E+03  0.7546771E-02  0.1128876E+00
         21   -1    0    0  502  501  0.00000000000E+00  0.00000000000E+00  0.69062760814E+02  0.69062760814E+02  0.00000000000E+00 0. -1.
         21   -1    0    0  501  502 -0.00000000000E+00 -0.00000000000E+00 -0.74514222056E+03  0.74514222056E+03  0.00000000000E+00 0. -1.
         25    1    1    2    0    0  0.36857895873E+02 -0.17815400644E+03 -0.24411585185E+03  0.32911229637E+03  0.12500000000E+03 0.  0.
         25    1    1    2    0    0 -0.36857895873E+02  0.17815400644E+03 -0.43196360789E+03  0.48509268500E+03  0.12500000000E+03 0.  0.
</event>
<event>
 4    0  0.2219362E-002  0.2233024E+03  0.7546771E-02  0.1131445E+00
         21   -1    0    0  502  501  0.00000000000E+00  0.00000000000E+00  0.20755218386E+03  0.20755218386E+03  0.00000000000E+00 0.  1.
         21   -1    0    0  501  502 -0.00000000000E+00 -0.00000000000E+00 -0.24024791333E+03  0.24024791333E+03  0.00000000000E+00 0.  1.
         25    1    1    2    0    0  0.16759060096E+03  0.75535511416E+02 -0.37541036172E+02  0.22544744933E+03  0.12500000000E+03 0.  0.
         25    1    1    2    0    0 -0.16759060096E+03 -0.75535511416E+02  0.48453067011E+01  0.22235264786E+03  0.12500000000E+03 0.  0.
</event>
<event>
 4    0  0.2219362E-002  0.1914079E+03  0.7546771E-02  0.1157198E+00
         21   -1    0    0  502  501  0.00000000000E+00  0.00000000000E+00  0.15799404097E+04  0.15799404097E+04  0.00000000000E+00 0.  1.
         21   -1    0    0  501  502 -0.00000000000E+00 -0.00000000000E+00 -0.23188841613E+02  0.23188841613E+02  0.00000000000E+00 0.  1.
         25    1    1    2    0    0 -0.84007392209E+02  0.98031062601E+02  0.10544058548E+04  0.10696092922E+04  0.12500000000E+03 0.  0.
         25    1    1    2    0    0  0.84007392209E+02 -0.98031062601E+02  0.50234571321E+03  0.53351995910E+03  0.12500000000E+03 0.  0.
</event>
<event>
 4    0  0.2219362E-002  0.1880803E+03  0.7546771E-02  0.1160204E+00
         21   -1    0    0  502  501  0.00000000000E+00  0.00000000000E+00  0.53403536907E+02  0.53403536907E+02  0.00000000000E+00 0. -1.
         21   -1    0    0  501  502 -0.00000000000E+00 -0.00000000000E+00 -0.66239398504E+03  0.66239398504E+03  0.00000000000E+00 0. -1.
         25    1    1    2    0    0 -0.10170391058E+03  0.34951771522E+02 -0.13234945562E+03  0.21143956622E+03  0.12500000000E+03 0.  0.
         25    1    1    2    0    0  0.10170391058E+03 -0.34951771522E+02 -0.47664099252E+03  0.50435795573E+03  0.12500000000E+03 0.  0.
</event>
<event>
 4    0  0.2219362E-002  0.3167873E+03  0.7546771E-02  0.1077137E+00
         21   -1    0    0  502  501  0.00000000000E+00  0.00000000000E+00  0.11880993800E+04  0.11880993800E+04  0.00000000000E+00 0. -1.
         21   -1    0    0  501  502 -0.00000000000E+00 -0.00000000000E+00 -0.84466142252E+02  0.84466142252E+02  0.00000000000E+00 0. -1.
         25    1    1    2    0    0 -0.85028292558E+02  0.24841557933E+03  0.29943333367E+03  0.41740320063E+03  0.12500000000E+03 0.  0.
         25    1    1    2    0    0  0.85028292558E+02 -0.24841557933E+03  0.80419990411E+03  0.85516232164E+03  0.12500000000E+03 0.  0.
</event>
<event>
 4    0  0.2219362E-002  0.1775455E+03  0.7546771E-02  0.1170200E+00
         21   -1    0    0  502  501  0.00000000000E+00  0.00000000000E+00  0.50363285201E+02  0.50363285201E+02  0.00000000000E+00 0.  1.
         21   -1    0    0  501  502 -0.00000000000E+00 -0.00000000000E+00 -0.62590048729E+03  0.62590048729E+03  0.00000000000E+00 0.  1.
         25    1    1    2    0    0 -0.90469261336E+02  0.87483542966E+02 -0.27309703012E+03  0.32564558249E+03  0.12500000000E+03 0.  0.
         25    1    1    2    0    0  0.90469261336E+02 -0.87483542966E+02 -0.30244017197E+03  0.35061818999E+03  0.12500000000E+03 0.  0.
</event>
<event>
 4    0  0.2219362E-002  0.2781208E+03  0.7546771E-02  0.1096720E+00
         21   -1    0    0  502  501  0.00000000000E+00  0.00000000000E+00  0.42325178511E+03  0.42325178511E+03  0.00000000000E+00 0. -1.
         21   -1    0    0  501  502 -0.00000000000E+00 -0.00000000000E+00 -0.18275452604E+03  0.18275452604E+03  0.00000000000E+00 0. -1.
         25    1    1    2    0    0  0.13579525989E+03  0.52003932424E+02 -0.99222444727E+02  0.21590473625E+03  0.12500000000E+03 0.  0.
         25    1    1    2    0    0 -0.13579525989E+03 -0.52003932424E+02  0.33971970379E+03  0.39010157490E+03  0.12500000000E+03 0.  0.
</event>
<event>
 4    0  0.2219362E-002  0.2466531E+03  0.7546771E-02  0.1115438E+00
         21   -1    0    0  502  501  0.00000000000E+00  0.00000000000E+00  0.41619981499E+03  0.41619981499E+03  0.00000000000E+00 0. -1.
         21   -1    0    0  501  502 -0.00000000000E+00 -0.00000000000E+00 -0.14617441147E+03  0.14617441147E+03  0.00000000000E+00 0. -1.
         25    1    1    2    0    0  0.15476557538E+03 -0.54745028129E+02  0.28907598663E+03  0.35516098811E+03  0.12500000000E+03 0.  0.
         25    1    1    2    0    0 -0.15476557538E+03  0.54745028129E+02 -0.19050583117E+02  0.20721323834E+03  0.12500000000E+03 0.  0.
</event>
<event>
 4    0  0.2219362E-002  0.2190393E+03  0.7546771E-02  0.1134601E+00
         21   -1    0    0  502  501  0.00000000000E+00  0.00000000000E+00  0.11166290294E+04  0.11166290294E+04  0.00000000000E+00 0.  1.
         21   -1    0    0  501  502 -0.00000000000E+00 -0.00000000000E+00 -0.42967005715E+02  0.42967005715E+02  0.00000000000E+00 0.  1.
         25    1    1    2    0    0 -0.74694214468E+02  0.97006974853E+02  0.88562978496E+03  0.90274841171E+03  0.12500000000E+03 0.  0.
         25    1    1    2    0    0  0.74694214468E+02 -0.97006974853E+02  0.18803223871E+03  0.25684762339E+03  0.12500000000E+03 0.  0.
</event>
<event>
 4    0  0.2219362E-002  0.2440718E+03  0.7546771E-02  0.1117110E+00
         21   -1    0    0  502  501  0.00000000000E+00  0.00000000000E+00  0.33058249961E+03  0.33058249961E+03  0.00000000000E+00 0.  1.
         21   -1    0    0  501  502 -0.00000000000E+00 -0.00000000000E+00 -0.18020019395E+03  0.18020019395E+03  0.00000000000E+00 0.  1.
         25    1    1    2    0    0 -0.17639528671E+03  0.53923805773E+01  0.19358297135E+03  0.29024772478E+03  0.12500000000E+03 0.  0.
         25    1    1    2    0    0  0.17639528671E+03 -0.53923805773E+01 -0.43200665690E+02  0.22053496879E+03  0.12500000000E+03 0.  0.
</event>
<event>
 4    0  0.2219362E-002  0.1853800E+03  0.7546771E-02  0.1162696E+00
         21   -1    0    0  502  501  0.00000000000E+00  0.00000000000E+00  0.22137411022E+03  0.22137411022E+03  0.00000000000E+00 0. -1.
         21   -1    0    0  501  502 -0.00000000000E+00 -0.00000000000E+00 -0.15523826192E+03  0.15523826192E+03  0.00000000000E+00 0. -1.
         25    1    1    2    0    0  0.12009829295E+03 -0.77302734763E+00  0.99805341889E+02  0.20002575787E+03  0.12500000000E+03 0.  0.
         25    1    1    2    0    0 -0.12009829295E+03  0.77302734763E+00 -0.33669493593E+02  0.17658661427E+03  0.12500000000E+03 0.  0.
</event>
<event>
 4    0  0.2219362E-002  0.1560992E+03  0.7546771E-02  0.1193172E+00
         21   -1    0    0  502  501  0.00000000000E+00  0.00000000000E+00  0.95801675990E+02  0.95801675990E+02  0.00000000000E+00 0.  1.
         21   -1    0    0  501  502 -0.00000000000E+00 -0.00000000000E+00 -0.25434808787E+03  0.25434808787E+03  0.00000000000E+00 0.  1.
         25    1    1    2    0    0  0.84161452996E+02  0.26367181496E+01 -0.33689349039E+02  0.15443469394E+03  0.12500000000E+03 0.  0.
         25    1    1    2    0    0 -0.84161452996E+02 -0.26367181496E+01 -0.12485706284E+03  0.19571506992E+03  0.12500000000E+03 0.  0.
</event>
<event>
 4    0  0.2219362E-002  0.2785354E+03  0.7546771E-02  0.1096492E+00
         21   -1    0    0  502  501  0.00000000000E+00  0.00000000000E+00  0.43535604749E+03  0.43535604749E+03  0.00000000000E+00 0.  1.
         21   -1    0    0  501  502 -0.00000000000E+00 -0.00000000000E+00 -0.17820343698E+03  0.17820343698E+03  0.00000000000E+00 0.  1.
         25    1    1    2    0    0 -0.73462016358E+02  0.67222839472E+02  0.37983476499E+03  0.41208618842E+03  0.12500000000E+03 0.  0.
         25    1    1    2    0    0  0.73462016358E+02 -0.67222839472E+02 -0.12268215447E+03  0.20147329605E+03  0.12500000000E+03 0.  0.
</event>
<event>
 4    0  0.2219362E-002  0.2008889E+03  0.7546771E-02  0.1148991E+00
         21   -1    0    0  502  501  0.00000000000E+00  0.00000000000E+00  0.11039914421E+04  0.11039914421E+04  0.00000000000E+00 0.  1.
         21   -1    0    0  501  502 -0.00000000000E+00 -0.00000000000E+00 -0.36554947473E+02  0.36554947473E+02  0.00000000000E+00 0.  1.
         25    1    1    2    0    0  0.15405041804E+03  0.87267367903E+01  0.44744352945E+03  0.48952875225E+03  0.12500000000E+03 0.  0.
         25    1    1    2    0    0 -0.15405041804E+03 -0.87267367903E+01  0.61999296516E+03  0.65101763730E+03  0.12500000000E+03 0.  0.
</event>
<event>
 4    0  0.2219362E-002  0.1622765E+03  0.7546771E-02  0.1186150E+00
         21   -1    0    0  502  501  0.00000000000E+00  0.00000000000E+00  0.77214865109E+02  0.77214865109E+02  0.00000000000E+00 0. -1.
         21   -1    0    0  501  502 -0.00000000000E+00 -0.00000000000E+00 -0.34104413921E+03  0.34104413921E+03  0.00000000000E+00 0. -1.
         25    1    1    2    0    0 -0.93629505955E+02  0.43907028584E+02 -0.12703011188E+03  0.20604844301E+03  0.12500000000E+03 0.  0.
         25    1    1    2    0    0  0.93629505955E+02 -0.43907028584E+02 -0.13679916222E+03  0.21221056130E+03  0.12500000000E+03 0.  0.
</event>
<event>
 4    0  0.2219362E-002  0.1807693E+03  0.7546771E-02  0.1167061E+00
         21   -1    0    0  502  501  0.00000000000E+00  0.00000000000E+00  0.79635214965E+02  0.79635214965E+02  0.00000000000E+00 0. -1.
         21   -1    0    0  501  502 -0.00000000000E+00 -0.00000000000E+00 -0.41034032764E+03  0.41034032764E+03  0.00000000000E+00 0. -1.
         25    1    1    2    0    0 -0.56182391795E+02 -0.69724182829E+01 -0.58730593191E+01  0.13734834761E+03  0.12500000000E+03 0.  0.
         25    1    1    2    0    0  0.56182391795E+02  0.69724182829E+01 -0.32483205335E+03  0.35262719499E+03  0.12500000000E+03 0.  0.
</event>
<event>
 4    0  0.2219362E-002  0.1798286E+03  0.7546771E-02  0.1167969E+00
         21   -1    0    0  502  501  0.00000000000E+00  0.00000000000E+00  0.33101636200E+02  0.33101636200E+02  0.00000000000E+00 0.  1.
         21   -1    0    0  501  502 -0.00000000000E+00 -0.00000000000E+00 -0.97694076965E+03  0.97694076965E+03  0.00000000000E+00 0.  1.
         25    1    1    2    0    0  0.63468011542E+02 -0.53616462077E+02 -0.19375957597E+03  0.24509322058E+03  0.12500000000E+03 0.  0.
         25    1    1    2    0    0 -0.63468011542E+02  0.53616462077E+02 -0.75007955748E+03  0.76494918527E+03  0.12500000000E+03 0.  0.
</event>
<event>
 4    0  0.2219362E-002  0.2374382E+03  0.7546771E-02  0.1121511E+00
         21   -1    0    0  502  501  0.00000000000E+00  0.00000000000E+00  0.14744846729E+03  0.14744846729E+03  0.00000000000E+00 0.  1.
         21   -1    0    0  501  502 -0.00000000000E+00 -0.00000000000E+00 -0.38234978124E+03  0.38234978124E+03  0.00000000000E+00 0.  1.
         25    1    1    2    0    0 -0.15305858584E+03 -0.10916821588E+03 -0.19948931746E+03  0.30127332746E+03  0.12500000000E+03 0.  0.
         25    1    1    2    0    0  0.15305858584E+03  0.10916821588E+03 -0.35411996484E+02  0.22852492107E+03  0.12500000000E+03 0.  0.
</event>
<event>
 4    0  0.2219362E-002  0.2939053E+03  0.7546771E-02  0.1088328E+00
         21   -1    0    0  502  501  0.00000000000E+00  0.00000000000E+00  0.21469576916E+03  0.21469576916E+03  0.00000000000E+00 0.  1.
         21   -1    0    0  501  502 -0.00000000000E+00 -0.00000000000E+00 -0.40233841082E+03  0.40233841082E+03  0.00000000000E+00 0.  1.
         25    1    1    2    0    0 -0.14183745246E+03  0.22357723915E+03 -0.67044105870E+02  0.30037402837E+03  0.12500000000E+03 0.  0.
         25    1    1    2    0    0  0.14183745246E+03 -0.22357723915E+03 -0.12059853579E+03  0.31666015162E+03  0.12500000000E+03 0.  0.
</event>
<event>
 4    0  0.2219362E-002  0.2118983E+03  0.7546771E-02  0.1140071E+00
         21   -1    0    0  502  501  0.00000000000E+00  0.00000000000E+00  0.22458902441E+03  0.22458902441E+03  0.00000000000E+00 0. -1.
         21   -1    0    0  501  502 -0.00000000000E+00 -0.00000000000E+00 -0.19992469519E+03  0.19992469519E+03  0.00000000000E+00 0. -1.
         25    1    1    2    0    0 -0.91887599017E+02 -0.63224858771E+02  0.14230216303E+03  0.21980814185E+03  0.12500000000E+03 0.  0.
         25    1    1    2    0    0  0.91887599017E+02  0.63224858771E+02 -0.11763783381E+03  0.20470557776E+03  0.12500000000E+03 0.  0.
</event>
<event>
 4    0  0.2219362E-002  0.1672648E+03  0.7546771E-02  0.1180731E+00
         21   -1    0    0  502  501  0.00000000000E+00  0.00000000000E+00  0.28201912288E+03  0.28201912288E+03  0.00000000000E+00 0. -1.
         21   -1    0    0  501  502 -0.00000000000E+00 -0.00000000000E+00 -0.99204263566E+02  0.99204263566E+02  0.00000000000E+00 0. -1.
         25    1    1    2    0    0 -0.88440046638E+02  0.51966699626E+02  0.14016124028E+03  0.21399147880E+03  0.12500000000E+03 0.  0.
         25    1    1    2    0    0  0.88440046638E+02 -0.51966699626E+02  0.42653619028E+02  0.16723190765E+03  0.12500000000E+03 0.  0.
</event>
<event>
 4    0  0.2219362E-002  0.1921697E+03  0.7546771E-02  0.1156519E+00
         21   -1    0    0  502  501  0.00000000000E+00  0.00000000000E+00  0.68194248887E+02  0.68194248887E+02  0.00000000000E+00 0.  1.
         21   -1    0    0  501  502 -0.00000000000E+00 -0.00000000000E+00 -0.54152968101E+03  0.54152968101E+03  0.00000000000E+00 0.  1.
         25    1    1    2    0    0  0.64441679080E+02  0.31619909872E+02 -0.43828457022E+03  0.46137935931E+03  0.12500000000E+03 0.  0.
         25    1    1    2    0    0 -0.64441679080E+02 -0.31619909872E+02 -0.35050861904E+02  0.14834457059E+03  0.12500000000E+03 0.  0.
</event>
<event>
 4    0  0.2219362E-002  0.2046961E+03  0.7546771E-02  0.1145836E+00
         21   -1    0    0  502  501  0.00000000000E+00  0.00000000000E+00  0.14402573082E+03  0.14402573082E+03  0.00000000000E+00 0.  1.
         21   -1    0    0  501  502 -0.00000000000E+00 -0.00000000000E+00 -0.29092380620E+03  0.29092380620E+03  0.00000000000E+00 0.  1.
         25    1    1    2    0    0 -0.13865235474E+03  0.32707921003E+02 -0.15561547618E+03  0.24522532495E+03  0.12500000000E+03 0.  0.
         25    1    1    2    0    0  0.13865235474E+03 -0.32707921003E+02  0.87174007901E+01  0.18972421207E+03  0.12500000000E+03 0.  0.
</event>
<event>
 4    0  0.2219362E-002  0.2733571E+03  0.7546771E-02  0.1099373E+00
         21   -1    0    0  502  501  0.00000000000E+00  0.00000000000E+00  0.10239016273E+04  0.10239016273E+04  0.00000000000E+00 0.  1.
         21   -1    0    0  501  502 -0.00000000000E+00 -0.00000000000E+00 -0.72979791502E+02  0.72979791502E+02  0.00000000000E+00 0.  1.
         25    1    1    2    0    0 -0.16806226205E+03 -0.14410529902E+03  0.27394984576E+03  0.37374426969E+03  0.12500000000E+03 0.  0.
         25    1    1    2    0    0  0.16806226205E+03  0.14410529902E+03  0.67697199004E+03  0.72313714912E+03  0.12500000000E+03 0.  0.
</event>
<event>
 4    0  0.2219362E-002  0.2634060E+03  0.7546771E-02  0.1105114E+00
         21   -1    0    0  502  501  0.00000000000E+00  0.00000000000E+00  0.95857080721E+03  0.95857080721E+03  0.00000000000E+00 0. -1.
         21   -1    0    0  501  502 -0.00000000000E+00 -0.00000000000E+00 -0.72381397508E+02  0.72381397508E+02  0.00000000000E+00 0. -1.
         25    1    1    2    0    0 -0.17861148556E+03  0.14185518660E+03  0.36163376962E+03  0.44545363403E+03  0.12500000000E+03 0.  0.
         25    1    1    2    0    0  0.17861148556E+03 -0.14185518660E+03  0.52455564008E+03  0.58549857069E+03  0.12500000000E+03 0.  0.
</event>
<event>
 4    0  0.2219362E-002  0.2469854E+03  0.7546771E-02  0.1115225E+00
         21   -1    0    0  502  501  0.00000000000E+00  0.00000000000E+00  0.49719275429E+03  0.49719275429E+03  0.00000000000E+00 0.  1.
         21   -1    0    0  501  502 -0.00000000000E+00 -0.00000000000E+00 -0.12269245923E+03  0.12269245923E+03  0.00000000000E+00 0.  1.
         25    1    1    2    0    0 -0.77286003424E+02  0.19835862594E+03  0.19676847450E+03  0.31569305245E+03  0.12500000000E+03 0.  0.
         25    1    1    2    0    0  0.77286003424E+02 -0.19835862594E+03  0.17773182056E+03  0.30419216106E+03  0.12500000000E+03 0.  0.
</event>
<event>
 4    0  0.2219362E-002  0.1687105E+03  0.7546771E-02  0.1179199E+00
         21   -1    0    0  502  501  0.00000000000E+00  0.00000000000E+00  0.37418264330E+03  0.37418264330E+03  0.00000000000E+00 0. -1.
         21   -1    0    0  501  502 -0.00000000000E+00 -0.00000000000E+00 -0.76067740856E+02  0.76067740856E+02  0.00000000000E+00 0. -1.
         25    1    1    2    0    0 -0.10604418521E+03 -0.36334844917E+02  0.17109053816E+03  0.23971350070E+03  0.12500000000E+03 0.  0.
         25    1    1    2    0    0  0.10604418521E+03  0.36334844917E+02  0.12702436429E+03  0.21053688345E+03  0.12500000000E+03 0.  0.
</event>
<event>
 4    0  0.2219362E-002  0.2028675E+03  0.7546771E-02  0.1147342E+00
         21   -1    0    0  502  501  0.00000000000E+00  0.00000000000E+00  0.20803305206E+03  0.20803305206E+03  0.00000000000E+00 0.  1.
         21   -1    0    0  501  502 -0.00000000000E+00 -0.00000000000E+00 -0.19783021897E+03  0.19783021897E+03  0.00000000000E+00 0.  1.
         25    1    1    2    0    0  0.37264142970E+02  0.15254561710E+03  0.34630955144E+02  0.20367396668E+03  0.12500000000E+03 0.  0.
         25    1    1    2    0    0 -0.37264142970E+02 -0.15254561710E+03 -0.24428122059E+02  0.20218930435E+03  0.12500000000E+03 0.  0.
</event>
<event>
 4    0  0.2219362E-002  0.1766018E+03  0.7546771E-02  0.1171133E+00
         21   -1    0    0  502  501  0.00000000000E+00  0.00000000000E+00  0.71316075433E+02  0.71316075433E+02  0.00000000000E+00 0.  1.
         21   -1    0    0  501  502 -0.00000000000E+00 -0.00000000000E+00 -0.43732350257E+03  0.43732350257E+03  0.00000000000E+00 0.  1.
         25    1    1    2    0    0  0.36198685717E+01 -0.42011104219E+02 -0.13924224524E+02  0.13265338426E+03  0.12500000000E+03 0.  0.
         25    1    1    2    0    0 -0.36198685717E+01  0.42011104219E+02 -0.35208320261E+03  0.37598619374E+03  0.12500000000E+03 0.  0.
</event>
<event>
 4    0  0.2219362E-002  0.2696802E+03  0.7546771E-02  0.1101463E+00
         21   -1    0    0  502  501  0.00000000000E+00  0.00000000000E+00  0.71991937609E+03  0.71991937609E+03  0.00000000000E+00 0.  1.
         21   -1    0    0  501  502 -0.00000000000E+00 -0.00000000000E+00 -0.10102157696E+03  0.10102157696E+03  0.00000000000E+00 0.  1.
         25    1    1    2    0    0 -0.78616702681E+02  0.21101770262E+03  0.43115059142E+03  0.50221996101E+03  0.12500000000E+03 0.  0.
         25    1    1    2    0    0  0.78616702681E+02 -0.21101770262E+03  0.18774720772E+03  0.31872099204E+03  0.12500000000E+03 0.  0.
</event>
<event>
 4    0  0.2219362E-002  0.2577936E+03  0.7546771E-02  0.1108476E+00
         21   -1    0    0  502  501  0.00000000000E+00  0.00000000000E+00  0.16107431468E+03  0.16107431468E+03  0.00000000000E+00 0. -1.
         21   -1    0    0  501  502 -0.00000000000E+00 -0.00000000000E+00 -0.41258921105E+03  0.41258921105E+03  0.00000000000E+00 0. -1.
         25    1    1    2    0    0  0.93586041749E+02  0.12577741376E+03  0.54525527342E+02  0.20778916756E+03  0.12500000000E+03 0.  0.
         25    1    1    2    0    0 -0.93586041749E+02 -0.12577741376E+03 -0.30604042371E+03  0.36587435817E+03  0.12500000000E+03 0.  0.
</event>
<event>
 4    0  0.2219362E-002  0.3757135E+03  0.7546771E-02  0.1052530E+00
         21   -1    0    0  502  501  0.00000000000E+00  0.00000000000E+00  0.35485869917E+03  0.35485869917E+03  0.00000000000E+00 0.  1.
         21   -1    0    0  501  502 -0.00000000000E+00 -0.00000000000E+00 -0.39779393797E+03  0.39779393797E+03  0.00000000000E+00 0.  1.
         25    1    1    2    0    0 -0.50880527380E+02  0.19017685380E+03  0.27359659726E+03  0.35949431403E+03  0.12500000000E+03 0.  0.
         25    1    1    2    0    0  0.50880527380E+02 -0.19017685380E+03 -0.31653183606E+03  0.39315832311E+03  0.12500000000E+03 0.  0.
</event>
<event>
 4    0  0.2219362E-002  0.2351909E+03  0.7546771E-02  0.1123039E+00
         21   -1    0    0  502  501  0.00000000000E+00  0.00000000000E+00  0.10741366693E+03  0.10741366693E+03  0.00000000000E+00 0.  1.
         21   -1    0    0  501  502 -0.00000000000E+00 -0.00000000000E+00 -0.51496952363E+03  0.51496952363E+03  0.00000000000E+00 0.  1.
         25    1    1    2    0    0 -0.53088213926E+02  0.16291518932E+03 -0.33825817075E+03  0.39925343762E+03  0.12500000000E+03 0.  0.
         25    1    1    2    0    0  0.53088213926E+02 -0.16291518932E+03 -0.69297685957E+02  0.22312975294E+03  0.12500000000E+03 0.  0.
</event>
<event>
 4    0  0.2219362E-002  0.2380417E+03  0.7546771E-02  0.1121104E+00
         21   -1    0    0  502  501  0.00000000000E+00  0.00000000000E+00  0.72551167504E+02  0.72551167504E+02  0.00000000000E+00 0. -1.
         21   -1    0    0  501  502 -0.00000000000E+00 -0.00000000000E+00 -0.78101882659E+03  0.78101882659E+03  0.00000000000E+00 0. -1.
         25    1    1    2    0    0 -0.16433758859E+03 -0.10754275652E+03 -0.26519072576E+03  0.35287874480E+03  0.12500000000E+03 0.  0.
         25    1    1    2    0    0  0.16433758859E+03  0.10754275652E+03 -0.44327693333E+03  0.50069124930E+03  0.12500000000E+03 0.  0.
</event>
<event>
 4    0  0.2219362E-002  0.2084830E+03  0.7546771E-02  0.1142773E+00
         21   -1    0    0  502  501  0.00000000000E+00  0.00000000000E+00  0.24696455672E+03  0.24696455672E+03  0.00000000000E+00 0.  1.
         21   -1    0    0  501  502 -0.00000000000E+00 -0.00000000000E+00 -0.17599750031E+03  0.17599750031E+03  0.00000000000E+00 0.  1.
         25    1    1    2    0    0 -0.88444177744E+02  0.71775364878E+02  0.15916337037E+03  0.23223275835E+03  0.12500000000E+03 0.  0.
         25    1    1    2    0    0  0.88444177744E+02 -0.71775364878E+02 -0.88196313957E+02  0.19072929868E+03  0.12500000000E+03 0.  0.
</event>
<event>
 4    0  0.2219362E-002  0.3920101E+03  0.7546771E-02  0.1046582E+00
         21   -1    0    0  502  501  0.00000000000E+00  0.00000000000E+00  0.69706284823E+03  0.69706284823E+03  0.00000000000E+00 0. -1.
         21   -1    0    0  501  502 -0.00000000000E+00 -0.00000000000E+00 -0.22045632048E+03  0.22045632048E+03  0.00000000000E+00 0. -1.
         25    1    1    2    0    0 -0.26789802118E+03 -0.14879105186E+03 -0.75625156314E+01  0.33104428482E+03  0.12500000000E+03 0.  0.
         25    1    1    2    0    0  0.26789802118E+03  0.14879105186E+03  0.48416904339E+03  0.58647488390E+03  0.12500000000E+03 0.  0.
</event>
<event>
 4    0  0.2219362E-002  0.2836479E+03  0.7546771E-02  0.1093713E+00
         21   -1    0    0  502  501  0.00000000000E+00  0.00000000000E+00  0.67104008489E+03  0.67104008489E+03  0.00000000000E+00 0. -1.
         21   -1    0    0  501  502 -0.00000000000E+00 -0.00000000000E+00 -0.11989764407E+03  0.11989764407E+03  0.00000000000E+00 0. -1.
         25    1    1    2    0    0 -0.49217611833E+02 -0.18201136813E+03  0.51414506466E+03  0.56171225637E+03  0.12500000000E+03 0.  0.
         25    1    1    2    0    0  0.49217611833E+02  0.18201136813E+03  0.36997376160E+02  0.22922547259E+03  0.12500000000E+03 0.  0.
</event>
<event>
 4    0  0.2219362E-002  0.1941674E+03  0.7546771E-02  0.1154755E+00
         21   -1    0    0  502  501  0.00000000000E+00  0.00000000000E+00  0.17272163246E+03  0.17272163246E+03  0.00000000000E+00 0.  1.
         21   -1    0    0  501  502 -0.00000000000E+00 -0.00000000000E+00 -0.21827595969E+03  0.21827595969E+03  0.00000000000E+00 0.  1.
         25    1    1    2    0    0 -0.13280016309E+03  0.11621969012E+01  0.44303587573E+02  0.18768335539E+03  0.12500000000E+03 0.  0.
         25    1    1    2    0    0  0.13280016309E+03 -0.11621969012E+01 -0.89857914807E+02  0.20331423676E+03  0.12500000000E+03 0.  0.
</event>
<event>
 4    0  0.2219362E-002  0.2081029E+03  0.7546771E-02  0.1143077E+00
         21   -1    0    0  502  501  0.00000000000E+00  0.00000000000E+00  0.31619336781E+03  0.31619336781E+03  0.00000000000E+00 0. -1.
         21   -1    0    0  501  502 -0.00000000000E+00 -0.00000000000E+00 -0.13696307317E+03  0.13696307317E+03  0.00000000000E+00 0. -1.
         25    1    1    2    0    0  0.88097039481E+02  0.14098950955E+03  0.96728571751E+02  0.22939168852E+03  0.12500000000E+03 0.  0.
         25    1    1    2    0    0 -0.88097039481E+02 -0.14098950955E+03  0.82501722886E+02  0.22376475247E+03  0.12500000000E+03 0.  0.
</event>
<event>
 4    0  0.2219362E-002  0.1577598E+03  0.7546771E-02  0.1191249E+00
         21   -1    0    0  502  501  0.00000000000E+00  0.00000000000E+00  0.24486587912E+02  0.24486587912E+02  0.00000000000E+00 0.  1.
         21   -1    0    0  501  502 -0.00000000000E+00 -0.00000000000E+00 -0.10163994775E+04  0.10163994775E+04  0.00000000000E+00 0.  1.
         25    1    1    2    0    0 -0.65866500317E+02 -0.30592925922E+02 -0.70430943061E+03  0.71899311333E+03  0.12500000000E+03 0.  0.
         25    1    1    2    0    0  0.65866500317E+02  0.30592925922E+02 -0.28760345900E+03  0.32189295210E+03  0.12500000000E+03 0.  0.
</event>
<event>
 4    0  0.2219362E-002  0.5998009E+03  0.7546771E-02  0.9905819E-01
         21   -1    0    0  502  501  0.00000000000E+00  0.00000000000E+00  0.26261444508E+04  0.26261444508E+04  0.00000000000E+00 0.  1.
         21   -1    0    0  501  502 -0.00000000000E+00 -0.00000000000E+00 -0.13699212767E+03  0.13699212767E+03  0.00000000000E+00 0.  1.
         25    1    1    2    0    0 -0.67618022030E+02  0.57799537313E+03  0.10739820029E+04  0.12278897307E+04  0.12500000000E+03 0.  0.
         25    1    1    2    0    0  0.67618022030E+02 -0.57799537313E+03  0.14151703202E+04  0.15352468477E+04  0.12500000000E+03 0.  0.
</event>
<event>
 4    0  0.2219362E-002  0.1987120E+03  0.7546771E-02  0.1150830E+00
         21   -1    0    0  502  501  0.00000000000E+00  0.00000000000E+00  0.25979713559E+03  0.25979713559E+03  0.00000000000E+00 0. -1.
         21   -1    0    0  501  502 -0.00000000000E+00 -0.00000000000E+00 -0.15198956165E+03  0.15198956165E+03  0.00000000000E+00 0. -1.
         25    1    1    2    0    0  0.65340038860E+02 -0.47522276358E+02 -0.82512025150E+02  0.17017908721E+03  0.12500000000E+03 0.  0.
         25    1    1    2    0    0 -0.65340038860E+02  0.47522276358E+02  0.19031959909E+03  0.24160761003E+03  0.12500000000E+03 0.  0.
</event>
<event>
 4    0  0.2219362E-002  0.1619454E+03  0.7546771E-02  0.1186518E+00
         21   -1    0    0  502  501  0.00000000000E+00  0.00000000000E+00  0.16536678965E+03  0.16536678965E+03  0.00000000000E+00 0. -1.
         21   -1    0    0  501  502 -0.00000000000E+00 -0.00000000000E+00 -0.15859485911E+03  0.15859485911E+03  0.00000000000E+00 0. -1.
         25    1    1    2    0    0 -0.81658374309E+02  0.22152109485E+02  0.62071751823E+02  0.16320756240E+03  0.12500000000E+03 0.  0.
         25    1    1    2    0    0  0.81658374309E+02 -0.22152109485E+02 -0.55299821285E+02  0.16075408637E+03  0.12500000000E+03 0.  0.
</event>
<event>
 4    0  0.2219362E-002  0.3419166E+03  0.7546771E-02  0.1065983E+00
         21   -1    0    0  502  501  0.00000000000E+00  0.00000000000E+00  0.85633187742E+03  0.85633187742E+03  0.00000000000E+00 0.  1.
         21   -1    0    0  501  502 -0.00000000000E+00 -0.00000000000E+00 -0.13652063245E+03  0.13652063245E+03  0.00000000000E+00 0.  1.
         25    1    1    2    0    0  0.79931158745E+02  0.20526009497E+03  0.26408437246E+02  0.25464308804E+03  0.12500000000E+03 0.  0.
         25    1    1    2    0    0 -0.79931158745E+02 -0.20526009497E+03  0.69340280773E+03  0.73820942184E+03  0.12500000000E+03 0.  0.
</event>
<event>
 4    0  0.2219362E-002  0.2527312E+03  0.7546771E-02  0.1111591E+00
         21   -1    0    0  502  501  0.00000000000E+00  0.00000000000E+00  0.25842307013E+03  0.25842307013E+03  0.00000000000E+00 0.  1.
         21   -1    0    0  501  502 -0.00000000000E+00 -0.00000000000E+00 -0.24716468100E+03  0.24716468100E+03  0.00000000000E+00 0.  1.
         25    1    1    2    0    0  0.16915879365E+03 -0.87752560234E+02  0.11489385654E+03  0.25522697264E+03  0.12500000000E+03 0.  0.
         25    1    1    2    0    0 -0.16915879365E+03  0.87752560234E+02 -0.10363546741E+03  0.25036077848E+03  0.12500000000E+03 0.  0.
</event>
<event>
 4    0  0.2219362E-002  0.2722413E+03  0.7546771E-02  0.1100004E+00
         21   -1    0    0  502  501  0.00000000000E+00  0.00000000000E+00  0.87852829835E+03  0.87852829835E+03  0.00000000000E+00 0.  1.
         21   -1    0    0  501  502 -0.00000000000E+00 -0.00000000000E+00 -0.84363067301E+02  0.84363067301E+02  0.00000000000E+00 0.  1.
         25    1    1    2    0    0  0.21008696898E+03  0.11668798334E+02  0.18621635549E+03  0.30752922859E+03  0.12500000000E+03 0.  0.
         25    1    1    2    0    0 -0.21008696898E+03 -0.11668798334E+02  0.60794887556E+03  0.65536213706E+03  0.12500000000E+03 0.  0.
</event>
<event>
 4    0  0.2219362E-002  0.2403900E+03  0.7546771E-02  0.1119533E+00
         21   -1    0    0  502  501  0.00000000000E+00  0.00000000000E+00  0.82407589656E+03  0.82407589656E+03  0.00000000000E+00 0.  1.
         21   -1    0    0  501  502 -0.00000000000E+00 -0.00000000000E+00 -0.70123803093E+02  0.70123803093E+02  0.00000000000E+00 0.  1.
         25    1    1    2    0    0 -0.10040468434E+03  0.67460763143E+02  0.68557433101E+03  0.70729712182E+03  0.12500000000E+03 0.  0.
         25    1    1    2    0    0  0.10040468434E+03 -0.67460763143E+02  0.68377762461E+02  0.18690257783E+03  0.12500000000E+03 0.  0.
</event>
<event>
 4    0  0.2219362E-002  0.3085549E+03  0.7546771E-02  0.1081041E+00
         21   -1    0    0  502  501  0.00000000000E+00  0.00000000000E+00  0.76879098802E+03  0.76879098802E+03  0.00000000000E+00 0. -1.
         21   -1    0    0  501  502 -0.00000000000E+00 -0.00000000000E+00 -0.12383875597E+03  0.12383875597E+03  0.00000000000E+00 0. -1.
         25    1    1    2    0    0  0.19629126052E+03  0.20256531367E+03  0.31631302326E+03  0.44186184938E+03  0.12500000000E+03 0.  0.
         25    1    1    2    0    0 -0.19629126052E+03 -0.20256531367E+03  0.32863920879E+03  0.45076789461E+03  0.12500000000E+03 0.  0.
</event>
<event>
 4    0  0.2219362E-002  0.1869772E+03  0.7546771E-02  0.1161216E+00
         21   -1    0    0  502  501  0.00000000000E+00  0.00000000000E+00  0.37013095441E+03  0.37013095441E+03  0.00000000000E+00 0. -1.
         21   -1    0    0  501  502 -0.00000000000E+00 -0.00000000000E+00 -0.94454299377E+02  0.94454299377E+02  0.00000000000E+00 0. -1.
         25    1    1    2    0    0 -0.11256069832E+03  0.69648215369E+02  0.19076155436E+03  0.26369633166E+03  0.12500000000E+03 0.  0.
         25    1    1    2    0    0  0.11256069832E+03 -0.69648215369E+02  0.84915100676E+02  0.20088892213E+03  0.12500000000E+03 0.  0.
</event>
<event>
 4    0  0.2219362E-002  0.1866346E+03  0.7546771E-02  0.1161532E+00
         21   -1    0    0  502  501  0.00000000000E+00  0.00000000000E+00  0.10865528717E+04  0.10865528717E+04  0.00000000000E+00 0. -1.
         21   -1    0    0  501  502 -0.00000000000E+00 -0.00000000000E+00 -0.32057780513E+02  0.32057780513E+02  0.00000000000E+00 0. -1.
         25    1    1    2    0    0  0.61059957580E+02  0.77753466254E+02  0.81831554231E+03  0.83369013831E+03  0.12500000000E+03 0.  0.
         25    1    1    2    0    0 -0.61059957580E+02 -0.77753466254E+02  0.23617954889E+03  0.28492051391E+03  0.12500000000E+03 0.  0.
</event>
<event>
 4    0  0.2219362E-002  0.2079084E+03  0.7546771E-02  0.1143233E+00
         21   -1    0    0  502  501  0.00000000000E+00  0.00000000000E+00  0.21250576865E+03  0.21250576865E+03  0.00000000000E+00 0.  1.
         21   -1    0    0  501  502 -0.00000000000E+00 -0.00000000000E+00 -0.20341051930E+03  0.20341051930E+03  0.00000000000E+00 0.  1.
         25    1    1    2    0    0  0.83783974709E+02  0.93523098981E+02 -0.10426527163E+03  0.20557862566E+03  0.12500000000E+03 0.  0.
         25    1    1    2    0    0 -0.83783974709E+02 -0.93523098981E+02  0.11336052098E+03  0.21033766229E+03  0.12500000000E+03 0.  0.
</event>
<event>
 4    0  0.2219362E-002  0.1847247E+03  0.7546771E-02  0.1163307E+00
         21   -1    0    0  502  501  0.00000000000E+00  0.00000000000E+00  0.10417112311E+04  0.10417112311E+04  0.00000000000E+00 0.  1.
         21   -1    0    0  501  502 -0.00000000000E+00 -0.00000000000E+00 -0.32756888590E+02  0.32756888590E+02  0.00000000000E+00 0.  1.
         25    1    1    2    0    0 -0.73804262363E+02  0.11422825143E+03  0.49939291545E+03  0.53245980747E+03  0.12500000000E+03 0.  0.
         25    1    1    2    0    0  0.73804262363E+02 -0.11422825143E+03  0.50956142702E+03  0.54200831218E+03  0.12500000000E+03 0.  0.
</event>
<event>
 4    0  0.2219362E-002  0.2101576E+03  0.7546771E-02  0.1141441E+00
         21   -1    0    0  502  501  0.00000000000E+00  0.00000000000E+00  0.57189530995E+02  0.57189530995E+02  0.00000000000E+00 0.  1.
         21   -1    0    0  501  502 -0.00000000000E+00 -0.00000000000E+00 -0.77227815369E+03  0.77227815369E+03  0.00000000000E+00 0.  1.
         25    1    1    2    0    0 -0.12855373112E+03 -0.30583365227E+02 -0.14981838096E+03  0.23565218286E+03  0.12500000000E+03 0.  0.
         25    1    1    2    0    0  0.12855373112E+03  0.30583365227E+02 -0.56527024173E+03  0.59381550182E+03  0.12500000000E+03 0.  0.
</event>
<event>
 4    0  0.2219362E-002  0.2395416E+03  0.7546771E-02  0.1120099E+00
         21   -1    0    0  502  501  0.00000000000E+00  0.00000000000E+00  0.12118884793E+04  0.12118884793E+04  0.00000000000E+00 0.  1.
         21   -1    0    0  501  502 -0.00000000000E+00 -0.00000000000E+00 -0.47347730017E+02  0.47347730017E+02  0.00000000000E+00 0.  1.
         25    1    1    2    0    0 -0.91665229237E+02  0.58389732277E+02  0.12744353883E+03  0.20899457093E+03  0.12500000000E+03 0.  0.
         25    1    1    2    0    0  0.91665229237E+02 -0.58389732277E+02  0.10370972104E+04  0.10502416384E+04  0.12500000000E+03 0.  0.
</event>
<event>
 4    0  0.2219362E-002  0.2037905E+03  0.7546771E-02  0.1146580E+00
         21   -1    0    0  502  501  0.00000000000E+00  0.00000000000E+00  0.60498805943E+03  0.60498805943E+03  0.00000000000E+00 0.  1.
         21   -1    0    0  501  502 -0.00000000000E+00 -0.00000000000E+00 -0.68646941733E+02  0.68646941733E+02  0.00000000000E+00 0.  1.
         25    1    1    2    0    0 -0.14376542628E+03 -0.48008015461E+02  0.35766906626E+03  0.40807527283E+03  0.12500000000E+03 0.  0.
         25    1    1    2    0    0  0.14376542628E+03  0.48008015461E+02  0.17867205144E+03  0.26555972832E+03  0.12500000000E+03 0.  0.
</event>
<event>
 4    0  0.2219362E-002  0.2298198E+03  0.7546771E-02  0.1126767E+00
         21   -1    0    0  502  501  0.00000000000E+00  0.00000000000E+00  0.50892057476E+03  0.50892057476E+03  0.00000000000E+00 0. -1.
         21   -1    0    0  501  502 -0.00000000000E+00 -0.00000000000E+00 -0.10378266634E+03  0.10378266634E+03  0.00000000000E+00 0. -1.
         25    1    1    2    0    0  0.60743171913E+02 -0.29238946862E+02 -0.38287136234E+02  0.14709029114E+03  0.12500000000E+03 0.  0.
         25    1    1    2    0    0 -0.60743171913E+02  0.29238946862E+02  0.44342504465E+03  0.46561294996E+03  0.12500000000E+03 0.  0.
</event>
<event>
 4    0  0.2219362E-002  0.2055710E+03  0.7546771E-02  0.1145122E+00
         21   -1    0    0  502  501  0.00000000000E+00  0.00000000000E+00  0.23042433732E+04  0.23042433732E+04  0.00000000000E+00 0. -1.
         21   -1    0    0  501  502 -0.00000000000E+00 -0.00000000000E+00 -0.18339834797E+02  0.18339834797E+02  0.00000000000E+00 0. -1.
         25    1    1    2    0    0 -0.15755764768E+03  0.10760434706E+02  0.91042802008E+03  0.93244001364E+03  0.12500000000E+03 0.  0.
         25    1    1    2    0    0  0.15755764768E+03 -0.10760434706E+02  0.13754755183E+04  0.13901431943E+04  0.12500000000E+03 0.  0.
</event>
<event>
 4    0  0.2219362E-002  0.3290453E+03  0.7546771E-02  0.1071560E+00
         21   -1    0    0  502  501  0.00000000000E+00  0.00000000000E+00  0.54112772539E+03  0.54112772539E+03  0.00000000000E+00 0.  1.
         21   -1    0    0  501  502 -0.00000000000E+00 -0.00000000000E+00 -0.20008369769E+03  0.20008369769E+03  0.00000000000E+00 0.  1.
         25    1    1    2    0    0  0.17880532803E+03 -0.13706122157E+03 -0.59995999571E+02  0.26454043879E+03  0.12500000000E+03 0.  0.
         25    1    1    2    0    0 -0.17880532803E+03  0.13706122157E+03  0.40104002727E+03  0.47667098429E+03  0.12500000000E+03 0.  0.
</event>
<event>
 4    0  0.2219362E-002  0.2355165E+03  0.7546771E-02  0.1122816E+00
         21   -1    0    0  502  501  0.00000000000E+00  0.00000000000E+00  0.45982564711E+02  0.45982564711E+02  0.00000000000E+00 0. -1.
         21   -1    0    0  501  502 -0.00000000000E+00 -0.00000000000E+00 -0.12062842535E+04  0.12062842535E+04  0.00000000000E+00 0. -1.
         25    1    1    2    0    0  0.16062454224E+01 -0.17375841066E+03 -0.31900996145E+03  0.38417043197E+03  0.12500000000E+03 0.  0.
         25    1    1    2    0    0 -0.16062454224E+01  0.17375841066E+03 -0.84129172731E+03  0.86809638620E+03  0.12500000000E+03 0.  0.
</event>
<event>
 4    0  0.2219362E-002  0.1894894E+03  0.7546771E-02  0.1158923E+00
         21   -1    0    0  502  501  0.00000000000E+00  0.00000000000E+00  0.25387118240E+03  0.25387118240E+03  0.00000000000E+00 0. -1.
         21   -1    0    0  501  502 -0.00000000000E+00 -0.00000000000E+00 -0.14143485667E+03  0.14143485667E+03  0.00000000000E+00 0. -1.
         25    1    1    2    0    0  0.45863160170E+02 -0.13478203544E+03  0.52664364952E+02  0.19664221793E+03  0.12500000000E+03 0.  0.
         25    1    1    2    0    0 -0.45863160170E+02  0.13478203544E+03  0.59771960778E+02  0.19866382115E+03  0.12500000000E+03 0.  0.
</event>
<event>
 4    0  0.2219362E-002  0.2034901E+03  0.7546771E-02  0.1146827E+00
         21   -1    0    0  502  501  0.00000000000E+00  0.00000000000E+00  0.18623703395E+03  0.18623703395E+03  0.00000000000E+00 0.  1.
         21   -1    0    0  501  502 -0.00000000000E+00 -0.00000000000E+00 -0.22234149588E+03  0.22234149588E+03  0.00000000000E+00 0.  1.
         25    1    1    2    0    0 -0.13446293734E+03 -0.73955183803E+02 -0.65498497431E+02  0.20848190304E+03  0.12500000000E+03 0.  0.
         25    1    1    2    0    0  0.13446293734E+03  0.73955183803E+02  0.29394035502E+02  0.20009662679E+03  0.12500000000E+03 0.  0.
</event>
<event>
 4    0  0.2219362E-002  0.2041209E+03  0.7546771E-02  0.1146308E+00
         21   -1    0    0  502  501  0.00000000000E+00  0.00000000000E+00  0.58660755489E+02  0.58660755489E+02  0.00000000000E+00 0. -1.
         21   -1    0    0  501  502 -0.00000000000E+00 -0.00000000000E+00 -0.71027634899E+03  0.71027634899E+03  0.00000000000E+00 0. -1.
         25    1    1    2    0    0  0.81182874841E+02  0.91546384068E+02 -0.52397258427E+03  0.55239810704E+03  0.12500000000E+03 0.  0.
         25    1    1    2    0    0 -0.81182874841E+02 -0.91546384068E+02 -0.12764300923E+03  0.21653899743E+03  0.12500000000E+03 0.  0.
</event>
<event>
 4    0  0.2219362E-002  0.2101024E+03  0.7546771E-02  0.1141485E+00
         21   -1    0    0  502  501  0.00000000000E+00  0.00000000000E+00  0.20402097239E+03  0.20402097239E+03  0.00000000000E+00 0. -1.
         21   -1    0    0  501  502 -0.00000000000E+00 -0.00000000000E+00 -0.21636501898E+03  0.21636501898E+03  0.00000000000E+00 0. -1.
         25    1    1    2    0    0 -0.90750580545E+02  0.11716345020E+03  0.74826226189E+02  0.20781459539E+03  0.12500000000E+03 0.  0.
         25    1    1    2    0    0  0.90750580545E+02 -0.11716345020E+03 -0.87170272776E+02  0.21257139598E+03  0.12500000000E+03 0.  0.
</event>
<event>
 4    0  0.2219362E-002  0.3154049E+03  0.7546771E-02  0.1077784E+00
         21   -1    0    0  502  501  0.00000000000E+00  0.00000000000E+00  0.63618613115E+03  0.63618613115E+03  0.00000000000E+00 0. -1.
         21   -1    0    0  501  502 -0.00000000000E+00 -0.00000000000E+00 -0.15636970746E+03  0.15636970746E+03  0.00000000000E+00 0. -1.
         25    1    1    2    0    0  0.13294306540E+03  0.25064507144E+03  0.16709678650E+03  0.35219759586E+03  0.12500000000E+03 0.  0.
         25    1    1    2    0    0 -0.13294306540E+03 -0.25064507144E+03  0.31271963719E+03  0.44035824275E+03  0.12500000000E+03 0.  0.
</event>
<event>
 4    0  0.2219362E-002  0.1966484E+03  0.7546771E-02  0.1152598E+00
         21   -1    0    0  502  501  0.00000000000E+00  0.00000000000E+00  0.19776473149E+04  0.19776473149E+04  0.00000000000E+00 0.  1.
         21   -1    0    0  501  502 -0.00000000000E+00 -0.00000000000E+00 -0.19553838295E+02  0.19553838295E+02  0.00000000000E+00 0.  1.
         25    1    1    2    0    0  0.45295890018E+02  0.11659259024E+03  0.54221056711E+03  0.57031819964E+03  0.12500000000E+03 0.  0.
         25    1    1    2    0    0 -0.45295890018E+02 -0.11659259024E+03  0.14158829095E+04  0.14268829536E+04  0.12500000000E+03 0.  0.
</event>
<event>
 4    0  0.2219362E-002  0.2265536E+03  0.7546771E-02  0.1129089E+00
         21   -1    0    0  502  501  0.00000000000E+00  0.00000000000E+00  0.77798769364E+03  0.77798769364E+03  0.00000000000E+00 0.  1.
         21   -1    0    0  501  502 -0.00000000000E+00 -0.00000000000E+00 -0.65973477535E+02  0.65973477535E+02  0.00000000000E+00 0.  1.
         25    1    1    2    0    0 -0.15146891594E+03  0.11200115290E+03  0.32873005258E+03  0.39896809173E+03  0.12500000000E+03 0.  0.
         25    1    1    2    0    0  0.15146891594E+03 -0.11200115290E+03  0.38328416352E+03  0.44499307945E+03  0.12500000000E+03 0.  0.
</event>
<event>
 4    0  0.2219362E-002  0.2191171E+03  0.7546771E-02  0.1134543E+00
         21   -1    0    0  502  501  0.00000000000E+00  0.00000000000E+00  0.87969271560E+02  0.87969271560E+02  0.00000000000E+00 0. -1.
         21   -1    0    0  501  502 -0.00000000000E+00 -0.00000000000E+00 -0.54578479018E+03  0.54578479018E+03  0.00000000000E+00 0. -1.
         25    1    1    2    0    0 -0.10824281631E+03  0.13371087655E+03 -0.30532416633E+03  0.37207922857E+03  0.12500000000E+03 0.  0.
         25    1    1    2    0    0  0.10824281631E+03 -0.13371087655E+03 -0.15249135229E+03  0.26167483317E+03  0.12500000000E+03 0.  0.
</event>
<event>
 4    0  0.2219362E-002  0.1764619E+03  0.7546771E-02  0.1171272E+00
         21   -1    0    0  502  501  0.00000000000E+00  0.00000000000E+00  0.33762853238E+03  0.33762853238E+03  0.00000000000E+00 0. -1.
         21   -1    0    0  501  502 -0.00000000000E+00 -0.00000000000E+00 -0.92228042874E+02  0.92228042874E+02  0.00000000000E+00 0. -1.
         25    1    1    2    0    0  0.12364569180E+03  0.87795265679E+01  0.13754177873E+03  0.22340115954E+03  0.12500000000E+03 0.  0.
         25    1    1    2    0    0 -0.12364569180E+03 -0.87795265679E+01  0.10785871078E+03  0.20645541572E+03  0.12500000000E+03 0.  0.
</event>
<event>
 4    0  0.2219362E-002  0.1797904E+03  0.7546771E-02  0.1168006E+00
         21   -1    0    0  502  501  0.00000000000E+00  0.00000000000E+00  0.57651195566E+03  0.57651195566E+03  0.00000000000E+00 0.  1.
         21   -1    0    0  501  502 -0.00000000000E+00 -0.00000000000E+00 -0.56069245529E+02  0.56069245529E+02  0.00000000000E+00 0.  1.
         25    1    1    2    0    0 -0.45014676219E+02 -0.11488301784E+02  0.47236069456E+03  0.49082372387E+03  0.12500000000E+03 0.  0.
         25    1    1    2    0    0  0.45014676219E+02  0.11488301784E+02  0.48082015570E+02  0.14175747731E+03  0.12500000000E+03 0.  0.
</event>
<event>
 4    0  0.2219362E-002  0.2480288E+03  0.7546771E-02  0.1114557E+00
         21   -1    0    0  502  501  0.00000000000E+00  0.00000000000E+00  0.25271068686E+03  0.25271068686E+03  0.00000000000E+00 0.  1.
         21   -1    0    0  501  502 -0.00000000000E+00 -0.00000000000E+00 -0.24343359346E+03  0.24343359346E+03  0.00000000000E+00 0.  1.
         25    1    1    2    0    0  0.17373885599E+02 -0.19420482370E+03 -0.84123268122E+02  0.24641243818E+03  0.12500000000E+03 0.  0.
         25    1    1    2    0    0 -0.17373885599E+02  0.19420482370E+03  0.93400361517E+02  0.24973184214E+03  0.12500000000E+03 0.  0.
</event>
<event>
 4    0  0.2219362E-002  0.1781704E+03  0.7546771E-02  0.1169586E+00
         21   -1    0    0  502  501  0.00000000000E+00  0.00000000000E+00  0.30402936624E+03  0.30402936624E+03  0.00000000000E+00 0.  1.
         21   -1    0    0  501  502 -0.00000000000E+00 -0.00000000000E+00 -0.10441325458E+03  0.10441325458E+03  0.00000000000E+00 0.  1.
         25    1    1    2    0    0  0.99273597969E+02  0.78765399563E+02  0.90895541304E+02  0.19986554193E+03  0.12500000000E+03 0.  0.
         25    1    1    2    0    0 -0.99273597969E+02 -0.78765399563E+02  0.10872057035E+03  0.20857707889E+03  0.12500000000E+03 0.  0.
</event>
<event>
 4    0  0.2219362E-002  0.2157411E+03  0.7546771E-02  0.1137099E+00
         21   -1    0    0  502  501  0.00000000000E+00  0.00000000000E+00  0.70467148016E+02  0.70467148016E+02  0.00000000000E+00 0. -1.
         21   -1    0    0  501  502 -0.00000000000E+00 -0.00000000000E+00 -0.66050959878E+03  0.66050959878E+03  0.00000000000E+00 0. -1.
         25    1    1    2    0    0  0.32637271924E+02  0.47055922847E+02 -0.57667003088E+03  0.59283452658E+03  0.12500000000E+03 0.  0.
         25    1    1    2    0    0 -0.32637271924E+02 -0.47055922847E+02 -0.13372419891E+02  0.13814222022E+03  0.12500000000E+03 0.  0.
</event>
<event>
 4    0  0.2219362E-002  0.2619631E+03  0.7546771E-02  0.1105969E+00
         21   -1    0    0  502  501  0.00000000000E+00  0.00000000000E+00  0.32454347758E+03  0.32454347758E+03  0.00000000000E+00 0. -1.
         21   -1    0    0  501  502 -0.00000000000E+00 -0.00000000000E+00 -0.21144990518E+03  0.21144990518E+03  0.00000000000E+00 0. -1.
         25    1    1    2    0    0 -0.19252733905E+03 -0.11346796467E+03  0.11311899993E+03  0.27993331962E+03  0.12500000000E+03 0.  0.
         25    1    1    2    0    0  0.19252733905E+03  0.11346796467E+03 -0.25427525555E-01  0.25606006314E+03  0.12500000000E+03 0.  0.
</event>
<event>
 4    0  0.2219362E-002  0.1680748E+03  0.7546771E-02  0.1179871E+00
         21   -1    0    0  502  501  0.00000000000E+00  0.00000000000E+00  0.12622558077E+03  0.12622558077E+03  0.00000000000E+00 0.  1.
         21   -1    0    0  501  502 -0.00000000000E+00 -0.00000000000E+00 -0.22379882501E+03  0.22379882501E+03  0.00000000000E+00 0.  1.
         25    1    1    2    0    0 -0.28975257860E+02 -0.10844744825E+03 -0.43715057234E+02  0.17359844708E+03  0.12500000000E+03 0.  0.
         25    1    1    2    0    0  0.28975257860E+02  0.10844744825E+03 -0.53858187004E+02  0.17642595871E+03  0.12500000000E+03 0.  0.
</event>
<event>
 4    0  0.2219362E-002  0.2445829E+03  0.7546771E-02  0.1116777E+00
         21   -1    0    0  502  501  0.00000000000E+00  0.00000000000E+00  0.10871087880E+03  0.10871087880E+03  0.00000000000E+00 0. -1.
         21   -1    0    0  501  502 -0.00000000000E+00 -0.00000000000E+00 -0.55027424924E+03  0.55027424924E+03  0.00000000000E+00 0. -1.
         25    1    1    2    0    0 -0.28803579322E+02  0.19678308946E+03 -0.31257236738E+03  0.39099835720E+03  0.12500000000E+03 0.  0.
         25    1    1    2    0    0  0.28803579322E+02 -0.19678308946E+03 -0.12899100306E+03  0.26798677085E+03  0.12500000000E+03 0.  0.
</event>
<event>
 4    0  0.2219362E-002  0.4880174E+03  0.7546771E-02  0.1016955E+00
         21   -1    0    0  502  501  0.00000000000E+00  0.00000000000E+00  0.44431669738E+03  0.44431669738E+03  0.00000000000E+00 0.  1.
         21   -1    0    0  501  502 -0.00000000000E+00 -0.00000000000E+00 -0.53601619572E+03  0.53601619572E+03  0.00000000000E+00 0. -1.
         25    1    1    2    0    0  0.42159674398E+03 -0.20774244351E+03 -0.52339626217E+01  0.48636728070E+03  0.12500000000E+03 0.  0.
         25    1    1    2    0    0 -0.42159674398E+03  0.20774244351E+03 -0.86465535710E+02  0.49396561240E+03  0.12500000000E+03 0.  0.
</event>
<event>
 4    0  0.2219362E-002  0.2894126E+03  0.7546771E-02  0.1090656E+00
         21   -1    0    0  502  501  0.00000000000E+00  0.00000000000E+00  0.27529801562E+03  0.27529801562E+03  0.00000000000E+00 0. -1.
         21   -1    0    0  501  502 -0.00000000000E+00 -0.00000000000E+00 -0.30425086834E+03  0.30425086834E+03  0.00000000000E+00 0. -1.
         25    1    1    2    0    0  0.77093194222E+02  0.39356375421E+02  0.23208817538E+03  0.27745667415E+03  0.12500000000E+03 0.  0.
         25    1    1    2    0    0 -0.77093194222E+02 -0.39356375421E+02 -0.26104102810E+03  0.30209220982E+03  0.12500000000E+03 0.  0.
</event>
<event>
 4    0  0.2219362E-002  0.2355697E+03  0.7546771E-02  0.1122780E+00
         21   -1    0    0  502  501  0.00000000000E+00  0.00000000000E+00  0.69513247352E+03  0.69513247352E+03  0.00000000000E+00 0. -1.
         21   -1    0    0  501  502 -0.00000000000E+00 -0.00000000000E+00 -0.79830956539E+02  0.79830956539E+02  0.00000000000E+00 0. -1.
         25    1    1    2    0    0  0.19648759466E+03  0.22693446313E+02  0.35256876820E+03  0.42314548759E+03  0.12500000000E+03 0.  0.
         25    1    1    2    0    0 -0.19648759466E+03 -0.22693446313E+02  0.26273274878E+03  0.35181794247E+03  0.12500000000E+03 0.  0.
</event>
<event>
 4    0  0.2219362E-002  0.2702140E+03  0.7546771E-02  0.1101157E+00
         21   -1    0    0  502  501  0.00000000000E+00  0.00000000000E+00  0.69623502546E+02  0.69623502546E+02  0.00000000000E+00 0. -1.
         21   -1    0    0  501  502 -0.00000000000E+00 -0.00000000000E+00 -0.10487205667E+04  0.10487205667E+04  0.00000000000E+00 0. -1.
         25    1    1    2    0    0 -0.23370090143E+03  0.28465415995E+02 -0.39783544038E+03  0.47887830276E+03  0.12500000000E+03 0.  0.
         25    1    1    2    0    0  0.23370090143E+03 -0.28465415995E+02 -0.58126162382E+03  0.63946576653E+03  0.12500000000E+03 0.  0.
</event>
<event>
 4    0  0.2219362E-002  0.1805603E+03  0.7546771E-02  0.1167262E+00
         21   -1    0    0  502  501  0.00000000000E+00  0.00000000000E+00  0.13604948111E+03  0.13604948111E+03  0.00000000000E+00 0. -1.
         21   -1    0    0  501  502 -0.00000000000E+00 -0.00000000000E+00 -0.23963344676E+03  0.23963344676E+03  0.00000000000E+00 0. -1.
         25    1    1    2    0    0 -0.20957205136E+02 -0.12754512454E+03 -0.34696331904E+02  0.18312782063E+03  0.12500000000E+03 0.  0.
         25    1    1    2    0    0  0.20957205136E+02  0.12754512454E+03 -0.68887633751E+02  0.19255510724E+03  0.12500000000E+03 0.  0.
</event>
<event>
 4    0  0.2219362E-002  0.2602980E+03  0.7546771E-02  0.1106964E+00
         21   -1    0    0  502  501  0.00000000000E+00  0.00000000000E+00  0.13531018778E+03  0.13531018778E+03  0.00000000000E+00 0. -1.
         21   -1    0    0  501  502 -0.00000000000E+00 -0.00000000000E+00 -0.50073878293E+03  0.50073878293E+03  0.00000000000E+00 0. -1.
         25    1    1    2    0    0 -0.90723935362E+01  0.19694213831E+03 -0.42016677859E+02  0.23718961905E+03  0.12500000000E+03 0.  0.
         25    1    1    2    0    0  0.90723935362E+01 -0.19694213831E+03 -0.32341191729E+03  0.39885935167E+03  0.12500000000E+03 0.  0.
</event>
<event>
 4    0  0.2219362E-002  0.2431523E+03  0.7546771E-02  0.1117711E+00
         21   -1    0    0  502  501  0.00000000000E+00  0.00000000000E+00  0.98080653701E+03  0.98080653701E+03  0.00000000000E+00 0. -1.
         21   -1    0    0  501  502 -0.00000000000E+00 -0.00000000000E+00 -0.60280001614E+02  0.60280001614E+02  0.00000000000E+00 0.  1.
         25    1    1    2    0    0 -0.18198679071E+03  0.95745145738E+02  0.53478366094E+03  0.58643404482E+03  0.12500000000E+03 0.  0.
         25    1    1    2    0    0  0.18198679071E+03 -0.95745145738E+02  0.38574287446E+03  0.45465249380E+03  0.12500000000E+03 0.  0.
</event>
<event>
 4    0  0.2219362E-002  0.2636994E+03  0.7546771E-02  0.1104941E+00
         21   -1    0    0  502  501  0.00000000000E+00  0.00000000000E+00  0.25637036480E+02  0.25637036480E+02  0.00000000000E+00 0.  1.
         21   -1    0    0  501  502 -0.00000000000E+00 -0.00000000000E+00 -0.27123802596E+04  0.27123802596E+04  0.00000000000E+00 0.  1.
         25    1    1    2    0    0  0.11322869556E+03 -0.18055222321E+03 -0.86494423764E+03  0.89954064779E+03  0.12500000000E+03 0.  0.
         25    1    1    2    0    0 -0.11322869556E+03  0.18055222321E+03 -0.18217989855E+04  0.18384766483E+04  0.12500000000E+03 0.  0.
</event>
<event>
 4    0  0.2219362E-002  0.1592067E+03  0.7546771E-02  0.1189595E+00
         21   -1    0    0  502  501  0.00000000000E+00  0.00000000000E+00  0.49133705029E+03  0.49133705029E+03  0.00000000000E+00 0. -1.
         21   -1    0    0  501  502 -0.00000000000E+00 -0.00000000000E+00 -0.51587344527E+02  0.51587344527E+02  0.00000000000E+00 0. -1.
         25    1    1    2    0    0 -0.32573272402E+02  0.92548042307E+02  0.20320191523E+03  0.25795770305E+03  0.12500000000E+03 0.  0.
         25    1    1    2    0    0  0.32573272402E+02 -0.92548042307E+02  0.23654779053E+03  0.28496669176E+03  0.12500000000E+03 0.  0.
</event>
<event>
 4    0  0.2219362E-002  0.1780030E+03  0.7546771E-02  0.1169750E+00
         21   -1    0    0  502  501  0.00000000000E+00  0.00000000000E+00  0.24737121810E+03  0.24737121810E+03  0.00000000000E+00 0. -1.
         21   -1    0    0  501  502 -0.00000000000E+00 -0.00000000000E+00 -0.12808709884E+03  0.12808709884E+03  0.00000000000E+00 0. -1.
         25    1    1    2    0    0 -0.14847996595E+02 -0.40685018743E+02 -0.65963492343E+02  0.14782393607E+03  0.12500000000E+03 0.  0.
         25    1    1    2    0    0  0.14847996595E+02  0.40685018743E+02  0.18524761160E+03  0.22763438087E+03  0.12500000000E+03 0.  0.
</event>
<event>
 4    0  0.2219362E-002  0.2509754E+03  0.7546771E-02  0.1112690E+00
         21   -1    0    0  502  501  0.00000000000E+00  0.00000000000E+00  0.62135543874E+03  0.62135543874E+03  0.00000000000E+00 0. -1.
         21   -1    0    0  501  502 -0.00000000000E+00 -0.00000000000E+00 -0.10137301782E+03  0.10137301782E+03  0.00000000000E+00 0. -1.
         25    1    1    2    0    0  0.83900371972E+01  0.18604298912E+03  0.97849172643E+02  0.24470767686E+03  0.12500000000E+03 0.  0.
         25    1    1    2    0    0 -0.83900371972E+01 -0.18604298912E+03  0.42213324828E+03  0.47802077971E+03  0.12500000000E+03 0.  0.
</event>
<event>
 4    0  0.2219362E-002  0.2186460E+03  0.7546771E-02  0.1134897E+00
         21   -1    0    0  502  501  0.00000000000E+00  0.00000000000E+00  0.13527487725E+03  0.13527487725E+03  0.00000000000E+00 0. -1.
         21   -1    0    0  501  502 -0.00000000000E+00 -0.00000000000E+00 -0.35339951173E+03  0.35339951173E+03  0.00000000000E+00 0. -1.
         25    1    1    2    0    0 -0.14105539400E+03  0.78399250676E+02 -0.21511179834E+02  0.20525788058E+03  0.12500000000E+03 0.  0.
         25    1    1    2    0    0  0.14105539400E+03 -0.78399250676E+02 -0.19661345465E+03  0.28341650840E+03  0.12500000000E+03 0.  0.
</event>
<event>
 4    0  0.2219362E-002  0.2056494E+03  0.7546771E-02  0.1145058E+00
         21   -1    0    0  502  501  0.00000000000E+00  0.00000000000E+00  0.16797542007E+04  0.16797542007E+04  0.00000000000E+00 0.  1.
         21   -1    0    0  501  502 -0.00000000000E+00 -0.00000000000E+00 -0.25177292037E+02  0.25177292037E+02  0.00000000000E+00 0.  1.
         25    1    1    2    0    0 -0.79867970996E+02 -0.11840347842E+03  0.49909689174E+03  0.53396721232E+03  0.12500000000E+03 0.  0.
         25    1    1    2    0    0  0.79867970996E+02  0.11840347842E+03  0.11554800170E+04  0.11709642804E+04  0.12500000000E+03 0.  0.
</event>
<event>
 4    0  0.2219362E-002  0.2996220E+03  0.7546771E-02  0.1085430E+00
         21   -1    0    0  502  501  0.00000000000E+00  0.00000000000E+00  0.43820093142E+03  0.43820093142E+03  0.00000000000E+00 0.  1.
         21   -1    0    0  501  502 -0.00000000000E+00 -0.00000000000E+00 -0.20486803032E+03  0.20486803032E+03  0.00000000000E+00 0.  1.
         25    1    1    2    0    0  0.43994486694E+02 -0.89260263433E+02 -0.15533736984E+03  0.22283987066E+03  0.12500000000E+03 0.  0.
         25    1    1    2    0    0 -0.43994486694E+02  0.89260263433E+02  0.38867027093E+03  0.42022909108E+03  0.12500000000E+03 0.  0.
</event>
<event>
 4    0  0.2219362E-002  0.1854360E+03  0.7546771E-02  0.1162643E+00
         21   -1    0    0  502  501  0.00000000000E+00  0.00000000000E+00  0.10150604681E+04  0.10150604681E+04  0.00000000000E+00 0. -1.
         21   -1    0    0  501  502 -0.00000000000E+00 -0.00000000000E+00 -0.33876319676E+02  0.33876319676E+02  0.00000000000E+00 0. -1.
         25    1    1    2    0    0  0.42390296962E+02 -0.81020870904E+02  0.20215839121E+03  0.25466514080E+03  0.12500000000E+03 0.  0.
         25    1    1    2    0    0 -0.42390296962E+02  0.81020870904E+02  0.77902575719E+03  0.79427164696E+03  0.12500000000E+03 0.  0.
</event>
<event>
 4    0  0.2219362E-002  0.2217687E+03  0.7546771E-02  0.1132571E+00
         21   -1    0    0  502  501  0.00000000000E+00  0.00000000000E+00  0.79058146358E+02  0.79058146358E+02  0.00000000000E+00 0. -1.
         21   -1    0    0  501  502 -0.00000000000E+00 -0.00000000000E+00 -0.62209087894E+03  0.62209087894E+03  0.00000000000E+00 0. -1.
         25    1    1    2    0    0  0.10139776177E+03  0.15159516063E+03 -0.29861024711E+03  0.37155844560E+03  0.12500000000E+03 0.  0.
         25    1    1    2    0    0 -0.10139776177E+03 -0.15159516063E+03 -0.24442248547E+03  0.32959057969E+03  0.12500000000E+03 0.  0.
</event>
<event>
 4    0  0.2219362E-002  0.2247585E+03  0.7546771E-02  0.1130384E+00
         21   -1    0    0  502  501  0.00000000000E+00  0.00000000000E+00  0.54113959475E+03  0.54113959475E+03  0.00000000000E+00 0.  1.
         21   -1    0    0  501  502 -0.00000000000E+00 -0.00000000000E+00 -0.93351810981E+02  0.93351810981E+02  0.00000000000E+00 0.  1.
         25    1    1    2    0    0  0.15700403130E+03  0.70566479040E+02  0.32627814311E+03  0.38950265786E+03  0.12500000000E+03 0.  0.
         25    1    1    2    0    0 -0.15700403130E+03 -0.70566479040E+02  0.12150964066E+03  0.24498874787E+03  0.12500000000E+03 0.  0.
</event>
<event>
 4    0  0.2219362E-002  0.6507202E+03  0.7546771E-02  0.9805429E-01
         21   -1    0    0  502  501  0.00000000000E+00  0.00000000000E+00  0.51760464642E+03  0.51760464642E+03  0.00000000000E+00 0.  1.
         21   -1    0    0  501  502 -0.00000000000E+00 -0.00000000000E+00 -0.81806999662E+03  0.81806999662E+03  0.00000000000E+00 0.  1.
         25    1    1    2    0    0 -0.21913269686E+03 -0.11260206474E+03  0.45442852548E+03  0.53181636736E+03  0.12500000000E+03 0.  0.
         25    1    1    2    0    0  0.21913269686E+03  0.11260206474E+03 -0.75489387569E+03  0.80385827568E+03  0.12500000000E+03 0.  0.
</event>
<event>
 4    0  0.2219362E-002  0.2256509E+03  0.7546771E-02  0.1129739E+00
         21   -1    0    0  502  501  0.00000000000E+00  0.00000000000E+00  0.46167945739E+02  0.46167945739E+02  0.00000000000E+00 0. -1.
         21   -1    0    0  501  502 -0.00000000000E+00 -0.00000000000E+00 -0.11028939179E+04  0.11028939179E+04  0.00000000000E+00 0. -1.
         25    1    1    2    0    0 -0.13037678669E+03 -0.13222416444E+03 -0.45580970433E+03  0.50780786005E+03  0.12500000000E+03 0.  0.
         25    1    1    2    0    0  0.13037678669E+03  0.13222416444E+03 -0.60091626785E+03  0.64125400360E+03  0.12500000000E+03 0.  0.
</event>
<event>
 4    0  0.2219362E-002  0.2760162E+03  0.7546771E-02  0.1097885E+00
         21   -1    0    0  502  501  0.00000000000E+00  0.00000000000E+00  0.70443546290E+03  0.70443546290E+03  0.00000000000E+00 0.  1.
         21   -1    0    0  501  502 -0.00000000000E+00 -0.00000000000E+00 -0.10815038621E+03  0.10815038621E+03  0.00000000000E+00 0.  1.
         25    1    1    2    0    0 -0.21176459051E+03  0.12525262734E+03  0.30586240543E+03  0.41195785404E+03  0.12500000000E+03 0.  0.
         25    1    1    2    0    0  0.21176459051E+03 -0.12525262734E+03  0.29042267126E+03  0.40062799507E+03  0.12500000000E+03 0.  0.
</event>
<event>
 4    0  0.2219362E-002  0.1529824E+03  0.7546771E-02  0.1196855E+00
         21   -1    0    0  502  501  0.00000000000E+00  0.00000000000E+00  0.55509945433E+02  0.55509945433E+02  0.00000000000E+00 0.  1.
         21   -1    0    0  501  502 -0.00000000000E+00 -0.00000000000E+00 -0.42161146566E+03  0.42161146566E+03  0.00000000000E+00 0.  1.
         25    1    1    2    0    0  0.51856636506E+02  0.67678600421E+02 -0.14786476530E+03  0.21156202996E+03  0.12500000000E+03 0.  0.
         25    1    1    2    0    0 -0.51856636506E+02 -0.67678600421E+02 -0.21823675492E+03  0.26555938113E+03  0.12500000000E+03 0.  0.
</event>
<event>
 4    0  0.2219362E-002  0.2232487E+03  0.7546771E-02  0.1131484E+00
         21   -1    0    0  502  501  0.00000000000E+00  0.00000000000E+00  0.15211023227E+03  0.15211023227E+03  0.00000000000E+00 0.  1.
         21   -1    0    0  501  502 -0.00000000000E+00 -0.00000000000E+00 -0.32765687137E+03  0.32765687137E+03  0.00000000000E+00 0.  1.
         25    1    1    2    0    0  0.89652350227E+02 -0.14042519007E+03 -0.17412421655E+03  0.27147931909E+03  0.12500000000E+03 0.  0.
         25    1    1    2    0    0 -0.89652350227E+02  0.14042519007E+03 -0.14224225498E+01  0.20828778455E+03  0.12500000000E+03 0.  0.
</event>
<event>
 4    0  0.2219362E-002  0.2150682E+03  0.7546771E-02  0.1137614E+00
         21   -1    0    0  502  501  0.00000000000E+00  0.00000000000E+00  0.15787097228E+04  0.15787097228E+04  0.00000000000E+00 0.  1.
         21   -1    0    0  501  502 -0.00000000000E+00 -0.00000000000E+00 -0.29298818680E+02  0.29298818680E+02  0.00000000000E+00 0.  1.
         25    1    1    2    0    0  0.94780348483E+01  0.12277363474E+02  0.14263918713E+04  0.14319425049E+04  0.12500000000E+03 0.  0.
         25    1    1    2    0    0 -0.94780348483E+01 -0.12277363474E+02  0.12301903276E+03  0.17606603653E+03  0.12500000000E+03 0.  0.
</event>
<event>
 4    0  0.2219362E-002  0.2124417E+03  0.7546771E-02  0.1139647E+00
         21   -1    0    0  502  501  0.00000000000E+00  0.00000000000E+00  0.30355405299E+02  0.30355405299E+02  0.00000000000E+00 0. -1.
         21   -1    0    0  501  502 -0.00000000000E+00 -0.00000000000E+00 -0.14867696767E+04  0.14867696767E+04  0.00000000000E+00 0. -1.
         25    1    1    2    0    0  0.96695698370E+02 -0.42654611411E+02 -0.12117287942E+04  0.12227351081E+04  0.12500000000E+03 0.  0.
         25    1    1    2    0    0 -0.96695698370E+02  0.42654611411E+02 -0.24468547716E+03  0.29438997383E+03  0.12500000000E+03 0.  0.
</event>
<event>
 4    0  0.2219362E-002  0.2391912E+03  0.7546771E-02  0.1120333E+00
         21   -1    0    0  502  501  0.00000000000E+00  0.00000000000E+00  0.71067772672E+02  0.71067772672E+02  0.00000000000E+00 0.  1.
         21   -1    0    0  501  502 -0.00000000000E+00 -0.00000000000E+00 -0.80504053761E+03  0.80504053761E+03  0.00000000000E+00 0.  1.
         25    1    1    2    0    0 -0.36813308945E+02  0.12883886483E+03 -0.85446550978E+02  0.20218997473E+03  0.12500000000E+03 0.  0.
         25    1    1    2    0    0  0.36813308945E+02 -0.12883886483E+03 -0.64852621396E+03  0.67391833555E+03  0.12500000000E+03 0.  0.
</event>
<event>
 4    0  0.2219362E-002  0.2926214E+03  0.7546771E-02  0.1088988E+00
         21   -1    0    0  502  501  0.00000000000E+00  0.00000000000E+00  0.26596614467E+03  0.26596614467E+03  0.00000000000E+00 0.  1.
         21   -1    0    0  501  502 -0.00000000000E+00 -0.00000000000E+00 -0.32194810673E+03  0.32194810673E+03  0.00000000000E+00 0.  1.
         25    1    1    2    0    0 -0.18907009762E+03 -0.96919151694E+02  0.13040395877E+03  0.27887455287E+03  0.12500000000E+03 0.  0.
         25    1    1    2    0    0  0.18907009762E+03  0.96919151694E+02 -0.18638592084E+03  0.30903969853E+03  0.12500000000E+03 0.  0.
</event>
<event>
 4    0  0.2219362E-002  0.2350551E+03  0.7546771E-02  0.1123131E+00
         21   -1    0    0  502  501  0.00000000000E+00  0.00000000000E+00  0.95449423662E+02  0.95449423662E+02  0.00000000000E+00 0. -1.
         21   -1    0    0  501  502 -0.00000000000E+00 -0.00000000000E+00 -0.57885005057E+03  0.57885005057E+03  0.00000000000E+00 0. -1.
         25    1    1    2    0    0  0.11970928001E+03 -0.82052194170E+02 -0.46276466162E+02  0.19705173333E+03  0.12500000000E+03 0.  0.
         25    1    1    2    0    0 -0.11970928001E+03  0.82052194170E+02 -0.43712416075E+03  0.47724774090E+03  0.12500000000E+03 0.  0.
</event>
<event>
 4    0  0.2219362E-002  0.2562718E+03  0.7546771E-02  0.1109404E+00
         21   -1    0    0  502  501  0.00000000000E+00  0.00000000000E+00  0.65549076273E+03  0.65549076273E+03  0.00000000000E+00 0. -1.
         21   -1    0    0  501  502 -0.00000000000E+00 -0.00000000000E+00 -0.10019248197E+03  0.10019248197E+03  0.00000000000E+00 0. -1.
         25    1    1    2    0    0 -0.16136826492E+03  0.12923111459E+03  0.40370502681E+03  0.47047119632E+03  0.12500000000E+03 0.  0.
         25    1    1    2    0    0  0.16136826492E+03 -0.12923111459E+03  0.15159325395E+03  0.28521204838E+03  0.12500000000E+03 0.  0.
</event>
<event>
 4    0  0.2219362E-002  0.3069043E+03  0.7546771E-02  0.1081839E+00
         21   -1    0    0  502  501  0.00000000000E+00  0.00000000000E+00  0.18575796007E+03  0.18575796007E+03  0.00000000000E+00 0. -1.
         21   -1    0    0  501  502 -0.00000000000E+00 -0.00000000000E+00 -0.50705911525E+03  0.50705911525E+03  0.00000000000E+00 0. -1.
         25    1    1    2    0    0  0.42354600385E+02  0.80918210387E+02  0.13845679089E+03  0.20769437134E+03  0.12500000000E+03 0.  0.
         25    1    1    2    0    0 -0.42354600385E+02 -0.80918210387E+02 -0.45975794606E+03  0.48512270398E+03  0.12500000000E+03 0.  0.
</event>
<event>
 4    0  0.2219362E-002  0.1870552E+03  0.7546771E-02  0.1161145E+00
         21   -1    0    0  502  501  0.00000000000E+00  0.00000000000E+00  0.28859012711E+02  0.28859012711E+02  0.00000000000E+00 0.  1.
         21   -1    0    0  501  502 -0.00000000000E+00 -0.00000000000E+00 -0.12124335899E+04  0.12124335899E+04  0.00000000000E+00 0.  1.
         25    1    1    2    0    0  0.46264085688E+02 -0.94704564432E+02 -0.89325535403E+03  0.90809660701E+03  0.12500000000E+03 0.  0.
         25    1    1    2    0    0 -0.46264085688E+02  0.94704564432E+02 -0.29031922312E+03  0.33319599557E+03  0.12500000000E+03 0.  0.
</event>
<event>
 4    0  0.2219362E-002  0.2852960E+03  0.7546771E-02  0.1092831E+00
         21   -1    0    0  502  501  0.00000000000E+00  0.00000000000E+00  0.77095631066E+02  0.77095631066E+02  0.00000000000E+00 0.  1.
         21   -1    0    0  501  502 -0.00000000000E+00 -0.00000000000E+00 -0.10557510654E+04  0.10557510654E+04  0.00000000000E+00 0.  1.
         25    1    1    2    0    0 -0.25193826319E+03 -0.47860379041E+02 -0.49389423905E+03  0.57036832284E+03  0.12500000000E+03 0.  0.
         25    1    1    2    0    0  0.25193826319E+03  0.47860379041E+02 -0.48476119530E+03  0.56247837363E+03  0.12500000000E+03 0.  0.
</event>
<event>
 4    0  0.2219362E-002  0.4044359E+03  0.7546771E-02  0.1042254E+00
         21   -1    0    0  502  501  0.00000000000E+00  0.00000000000E+00  0.37415134323E+03  0.37415134323E+03  0.00000000000E+00 0.  1.
         21   -1    0    0  501  502 -0.00000000000E+00 -0.00000000000E+00 -0.43717180594E+03  0.43717180594E+03  0.00000000000E+00 0.  1.
         25    1    1    2    0    0 -0.18646854245E+03  0.32812978735E+03  0.42901814888E+02  0.39988153294E+03  0.12500000000E+03 0.  0.
         25    1    1    2    0    0  0.18646854245E+03 -0.32812978735E+03 -0.10592227760E+03  0.41144161622E+03  0.12500000000E+03 0.  0.
</event>
<event>
 4    0  0.2219362E-002  0.1941646E+03  0.7546771E-02  0.1154758E+00
         21   -1    0    0  502  501  0.00000000000E+00  0.00000000000E+00  0.59231438842E+02  0.59231438842E+02  0.00000000000E+00 0.  1.
         21   -1    0    0  501  502 -0.00000000000E+00 -0.00000000000E+00 -0.63648442215E+03  0.63648442215E+03  0.00000000000E+00 0.  1.
         25    1    1    2    0    0  0.24973886372E+02 -0.93634827583E+02 -0.86857200847E+02  0.18044486492E+03  0.12500000000E+03 0.  0.
         25    1    1    2    0    0 -0.24973886372E+02  0.93634827583E+02 -0.49039578246E+03  0.51527099607E+03  0.12500000000E+03 0.  0.
</event>
<event>
 4    0  0.2219362E-002  0.3742802E+03  0.7546771E-02  0.1053068E+00
         21   -1    0    0  502  501  0.00000000000E+00  0.00000000000E+00  0.12602967535E+04  0.12602967535E+04  0.00000000000E+00 0. -1.
         21   -1    0    0  501  502 -0.00000000000E+00 -0.00000000000E+00 -0.11115292442E+03  0.11115292442E+03  0.00000000000E+00 0. -1.
         25    1    1    2    0    0  0.33839462595E+03  0.85528346445E+02  0.48053152976E+03  0.60692797926E+03  0.12500000000E+03 0.  0.
         25    1    1    2    0    0 -0.33839462595E+03 -0.85528346445E+02  0.66861229936E+03  0.76452169869E+03  0.12500000000E+03 0.  0.
</event>
<event>
 4    0  0.2219362E-002  0.2774214E+03  0.7546771E-02  0.1097106E+00
         21   -1    0    0  502  501  0.00000000000E+00  0.00000000000E+00  0.30376358383E+03  0.30376358383E+03  0.00000000000E+00 0.  1.
         21   -1    0    0  501  502 -0.00000000000E+00 -0.00000000000E+00 -0.25336355126E+03  0.25336355126E+03  0.00000000000E+00 0.  1.
         25    1    1    2    0    0  0.15913589469E+03 -0.18348344519E+03  0.73847526359E+02  0.28296442318E+03  0.12500000000E+03 0.  0.
         25    1    1    2    0    0 -0.15913589469E+03  0.18348344519E+03 -0.23447493784E+02  0.27416271191E+03  0.12500000000E+03 0.  0.
</event>
<event>
 4    0  0.2219362E-002  0.2185187E+03  0.7546771E-02  0.1134992E+00
         21   -1    0    0  502  501  0.00000000000E+00  0.00000000000E+00  0.62019721213E+02  0.62019721213E+02  0.00000000000E+00 0.  1.
         21   -1    0    0  501  502 -0.00000000000E+00 -0.00000000000E+00 -0.76992352496E+03  0.76992352496E+03  0.00000000000E+00 0.  1.
         25    1    1    2    0    0 -0.48177606675E+02 -0.65254752756E+01 -0.68235288386E+03  0.69540931955E+03  0.12500000000E+03 0.  0.
         25    1    1    2    0    0  0.48177606675E+02  0.65254752756E+01 -0.25550919897E+02  0.13653392663E+03  0.12500000000E+03 0.  0.
</event>
<event>
 4    0  0.2219362E-002  0.1572972E+03  0.7546771E-02  0.1191782E+00
         21   -1    0    0  502  501  0.00000000000E+00  0.00000000000E+00  0.58835647456E+02  0.58835647456E+02  0.00000000000E+00 0. -1.
         21   -1    0    0  501  502 -0.00000000000E+00 -0.00000000000E+00 -0.42053455561E+03  0.42053455561E+03  0.00000000000E+00 0. -1.
         25    1    1    2    0    0 -0.84191338522E+02 -0.38220529882E+02 -0.14451995862E+03  0.21227342940E+03  0.12500000000E+03 0.  0.
         25    1    1    2    0    0  0.84191338522E+02  0.38220529882E+02 -0.21717894953E+03  0.26709677367E+03  0.12500000000E+03 0.  0.
</event>
<event>
 4    0  0.2219362E-002  0.1913362E+03  0.7546771E-02  0.1157262E+00
         21   -1    0    0  502  501  0.00000000000E+00  0.00000000000E+00  0.11388691415E+03  0.11388691415E+03  0.00000000000E+00 0.  1.
         21   -1    0    0  501  502 -0.00000000000E+00 -0.00000000000E+00 -0.32145537227E+03  0.32145537227E+03  0.00000000000E+00 0.  1.
         25    1    1    2    0    0  0.10892360329E+03 -0.92040663213E+02 -0.74808522525E+02  0.20385570897E+03  0.12500000000E+03 0.  0.
         25    1    1    2    0    0 -0.10892360329E+03  0.92040663213E+02 -0.13275993560E+03  0.23148657745E+03  0.12500000000E+03 0.  0.
</event>
<event>
 4    0  0.2219362E-002  0.1873570E+03  0.7546771E-02  0.1160867E+00
         21   -1    0    0  502  501  0.00000000000E+00  0.00000000000E+00  0.15611799923E+03  0.15611799923E+03  0.00000000000E+00 0.  1.
         21   -1    0    0  501  502 -0.00000000000E+00 -0.00000000000E+00 -0.22484678414E+03  0.22484678414E+03  0.00000000000E+00 0.  1.
         25    1    1    2    0    0  0.48934704587E+01 -0.12025656185E+03  0.37468636729E+02  0.17752319696E+03  0.12500000000E+03 0.  0.
         25    1    1    2    0    0 -0.48934704587E+01  0.12025656185E+03 -0.10619742164E+03  0.20344158642E+03  0.12500000000E+03 0.  0.
</event>
<event>
 4    0  0.2219362E-002  0.2102723E+03  0.7546771E-02  0.1141351E+00
         21   -1    0    0  502  501  0.00000000000E+00  0.00000000000E+00  0.89670429161E+02  0.89670429161E+02  0.00000000000E+00 0. -1.
         21   -1    0    0  501  502 -0.00000000000E+00 -0.00000000000E+00 -0.49307730679E+03  0.49307730679E+03  0.00000000000E+00 0. -1.
         25    1    1    2    0    0  0.19424479112E+02  0.56068280734E+02 -0.42110138893E+03  0.44325200761E+03  0.12500000000E+03 0.  0.
         25    1    1    2    0    0 -0.19424479112E+02 -0.56068280734E+02  0.17694511306E+02  0.13949572833E+03  0.12500000000E+03 0.  0.
</event>
<event>
 4    0  0.2219362E-002  0.2476456E+03  0.7546771E-02  0.1114802E+00
         21   -1    0    0  502  501  0.00000000000E+00  0.00000000000E+00  0.20298258933E+03  0.20298258933E+03  0.00000000000E+00 0.  1.
         21   -1    0    0  501  502 -0.00000000000E+00 -0.00000000000E+00 -0.30213606170E+03  0.30213606170E+03  0.00000000000E+00 0.  1.
         25    1    1    2    0    0  0.38038550802E+02  0.15052249494E+03  0.10030670309E+03  0.22313759772E+03  0.12500000000E+03 0.  0.
         25    1    1    2    0    0 -0.38038550802E+02 -0.15052249494E+03 -0.19946017546E+03  0.28198105331E+03  0.12500000000E+03 0.  0.
</event>
<event>
 4    0  0.2219362E-002  0.2679285E+03  0.7546771E-02  0.1102471E+00
         21   -1    0    0  502  501  0.00000000000E+00  0.00000000000E+00  0.52573744211E+02  0.52573744211E+02  0.00000000000E+00 0.  1.
         21   -1    0    0  501  502 -0.00000000000E+00 -0.00000000000E+00 -0.13654279848E+04  0.13654279848E+04  0.00000000000E+00 0.  1.
         25    1    1    2    0    0  0.14541952369E+03 -0.18717040008E+02 -0.16374807321E+03  0.25285489304E+03  0.12500000000E+03 0.  0.
         25    1    1    2    0    0 -0.14541952369E+03  0.18717040008E+02 -0.11491061674E+04  0.11651468360E+04  0.12500000000E+03 0.  0.
</event>
<event>
 4    0  0.2219362E-002  0.2587047E+03  0.7546771E-02  0.1107924E+00
         21   -1    0    0  502  501  0.00000000000E+00  0.00000000000E+00  0.16951711794E+03  0.16951711794E+03  0.00000000000E+00 0.  1.
         21   -1    0    0  501  502 -0.00000000000E+00 -0.00000000000E+00 -0.39481645477E+03  0.39481645477E+03  0.00000000000E+00 0.  1.
         25    1    1    2    0    0  0.97429924831E+02 -0.15555177257E+03 -0.25740447463E+03  0.33995736169E+03  0.12500000000E+03 0.  0.
         25    1    1    2    0    0 -0.97429924831E+02  0.15555177257E+03  0.32105137808E+02  0.22437621103E+03  0.12500000000E+03 0.  0.
</event>
<event>
 4    0  0.2219362E-002  0.2113701E+03  0.7546771E-02  0.1140486E+00
         21   -1    0    0  502  501  0.00000000000E+00  0.00000000000E+00  0.16018179447E+03  0.16018179447E+03  0.00000000000E+00 0.  1.
         21   -1    0    0  501  502 -0.00000000000E+00 -0.00000000000E+00 -0.27891623700E+03  0.27891623700E+03  0.00000000000E+00 0.  1.
         25    1    1    2    0    0 -0.13507531476E+03 -0.39501621798E+02 -0.15924725755E+03  0.24655710864E+03  0.12500000000E+03 0.  0.
         25    1    1    2    0    0  0.13507531476E+03  0.39501621798E+02  0.40512815030E+02  0.19254092283E+03  0.12500000000E+03 0.  0.
</event>
<event>
 4    0  0.2219362E-002  0.1853269E+03  0.7546771E-02  0.1162745E+00
         21   -1    0    0  502  501  0.00000000000E+00  0.00000000000E+00  0.35380683510E+03  0.35380683510E+03  0.00000000000E+00 0.  1.
         21   -1    0    0  501  502 -0.00000000000E+00 -0.00000000000E+00 -0.97075743103E+02  0.97075743103E+02  0.00000000000E+00 0.  1.
         25    1    1    2    0    0  0.11596351482E+03  0.66327413243E+02  0.92398885185E+02  0.20496198794E+03  0.12500000000E+03 0.  0.
         25    1    1    2    0    0 -0.11596351482E+03 -0.66327413243E+02  0.16433220681E+03  0.24592059026E+03  0.12500000000E+03 0.  0.
</event>
<event>
 4    0  0.2219362E-002  0.2008077E+03  0.7546771E-02  0.1149059E+00
         21   -1    0    0  502  501  0.00000000000E+00  0.00000000000E+00  0.80796852326E+02  0.80796852326E+02  0.00000000000E+00 0. -1.
         21   -1    0    0  501  502 -0.00000000000E+00 -0.00000000000E+00 -0.49907570131E+03  0.49907570131E+03  0.00000000000E+00 0. -1.
         25    1    1    2    0    0  0.96514794109E+00 -0.13558682316E+03 -0.32386899354E+03  0.37269403417E+03  0.12500000000E+03 0.  0.
         25    1    1    2    0    0 -0.96514794109E+00  0.13558682316E+03 -0.94409855443E+02  0.20717851947E+03  0.12500000000E+03 0.  0.
</event>
<event>
 4    0  0.2219362E-002  0.1767058E+03  0.7546771E-02  0.1171030E+00
         21   -1    0    0  502  501  0.00000000000E+00  0.00000000000E+00  0.89596826277E+03  0.89596826277E+03  0.00000000000E+00 0. -1.
         21   -1    0    0  501  502 -0.00000000000E+00 -0.00000000000E+00 -0.34850494967E+02  0.34850494967E+02  0.00000000000E+00 0. -1.
         25    1    1    2    0    0 -0.88041458769E+02 -0.72398311484E+02  0.29607657970E+03  0.34099729473E+03  0.12500000000E+03 0.  0.
         25    1    1    2    0    0  0.88041458769E+02  0.72398311484E+02  0.56504118810E+03  0.58982146300E+03  0.12500000000E+03 0.  0.
</event>
<event>
 4    0  0.2219362E-002  0.2030144E+03  0.7546771E-02  0.1147220E+00
         21   -1    0    0  502  501  0.00000000000E+00  0.00000000000E+00  0.68214264439E+03  0.68214264439E+03  0.00000000000E+00 0.  1.
         21   -1    0    0  501  502 -0.00000000000E+00 -0.00000000000E+00 -0.60419702934E+02  0.60419702934E+02  0.00000000000E+00 0.  1.
         25    1    1    2    0    0 -0.72767174102E+01 -0.15680515659E+03  0.25452103951E+03  0.32410919040E+03  0.12500000000E+03 0.  0.
         25    1    1    2    0    0  0.72767174102E+01  0.15680515659E+03  0.36720190195E+03  0.41845315693E+03  0.12500000000E+03 0.  0.
</event>
<event>
 4    0  0.2219362E-002  0.1784582E+03  0.7546771E-02  0.1169304E+00
         21   -1    0    0  502  501  0.00000000000E+00  0.00000000000E+00  0.20531691444E+03  0.20531691444E+03  0.00000000000E+00 0.  1.
         21   -1    0    0  501  502 -0.00000000000E+00 -0.00000000000E+00 -0.15511298492E+03  0.15511298492E+03  0.00000000000E+00 0.  1.
         25    1    1    2    0    0 -0.72540986114E+02  0.93545317319E+02 -0.22364992118E+02  0.17360332350E+03  0.12500000000E+03 0.  0.
         25    1    1    2    0    0  0.72540986114E+02 -0.93545317319E+02  0.72568921632E+02  0.18682657585E+03  0.12500000000E+03 0.  0.
</event>
<event>
 4    0  0.2219362E-002  0.1902438E+03  0.7546771E-02  0.1158242E+00
         21   -1    0    0  502  501  0.00000000000E+00  0.00000000000E+00  0.24397501757E+03  0.24397501757E+03  0.00000000000E+00 0. -1.
         21   -1    0    0  501  502 -0.00000000000E+00 -0.00000000000E+00 -0.14834592731E+03  0.14834592731E+03  0.00000000000E+00 0. -1.
         25    1    1    2    0    0  0.22491224450E+02 -0.86040908900E+02 -0.68195980870E+02  0.16788265243E+03  0.12500000000E+03 0.  0.
         25    1    1    2    0    0 -0.22491224450E+02  0.86040908900E+02  0.16382507113E+03  0.22443829244E+03  0.12500000000E+03 0.  0.
</event>
<event>
 4    0  0.2219362E-002  0.1768361E+03  0.7546771E-02  0.1170901E+00
         21   -1    0    0  502  501  0.00000000000E+00  0.00000000000E+00  0.17992648808E+03  0.17992648808E+03  0.00000000000E+00 0. -1.
         21   -1    0    0  501  502 -0.00000000000E+00 -0.00000000000E+00 -0.17379874289E+03  0.17379874289E+03  0.00000000000E+00 0. -1.
         25    1    1    2    0    0  0.33183364883E+02  0.11374949137E+03 -0.37016010537E+02  0.17616829320E+03  0.12500000000E+03 0.  0.
         25    1    1    2    0    0 -0.33183364883E+02 -0.11374949137E+03  0.43143755725E+02  0.17755693777E+03  0.12500000000E+03 0.  0.
</event>
<event>
 4    0  0.2219362E-002  0.2059151E+03  0.7546771E-02  0.1144842E+00
         21   -1    0    0  502  501  0.00000000000E+00  0.00000000000E+00  0.52303706023E+03  0.52303706023E+03  0.00000000000E+00 0. -1.
         21   -1    0    0  501  502 -0.00000000000E+00 -0.00000000000E+00 -0.81066962417E+02  0.81066962417E+02  0.00000000000E+00 0. -1.
         25    1    1    2    0    0  0.73333472967E+02  0.14588308931E+03  0.23680772421E+03  0.31362807950E+03  0.12500000000E+03 0.  0.
         25    1    1    2    0    0 -0.73333472967E+02 -0.14588308931E+03  0.20516237360E+03  0.29047594315E+03  0.12500000000E+03 0.  0.
</event>
<event>
 4    0  0.2219362E-002  0.2700942E+03  0.7546771E-02  0.1101226E+00
         21   -1    0    0  502  501  0.00000000000E+00  0.00000000000E+00  0.90942037442E+02  0.90942037442E+02  0.00000000000E+00 0. -1.
         21   -1    0    0  501  502 -0.00000000000E+00 -0.00000000000E+00 -0.80216866717E+03  0.80216866717E+03  0.00000000000E+00 0. -1.
         25    1    1    2    0    0  0.57505664069E+02 -0.61096992598E+02 -0.72636584926E+03  0.74180326966E+03  0.12500000000E+03 0.  0.
         25    1    1    2    0    0 -0.57505664069E+02  0.61096992598E+02  0.15139219531E+02  0.15130743495E+03  0.12500000000E+03 0.  0.
</event>
<event>
 4    0  0.2219362E-002  0.2252784E+03  0.7546771E-02  0.1130008E+00
         21   -1    0    0  502  501  0.00000000000E+00  0.00000000000E+00  0.25481935231E+03  0.25481935231E+03  0.00000000000E+00 0.  1.
         21   -1    0    0  501  502 -0.00000000000E+00 -0.00000000000E+00 -0.19916215665E+03  0.19916215665E+03  0.00000000000E+00 0.  1.
         25    1    1    2    0    0 -0.25917773384E+02 -0.35902543109E+02 -0.15566725435E+03  0.20449454187E+03  0.12500000000E+03 0.  0.
         25    1    1    2    0    0  0.25917773384E+02  0.35902543109E+02  0.21132445001E+03  0.24948696710E+03  0.12500000000E+03 0.  0.
</event>
<event>
 4    0  0.2219362E-002  0.1941635E+03  0.7546771E-02  0.1154759E+00
         21   -1    0    0  502  501  0.00000000000E+00  0.00000000000E+00  0.10297331888E+03  0.10297331888E+03  0.00000000000E+00 0. -1.
         21   -1    0    0  501  502 -0.00000000000E+00 -0.00000000000E+00 -0.36610919282E+03  0.36610919282E+03  0.00000000000E+00 0. -1.
         25    1    1    2    0    0  0.18978351886E+01  0.51706420075E+02 -0.29980530786E+03  0.32891545765E+03  0.12500000000E+03 0.  0.
         25    1    1    2    0    0 -0.18978351886E+01 -0.51706420075E+02  0.36669433925E+02  0.14016705405E+03  0.12500000000E+03 0.  0.
</event>
<event>
 4    0  0.2219362E-002  0.1970704E+03  0.7546771E-02  0.1152235E+00
         21   -1    0    0  502  501  0.00000000000E+00  0.00000000000E+00  0.78713047830E+02  0.78713047830E+02  0.00000000000E+00 0.  1.
         21   -1    0    0  501  502 -0.00000000000E+00 -0.00000000000E+00 -0.49339655332E+03  0.49339655332E+03  0.00000000000E+00 0.  1.
         25    1    1    2    0    0 -0.91096135288E+02 -0.46633296448E+02 -0.37116980451E+03  0.40480266054E+03  0.12500000000E+03 0.  0.
         25    1    1    2    0    0  0.91096135288E+02  0.46633296448E+02 -0.43513700977E+02  0.16730694061E+03  0.12500000000E+03 0.  0.
</event>
<event>
 4    0  0.2219362E-002  0.1942281E+03  0.7546771E-02  0.1154702E+00
         21   -1    0    0  502  501  0.00000000000E+00  0.00000000000E+00  0.15754555978E+03  0.15754555978E+03  0.00000000000E+00 0.  1.
         21   -1    0    0  501  502 -0.00000000000E+00 -0.00000000000E+00 -0.23945160100E+03  0.23945160100E+03  0.00000000000E+00 0.  1.
         25    1    1    2    0    0 -0.32115080709E+02  0.11414893086E+03  0.50674155926E+02  0.17959461825E+03  0.12500000000E+03 0.  0.
         25    1    1    2    0    0  0.32115080709E+02 -0.11414893086E+03 -0.13258019715E+03  0.21740254254E+03  0.12500000000E+03 0.  0.
</event>
<event>
 4    0  0.2219362E-002  0.4541424E+03  0.7546771E-02  0.1026494E+00
         21   -1    0    0  502  501  0.00000000000E+00  0.00000000000E+00  0.13378333256E+04  0.13378333256E+04  0.00000000000E+00 0. -1.
         21   -1    0    0  501  502 -0.00000000000E+00 -0.00000000000E+00 -0.15416366754E+03  0.15416366754E+03  0.00000000000E+00 0. -1.
         25    1    1    2    0    0  0.10504146003E+03 -0.24531445539E+03  0.11594598807E+04  0.11963214891E+04  0.12500000000E+03 0.  0.
         25    1    1    2    0    0 -0.10504146003E+03  0.24531445539E+03  0.24209777335E+02  0.29567550400E+03  0.12500000000E+03 0.  0.
</event>
<event>
 4    0  0.2219362E-002  0.2216501E+03  0.7546771E-02  0.1132659E+00
         21   -1    0    0  502  501  0.00000000000E+00  0.00000000000E+00  0.50526248383E+02  0.50526248383E+02  0.00000000000E+00 0.  1.
         21   -1    0    0  501  502 -0.00000000000E+00 -0.00000000000E+00 -0.97234153347E+03  0.97234153347E+03  0.00000000000E+00 0.  1.
         25    1    1    2    0    0  0.96166405998E+02  0.27755526794E+02 -0.10730072567E+03  0.19276097281E+03  0.12500000000E+03 0.  0.
         25    1    1    2    0    0 -0.96166405998E+02 -0.27755526794E+02 -0.81451455942E+03  0.83010680904E+03  0.12500000000E+03 0.  0.
</event>
<event>
 4    0  0.2219362E-002  0.1535246E+03  0.7546771E-02  0.1196208E+00
         21   -1    0    0  502  501  0.00000000000E+00  0.00000000000E+00  0.14237960511E+03  0.14237960511E+03  0.00000000000E+00 0. -1.
         21   -1    0    0  501  502 -0.00000000000E+00 -0.00000000000E+00 -0.16554193555E+03  0.16554193555E+03  0.00000000000E+00 0. -1.
         25    1    1    2    0    0  0.52392028417E+02  0.13989517893E+02 -0.82522269264E+02  0.15929706895E+03  0.12500000000E+03 0.  0.
         25    1    1    2    0    0 -0.52392028417E+02 -0.13989517893E+02  0.59359938822E+02  0.14862447170E+03  0.12500000000E+03 0.  0.
</event>
<event>
 4    0  0.2219362E-002  0.3353509E+03  0.7546771E-02  0.1068793E+00
         21   -1    0    0  502  501  0.00000000000E+00  0.00000000000E+00  0.33215419996E+03  0.33215419996E+03  0.00000000000E+00 0. -1.
         21   -1    0    0  501  502 -0.00000000000E+00 -0.00000000000E+00 -0.33857842448E+03  0.33857842448E+03  0.00000000000E+00 0. -1.
         25    1    1    2    0    0  0.27172697234E+03 -0.14307918934E+03  0.47069849935E+02  0.33488471553E+03  0.12500000000E+03 0.  0.
         25    1    1    2    0    0 -0.27172697234E+03  0.14307918934E+03 -0.53494074452E+02  0.33584790892E+03  0.12500000000E+03 0.  0.
</event>
<event>
 4    0  0.2219362E-002  0.2566752E+03  0.7546771E-02  0.1109157E+00
         21   -1    0    0  502  501  0.00000000000E+00  0.00000000000E+00  0.89123599908E+03  0.89123599908E+03  0.00000000000E+00 0.  1.
         21   -1    0    0  501  502 -0.00000000000E+00 -0.00000000000E+00 -0.73922259649E+02  0.73922259649E+02  0.00000000000E+00 0.  1.
         25    1    1    2    0    0 -0.71796466152E+02  0.18555153629E+03  0.60289268545E+03  0.64706158543E+03  0.12500000000E+03 0.  0.
         25    1    1    2    0    0  0.71796466152E+02 -0.18555153629E+03  0.21442105398E+03  0.31809667329E+03  0.12500000000E+03 0.  0.
</event>
<event>
 4    0  0.2219362E-002  0.1829775E+03  0.7546771E-02  0.1164952E+00
         21   -1    0    0  502  501  0.00000000000E+00  0.00000000000E+00  0.18909746905E+02  0.18909746905E+02  0.00000000000E+00 0.  1.
         21   -1    0    0  501  502 -0.00000000000E+00 -0.00000000000E+00 -0.17705554741E+04  0.17705554741E+04  0.00000000000E+00 0.  1.
         25    1    1    2    0    0 -0.13180589738E+03 -0.10069153110E+02 -0.97134075431E+03  0.98823177616E+03  0.12500000000E+03 0.  0.
         25    1    1    2    0    0  0.13180589738E+03  0.10069153110E+02 -0.78030497288E+03  0.80123344484E+03  0.12500000000E+03 0.  0.
</event>
<event>
 4    0  0.2219362E-002  0.2441997E+03  0.7546771E-02  0.1117026E+00
         21   -1    0    0  502  501  0.00000000000E+00  0.00000000000E+00  0.13272658257E+04  0.13272658257E+04  0.00000000000E+00 0.  1.
         21   -1    0    0  501  502 -0.00000000000E+00 -0.00000000000E+00 -0.44929583391E+02  0.44929583391E+02  0.00000000000E+00 0.  1.
         25    1    1    2    0    0  0.14365060290E+03  0.10543619699E+03  0.33012616920E+03  0.39542455025E+03  0.12500000000E+03 0.  0.
         25    1    1    2    0    0 -0.14365060290E+03 -0.10543619699E+03  0.95221007309E+03  0.97677085882E+03  0.12500000000E+03 0.  0.
</event>
<event>
 4    0  0.2219362E-002  0.2195564E+03  0.7546771E-02  0.1134214E+00
         21   -1    0    0  502  501  0.00000000000E+00  0.00000000000E+00  0.28536424279E+03  0.28536424279E+03  0.00000000000E+00 0. -1.
         21   -1    0    0  501  502 -0.00000000000E+00 -0.00000000000E+00 -0.16892450963E+03  0.16892450963E+03  0.00000000000E+00 0. -1.
         25    1    1    2    0    0 -0.80063185508E+02 -0.46405650703E+02 -0.10210835808E+03  0.18605030202E+03  0.12500000000E+03 0.  0.
         25    1    1    2    0    0  0.80063185508E+02  0.46405650703E+02  0.21854809123E+03  0.26823845040E+03  0.12500000000E+03 0.  0.
</event>
<event>
 4    0  0.2219362E-002  0.2849751E+03  0.7546771E-02  0.1093002E+00
         21   -1    0    0  502  501  0.00000000000E+00  0.00000000000E+00  0.66507035982E+03  0.66507035982E+03  0.00000000000E+00 0.  1.
         21   -1    0    0  501  502 -0.00000000000E+00 -0.00000000000E+00 -0.12210857505E+03  0.12210857505E+03  0.00000000000E+00 0.  1.
         25    1    1    2    0    0  0.68355267454E+02 -0.23262042160E+03  0.15758032780E+03  0.31502581298E+03  0.12500000000E+03 0.  0.
         25    1    1    2    0    0 -0.68355267454E+02  0.23262042160E+03  0.38538145696E+03  0.47215312188E+03  0.12500000000E+03 0.  0.
</event>
<event>
 4    0  0.2219362E-002  0.2051290E+03  0.7546771E-02  0.1145482E+00
         21   -1    0    0  502  501  0.00000000000E+00  0.00000000000E+00  0.79310772959E+02  0.79310772959E+02  0.00000000000E+00 0.  1.
         21   -1    0    0  501  502 -0.00000000000E+00 -0.00000000000E+00 -0.53054457599E+03  0.53054457599E+03  0.00000000000E+00 0.  1.
         25    1    1    2    0    0 -0.62951197345E+02  0.12589009479E+03 -0.34676328625E+03  0.39456424813E+03  0.12500000000E+03 0.  0.
         25    1    1    2    0    0  0.62951197345E+02 -0.12589009479E+03 -0.10447051678E+03  0.21529110082E+03  0.12500000000E+03 0.  0.
</event>
<event>
 4    0  0.2219362E-002  0.1972888E+03  0.7546771E-02  0.1152047E+00
         21   -1    0    0  502  501  0.00000000000E+00  0.00000000000E+00  0.45384503744E+02  0.45384503744E+02  0.00000000000E+00 0. -1.
         21   -1    0    0  501  502 -0.00000000000E+00 -0.00000000000E+00 -0.85762491522E+03  0.85762491522E+03  0.00000000000E+00 0. -1.
         25    1    1    2    0    0 -0.46535755466E+01  0.31260731113E+02 -0.64375015268E+02  0.14411117814E+03  0.12500000000E+03 0.  0.
         25    1    1    2    0    0  0.46535755466E+01 -0.31260731113E+02 -0.74786539621E+03  0.75889824082E+03  0.12500000000E+03 0.  0.
</event>
<event>
 4    0  0.2219362E-002  0.1967579E+03  0.7546771E-02  0.1152504E+00
         21   -1    0    0  502  501  0.00000000000E+00  0.00000000000E+00  0.76204892438E+03  0.76204892438E+03  0.00000000000E+00 0. -1.
         21   -1    0    0  501  502 -0.00000000000E+00 -0.00000000000E+00 -0.50802086872E+02  0.50802086872E+02  0.00000000000E+00 0. -1.
         25    1    1    2    0    0 -0.13947379611E+03 -0.32397244975E+02  0.46066856109E+03  0.49834028982E+03  0.12500000000E+03 0.  0.
         25    1    1    2    0    0  0.13947379611E+03  0.32397244975E+02  0.25057827643E+03  0.31451072144E+03  0.12500000000E+03 0.  0.
</event>
<event>
 4    0  0.2219362E-002  0.3441566E+03  0.7546771E-02  0.1065039E+00
         21   -1    0    0  502  501  0.00000000000E+00  0.00000000000E+00  0.46326520452E+03  0.46326520452E+03  0.00000000000E+00 0.  1.
         21   -1    0    0  501  502 -0.00000000000E+00 -0.00000000000E+00 -0.25567166991E+03  0.25567166991E+03  0.00000000000E+00 0.  1.
         25    1    1    2    0    0  0.58646383420E+02  0.24092835312E+03 -0.10855342380E+03  0.29815216827E+03  0.12500000000E+03 0.  0.
         25    1    1    2    0    0 -0.58646383420E+02 -0.24092835312E+03  0.31614695841E+03  0.42078470616E+03  0.12500000000E+03 0.  0.
</event>
<event>
 4    0  0.2219362E-002  0.3354136E+03  0.7546771E-02  0.1068766E+00
         21   -1    0    0  502  501  0.00000000000E+00  0.00000000000E+00  0.26025381320E+03  0.26025381320E+03  0.00000000000E+00 0. -1.
         21   -1    0    0  501  502 -0.00000000000E+00 -0.00000000000E+00 -0.43227902528E+03  0.43227902528E+03  0.00000000000E+00 0. -1.
         25    1    1    2    0    0 -0.17176632173E+03  0.12636387968E+03  0.14805195206E+03  0.28812476442E+03  0.12500000000E+03 0.  0.
         25    1    1    2    0    0  0.17176632173E+03 -0.12636387968E+03 -0.32007716413E+03  0.40440807406E+03  0.12500000000E+03 0.  0.
</event>
<event>
 4    0  0.2219362E-002  0.1945370E+03  0.7546771E-02  0.1154432E+00
         21   -1    0    0  502  501  0.00000000000E+00  0.00000000000E+00  0.36257369738E+03  0.36257369738E+03  0.00000000000E+00 0. -1.
         21   -1    0    0  501  502 -0.00000000000E+00 -0.00000000000E+00 -0.10437775512E+03  0.10437775512E+03  0.00000000000E+00 0. -1.
         25    1    1    2    0    0  0.13582283324E+03  0.31495685211E+02  0.19237514022E+03  0.26846417785E+03  0.12500000000E+03 0.  0.
         25    1    1    2    0    0 -0.13582283324E+03 -0.31495685211E+02  0.65820802037E+02  0.19848727465E+03  0.12500000000E+03 0.  0.
</event>
<event>
 4    0  0.2219362E-002  0.1956964E+03  0.7546771E-02  0.1153422E+00
         21   -1    0    0  502  501  0.00000000000E+00  0.00000000000E+00  0.22883305873E+02  0.22883305873E+02  0.00000000000E+00 0. -1.
         21   -1    0    0  501  502 -0.00000000000E+00 -0.00000000000E+00 -0.16735821743E+04  0.16735821743E+04  0.00000000000E+00 0. -1.
         25    1    1    2    0    0  0.11833338791E+03  0.63166751808E+01 -0.42270428514E+03  0.45645000138E+03  0.12500000000E+03 0.  0.
         25    1    1    2    0    0 -0.11833338791E+03 -0.63166751808E+01 -0.12279945833E+04  0.12400154788E+04  0.12500000000E+03 0.  0.
</event>
<event>
 4    0  0.2219362E-002  0.1743043E+03  0.7546771E-02  0.1173432E+00
         21   -1    0    0  502  501  0.00000000000E+00  0.00000000000E+00  0.48400682870E+02  0.48400682870E+02  0.00000000000E+00 0.  1.
         21   -1    0    0  501  502 -0.00000000000E+00 -0.00000000000E+00 -0.62771797820E+03  0.62771797820E+03  0.00000000000E+00 0.  1.
         25    1    1    2    0    0 -0.12096822435E+03  0.11095928213E+02 -0.29109421454E+03  0.33928936421E+03  0.12500000000E+03 0.  0.
         25    1    1    2    0    0  0.12096822435E+03 -0.11095928213E+02 -0.28822308079E+03  0.33682929686E+03  0.12500000000E+03 0.  0.
</event>
<event>
 4    0  0.2219362E-002  0.1871575E+03  0.7546771E-02  0.1161050E+00
         21   -1    0    0  502  501  0.00000000000E+00  0.00000000000E+00  0.19736079555E+03  0.19736079555E+03  0.00000000000E+00 0. -1.
         21   -1    0    0  501  502 -0.00000000000E+00 -0.00000000000E+00 -0.17748178384E+03  0.17748178384E+03  0.00000000000E+00 0. -1.
         25    1    1    2    0    0 -0.33229082488E+01 -0.13859994814E+03  0.23447722279E+02  0.18813767040E+03  0.12500000000E+03 0.  0.
         25    1    1    2    0    0  0.33229082488E+01  0.13859994814E+03 -0.35687105712E+01  0.18670490898E+03  0.12500000000E+03 0.  0.
</event>
<event>
 4    0  0.2219362E-002  0.1817654E+03  0.7546771E-02  0.1166105E+00
         21   -1    0    0  502  501  0.00000000000E+00  0.00000000000E+00  0.13834079934E+03  0.13834079934E+03  0.00000000000E+00 0. -1.
         21   -1    0    0  501  502 -0.00000000000E+00 -0.00000000000E+00 -0.23882089757E+03  0.23882089757E+03  0.00000000000E+00 0. -1.
         25    1    1    2    0    0 -0.80629571393E+02  0.13241586126E+02  0.57265760542E+02  0.15994009728E+03  0.12500000000E+03 0.  0.
         25    1    1    2    0    0  0.80629571393E+02 -0.13241586126E+02 -0.15774585877E+03  0.21722159963E+03  0.12500000000E+03 0.  0.
</event>
<event>
 4    0  0.2219362E-002  0.1675889E+03  0.7546771E-02  0.1180386E+00
         21   -1    0    0  502  501  0.00000000000E+00  0.00000000000E+00  0.19419357734E+03  0.19419357734E+03  0.00000000000E+00 0.  1.
         21   -1    0    0  501  502 -0.00000000000E+00 -0.00000000000E+00 -0.14462907336E+03  0.14462907336E+03  0.00000000000E+00 0.  1.
         25    1    1    2    0    0 -0.98904372016E+02  0.24303549961E+02 -0.21412605364E+02  0.16265373347E+03  0.12500000000E+03 0.  0.
         25    1    1    2    0    0  0.98904372016E+02 -0.24303549961E+02  0.70977109342E+02  0.17616891722E+03  0.12500000000E+03 0.  0.
</event>
<event>
 4    0  0.2219362E-002  0.1927940E+03  0.7546771E-02  0.1155965E+00
         21   -1    0    0  502  501  0.00000000000E+00  0.00000000000E+00  0.78013279783E+03  0.78013279783E+03  0.00000000000E+00 0.  1.
         21   -1    0    0  501  502 -0.00000000000E+00 -0.00000000000E+00 -0.47645107771E+02  0.47645107771E+02  0.00000000000E+00 0.  1.
         25    1    1    2    0    0  0.10909217008E+03  0.39848366463E+01  0.15560044004E+03  0.22749390637E+03  0.12500000000E+03 0.  0.
         25    1    1    2    0    0 -0.10909217008E+03 -0.39848366463E+01  0.57688725002E+03  0.60028399923E+03  0.12500000000E+03 0.  0.
</event>
<event>
 4    0  0.2219362E-002  0.1987946E+03  0.7546771E-02  0.1150760E+00
         21   -1    0    0  502  501  0.00000000000E+00  0.00000000000E+00  0.83717484541E+02  0.83717484541E+02  0.00000000000E+00 0. -1.
         21   -1    0    0  501  502 -0.00000000000E+00 -0.00000000000E+00 -0.47205536658E+03  0.47205536658E+03  0.00000000000E+00 0. -1.
         25    1    1    2    0    0 -0.14947930766E+03 -0.29839738032E+02 -0.15826238968E+03  0.25279726536E+03  0.12500000000E+03 0.  0.
         25    1    1    2    0    0  0.14947930766E+03  0.29839738032E+02 -0.23007549236E+03  0.30297558576E+03  0.12500000000E+03 0.  0.
</event>
<event>
 4    0  0.2219362E-002  0.2272391E+03  0.7546771E-02  0.1128598E+00
         21   -1    0    0  502  501  0.00000000000E+00  0.00000000000E+00  0.20422295914E+02  0.20422295914E+02  0.00000000000E+00 0. -1.
         21   -1    0    0  501  502 -0.00000000000E+00 -0.00000000000E+00 -0.25284908638E+04  0.25284908638E+04  0.00000000000E+00 0. -1.
         25    1    1    2    0    0  0.17555177734E+03  0.40676639532E+02 -0.15877045522E+04  0.16027800100E+04  0.12500000000E+03 0.  0.
         25    1    1    2    0    0 -0.17555177734E+03 -0.40676639532E+02 -0.92036401574E+03  0.94613314972E+03  0.12500000000E+03 0.  0.
</event>
<event>
 4    0  0.2219362E-002  0.2458018E+03  0.7546771E-02  0.1115987E+00
         21   -1    0    0  502  501  0.00000000000E+00  0.00000000000E+00  0.49618953963E+03  0.49618953963E+03  0.00000000000E+00 0.  1.
         21   -1    0    0  501  502 -0.00000000000E+00 -0.00000000000E+00 -0.12176499886E+03  0.12176499886E+03  0.00000000000E+00 0.  1.
         25    1    1    2    0    0 -0.18098217539E+03  0.10845259307E+03  0.16629109586E+03  0.29630093033E+03  0.12500000000E+03 0.  0.
         25    1    1    2    0    0  0.18098217539E+03 -0.10845259307E+03  0.20813344491E+03  0.32165360816E+03  0.12500000000E+03 0.  0.
</event>
<event>
 4    0  0.2219362E-002  0.1824943E+03  0.7546771E-02  0.1165411E+00
         21   -1    0    0  502  501  0.00000000000E+00  0.00000000000E+00  0.18106110770E+04  0.18106110770E+04  0.00000000000E+00 0.  1.
         21   -1    0    0  501  502 -0.00000000000E+00 -0.00000000000E+00 -0.18393881887E+02  0.18393881887E+02  0.00000000000E+00 0.  1.
         25    1    1    2    0    0 -0.16147109045E+02 -0.11821869301E+03  0.60207964272E+03  0.62638748765E+03  0.12500000000E+03 0.  0.
         25    1    1    2    0    0  0.16147109045E+02  0.11821869301E+03  0.11901375524E+04  0.12026174712E+04  0.12500000000E+03 0.  0.
</event>
<event>
 4    0  0.2219362E-002  0.3251184E+03  0.7546771E-02  0.1073317E+00
         21   -1    0    0  502  501  0.00000000000E+00  0.00000000000E+00  0.25063734724E+03  0.25063734724E+03  0.00000000000E+00 0. -1.
         21   -1    0    0  501  502 -0.00000000000E+00 -0.00000000000E+00 -0.42173267373E+03  0.42173267373E+03  0.00000000000E+00 0. -1.
         25    1    1    2    0    0 -0.11918078265E+03 -0.27400045784E+03 -0.56361953134E+02  0.32875823885E+03  0.12500000000E+03 0.  0.
         25    1    1    2    0    0  0.11918078265E+03  0.27400045784E+03 -0.11473337335E+03  0.34361178212E+03  0.12500000000E+03 0.  0.
</event>
<event>
 4    0  0.2219362E-002  0.4876986E+03  0.7546771E-02  0.1017041E+00
         21   -1    0    0  502  501  0.00000000000E+00  0.00000000000E+00  0.66590341542E+03  0.66590341542E+03  0.00000000000E+00 0.  1.
         21   -1    0    0  501  502 -0.00000000000E+00 -0.00000000000E+00 -0.35718382631E+03  0.35718382631E+03  0.00000000000E+00 0.  1.
         25    1    1    2    0    0  0.59133940861E+02 -0.36465446710E+03 -0.15279794200E+03  0.41885786900E+03  0.12500000000E+03 0.  0.
         25    1    1    2    0    0 -0.59133940861E+02  0.36465446710E+03  0.46151753112E+03  0.60422937273E+03  0.12500000000E+03 0.  0.
</event>
<event>
 4    0  0.2219362E-002  0.5293580E+03  0.7546771E-02  0.1006388E+00
         21   -1    0    0  502  501  0.00000000000E+00  0.00000000000E+00  0.32494232392E+03  0.32494232392E+03  0.00000000000E+00 0.  1.
         21   -1    0    0  501  502 -0.00000000000E+00 -0.00000000000E+00 -0.86236797842E+03  0.86236797842E+03  0.00000000000E+00 0.  1.
         25    1    1    2    0    0  0.27609814448E+03 -0.40393338149E+03 -0.90677355701E+02  0.51306894752E+03  0.12500000000E+03 0.  0.
         25    1    1    2    0    0 -0.27609814448E+03  0.40393338149E+03 -0.44674829879E+03  0.67424135482E+03  0.12500000000E+03 0.  0.
</event>
<event>
 4    0  0.2219362E-002  0.2137420E+03  0.7546771E-02  0.1138637E+00
         21   -1    0    0  502  501  0.00000000000E+00  0.00000000000E+00  0.12702148113E+03  0.12702148113E+03  0.00000000000E+00 0. -1.
         21   -1    0    0  501  502 -0.00000000000E+00 -0.00000000000E+00 -0.35966862206E+03  0.35966862206E+03  0.00000000000E+00 0. -1.
         25    1    1    2    0    0  0.75999004151E+02 -0.15404793685E+03 -0.89525866965E+02  0.23053523881E+03  0.12500000000E+03 0.  0.
         25    1    1    2    0    0 -0.75999004151E+02  0.15404793685E+03 -0.14312127397E+03  0.25615486437E+03  0.12500000000E+03 0.  0.
</event>
<event>
 4    0  0.2219362E-002  0.1948868E+03  0.7546771E-02  0.1154126E+00
         21   -1    0    0  502  501  0.00000000000E+00  0.00000000000E+00  0.18025159664E+03  0.18025159664E+03  0.00000000000E+00 0. -1.
         21   -1    0    0  501  502 -0.00000000000E+00 -0.00000000000E+00 -0.21071033661E+03  0.21071033661E+03  0.00000000000E+00 0. -1.
         25    1    1    2    0    0  0.68728207214E+02  0.64781170778E+02 -0.13149524820E+03  0.20453891281E+03  0.12500000000E+03 0.  0.
         25    1    1    2    0    0 -0.68728207214E+02 -0.64781170778E+02  0.10103650823E+03  0.18642302044E+03  0.12500000000E+03 0.  0.
</event>
<event>
 4    0  0.2219362E-002  0.2092647E+03  0.7546771E-02  0.1142150E+00
         21   -1    0    0  502  501  0.00000000000E+00  0.00000000000E+00  0.32683677854E+02  0.32683677854E+02  0.00000000000E+00 0.  1.
         21   -1    0    0  501  502 -0.00000000000E+00 -0.00000000000E+00 -0.13398646146E+04  0.13398646146E+04  0.00000000000E+00 0.  1.
         25    1    1    2    0    0 -0.19935954512E+02  0.11216507572E+03 -0.24942827439E+03  0.30136010114E+03  0.12500000000E+03 0.  0.
         25    1    1    2    0    0  0.19935954512E+02 -0.11216507572E+03 -0.10577526624E+04  0.10711881913E+04  0.12500000000E+03 0.  0.
</event>
<event>
 4    0  0.2219362E-002  0.2393345E+03  0.7546771E-02  0.1120237E+00
         21   -1    0    0  502  501  0.00000000000E+00  0.00000000000E+00  0.17013354476E+03  0.17013354476E+03  0.00000000000E+00 0. -1.
         21   -1    0    0  501  502 -0.00000000000E+00 -0.00000000000E+00 -0.33668260479E+03  0.33668260479E+03  0.00000000000E+00 0. -1.
         25    1    1    2    0    0  0.92641499321E+02  0.10297099356E+03  0.75441873225E+02  0.20125096061E+03  0.12500000000E+03 0.  0.
         25    1    1    2    0    0 -0.92641499321E+02 -0.10297099356E+03 -0.24199093326E+03  0.30556518894E+03  0.12500000000E+03 0.  0.
</event>
<event>
 4    0  0.2219362E-002  0.1493733E+03  0.7546771E-02  0.1201245E+00
         21   -1    0    0  502  501  0.00000000000E+00  0.00000000000E+00  0.27474597839E+04  0.27474597839E+04  0.00000000000E+00 0.  1.
         21   -1    0    0  501  502 -0.00000000000E+00 -0.00000000000E+00 -0.81210980108E+01  0.81210980108E+01  0.00000000000E+00 0.  1.
         25    1    1    2    0    0 -0.62088730673E+02 -0.24421937552E+02  0.93351416318E+03  0.94420608681E+03  0.12500000000E+03 0.  0.
         25    1    1    2    0    0  0.62088730673E+02  0.24421937552E+02  0.18058245227E+04  0.18113747951E+04  0.12500000000E+03 0.  0.
</event>
<event>
 4    0  0.2219362E-002  0.1573639E+03  0.7546771E-02  0.1191705E+00
         21   -1    0    0  502  501  0.00000000000E+00  0.00000000000E+00  0.22269712207E+03  0.22269712207E+03  0.00000000000E+00 0.  1.
         21   -1    0    0  501  502 -0.00000000000E+00 -0.00000000000E+00 -0.11119759505E+03  0.11119759505E+03  0.00000000000E+00 0.  1.
         25    1    1    2    0    0  0.68805700041E+02 -0.65833143685E+02  0.46863671988E+02  0.16397997109E+03  0.12500000000E+03 0.  0.
         25    1    1    2    0    0 -0.68805700041E+02  0.65833143685E+02  0.64635855031E+02  0.16991474604E+03  0.12500000000E+03 0.  0.
</event>
<event>
 4    0  0.2219362E-002  0.2495470E+03  0.7546771E-02  0.1113591E+00
         21   -1    0    0  502  501  0.00000000000E+00  0.00000000000E+00  0.50415011364E+03  0.50415011364E+03  0.00000000000E+00 0. -1.
         21   -1    0    0  501  502 -0.00000000000E+00 -0.00000000000E+00 -0.12352218907E+03  0.12352218907E+03  0.00000000000E+00 0. -1.
         25    1    1    2    0    0  0.15876037506E+03  0.13338945904E+03  0.26630522632E+03  0.35991815464E+03  0.12500000000E+03 0.  0.
         25    1    1    2    0    0 -0.15876037506E+03 -0.13338945904E+03  0.11432269826E+03  0.26775414807E+03  0.12500000000E+03 0.  0.
</event>
<event>
 4    0  0.2219362E-002  0.2051053E+03  0.7546771E-02  0.1145502E+00
         21   -1    0    0  502  501  0.00000000000E+00  0.00000000000E+00  0.86091312969E+02  0.86091312969E+02  0.00000000000E+00 0. -1.
         21   -1    0    0  501  502 -0.00000000000E+00 -0.00000000000E+00 -0.48864620043E+03  0.48864620043E+03  0.00000000000E+00 0. -1.
         25    1    1    2    0    0  0.10495332442E+03  0.12194361874E+03 -0.16818864109E+03  0.26419285655E+03  0.12500000000E+03 0.  0.
         25    1    1    2    0    0 -0.10495332442E+03 -0.12194361874E+03 -0.23436624638E+03  0.31054465685E+03  0.12500000000E+03 0.  0.
</event>
<event>
 4    0  0.2219362E-002  0.2717247E+03  0.7546771E-02  0.1100297E+00
         21   -1    0    0  502  501  0.00000000000E+00  0.00000000000E+00  0.10134778029E+03  0.10134778029E+03  0.00000000000E+00 0. -1.
         21   -1    0    0  501  502 -0.00000000000E+00 -0.00000000000E+00 -0.72852395411E+03  0.72852395411E+03  0.00000000000E+00 0. -1.
         25    1    1    2    0    0 -0.43951423577E+02  0.16560888659E+03 -0.57296677577E+03  0.61096150213E+03  0.12500000000E+03 0.  0.
         25    1    1    2    0    0  0.43951423577E+02 -0.16560888659E+03 -0.54209398058E+02  0.21891023227E+03  0.12500000000E+03 0.  0.
</event>
<event>
 4    0  0.2219362E-002  0.2152309E+03  0.7546771E-02  0.1137489E+00
         21   -1    0    0  502  501  0.00000000000E+00  0.00000000000E+00  0.84159307044E+03  0.84159307044E+03  0.00000000000E+00 0. -1.
         21   -1    0    0  501  502 -0.00000000000E+00 -0.00000000000E+00 -0.55043622365E+02  0.55043622365E+02  0.00000000000E+00 0. -1.
         25    1    1    2    0    0  0.52890367269E+01  0.16135694427E+03  0.25146024783E+03  0.32391556556E+03  0.12500000000E+03 0.  0.
         25    1    1    2    0    0 -0.52890367269E+01 -0.16135694427E+03  0.53508920024E+03  0.57272112724E+03  0.12500000000E+03 0.  0.
</event>
<event>
 4    0  0.2219362E-002  0.2869002E+03  0.7546771E-02  0.1091979E+00
         21   -1    0    0  502  501  0.00000000000E+00  0.00000000000E+00  0.19652230940E+03  0.19652230940E+03  0.00000000000E+00 0.  1.
         21   -1    0    0  501  502 -0.00000000000E+00 -0.00000000000E+00 -0.41884174459E+03  0.41884174459E+03  0.00000000000E+00 0.  1.
         25    1    1    2    0    0  0.96385010477E+02  0.16071242165E+03  0.79384637984E+02  0.23884194243E+03  0.12500000000E+03 0.  0.
         25    1    1    2    0    0 -0.96385010477E+02 -0.16071242165E+03 -0.30170407318E+03  0.37652211155E+03  0.12500000000E+03 0.  0.
</event>
<event>
 4    0  0.2219362E-002  0.3076355E+03  0.7546771E-02  0.1081485E+00
         21   -1    0    0  502  501  0.00000000000E+00  0.00000000000E+00  0.13448086622E+03  0.13448086622E+03  0.00000000000E+00 0.  1.
         21   -1    0    0  501  502 -0.00000000000E+00 -0.00000000000E+00 -0.70374045453E+03  0.70374045453E+03  0.00000000000E+00 0.  1.
         25    1    1    2    0    0 -0.17962429684E+03  0.20103714712E+03 -0.39305356036E+03  0.49274427835E+03  0.12500000000E+03 0.  0.
         25    1    1    2    0    0  0.17962429684E+03 -0.20103714712E+03 -0.17620602795E+03  0.34547704240E+03  0.12500000000E+03 0.  0.
</event>
<event>
 4    0  0.2219362E-002  0.2879192E+03  0.7546771E-02  0.1091441E+00
         21   -1    0    0  502  501  0.00000000000E+00  0.00000000000E+00  0.40327530294E+02  0.40327530294E+02  0.00000000000E+00 0. -1.
         21   -1    0    0  501  502 -0.00000000000E+00 -0.00000000000E+00 -0.20556041605E+04  0.20556041605E+04  0.00000000000E+00 0. -1.
         25    1    1    2    0    0  0.24198644559E+03  0.38796803352E+02 -0.13166951829E+04  0.13451296728E+04  0.12500000000E+03 0.  0.
         25    1    1    2    0    0 -0.24198644559E+03 -0.38796803352E+02 -0.69858144729E+03  0.75080201804E+03  0.12500000000E+03 0.  0.
</event>
<event>
 4    0  0.2219362E-002  0.2195290E+03  0.7546771E-02  0.1134235E+00
         21   -1    0    0  502  501  0.00000000000E+00  0.00000000000E+00  0.52865465037E+02  0.52865465037E+02  0.00000000000E+00 0. -1.
         21   -1    0    0  501  502 -0.00000000000E+00 -0.00000000000E+00 -0.91161597304E+03  0.91161597304E+03  0.00000000000E+00 0. -1.
         25    1    1    2    0    0 -0.16378557300E+03 -0.43550895927E+02 -0.56559949185E+03  0.60353142391E+03  0.12500000000E+03 0.  0.
         25    1    1    2    0    0  0.16378557300E+03  0.43550895927E+02 -0.29315101615E+03  0.36095001417E+03  0.12500000000E+03 0.  0.
</event>
<event>
 4    0  0.2219362E-002  0.2381883E+03  0.7546771E-02  0.1121006E+00
         21   -1    0    0  502  501  0.00000000000E+00  0.00000000000E+00  0.13459656432E+03  0.13459656432E+03  0.00000000000E+00 0.  1.
         21   -1    0    0  501  502 -0.00000000000E+00 -0.00000000000E+00 -0.42150890462E+03  0.42150890462E+03  0.00000000000E+00 0.  1.
         25    1    1    2    0    0  0.14717446206E+03 -0.13945310722E+03 -0.14471291838E+03  0.27870113050E+03  0.12500000000E+03 0.  0.
         25    1    1    2    0    0 -0.14717446206E+03  0.13945310722E+03 -0.14219942192E+03  0.27740433845E+03  0.12500000000E+03 0.  0.
</event>
<event>
 4    0  0.2219362E-002  0.1891821E+03  0.7546771E-02  0.1159201E+00
         21   -1    0    0  502  501  0.00000000000E+00  0.00000000000E+00  0.13026408252E+03  0.13026408252E+03  0.00000000000E+00 0. -1.
         21   -1    0    0  501  502 -0.00000000000E+00 -0.00000000000E+00 -0.27474855929E+03  0.27474855929E+03  0.00000000000E+00 0. -1.
         25    1    1    2    0    0  0.45643660517E+02 -0.13204283289E+03 -0.99453409100E+02  0.21221365188E+03  0.12500000000E+03 0.  0.
         25    1    1    2    0    0 -0.45643660517E+02  0.13204283289E+03 -0.45031067667E+02  0.19279898993E+03  0.12500000000E+03 0.  0.
</event>
<event>
 4    0  0.2219362E-002  0.1702296E+03  0.7546771E-02  0.1177609E+00
         21   -1    0    0  502  501  0.00000000000E+00  0.00000000000E+00  0.10318873528E+03  0.10318873528E+03  0.00000000000E+00 0. -1.
         21   -1    0    0  501  502 -0.00000000000E+00 -0.00000000000E+00 -0.28082645096E+03  0.28082645096E+03  0.00000000000E+00 0. -1.
         25    1    1    2    0    0 -0.97844244006E+02 -0.45513925970E+02 -0.13543555738E+03  0.21357154245E+03  0.12500000000E+03 0.  0.
         25    1    1    2    0    0  0.97844244006E+02  0.45513925970E+02 -0.42202158300E+02  0.17044364379E+03  0.12500000000E+03 0.  0.
</event>
<event>
 4    0  0.2219362E-002  0.2175722E+03  0.7546771E-02  0.1135706E+00
         21   -1    0    0  502  501  0.00000000000E+00  0.00000000000E+00  0.30381291239E+03  0.30381291239E+03  0.00000000000E+00 0. -1.
         21   -1    0    0  501  502 -0.00000000000E+00 -0.00000000000E+00 -0.15581186142E+03  0.15581186142E+03  0.00000000000E+00 0. -1.
         25    1    1    2    0    0  0.32206076208E+02 -0.16900374114E+03  0.12255577664E+03  0.24544737573E+03  0.12500000000E+03 0.  0.
         25    1    1    2    0    0 -0.32206076208E+02  0.16900374114E+03  0.25445274319E+02  0.21417739808E+03  0.12500000000E+03 0.  0.
</event>
<event>
 4    0  0.2219362E-002  0.2465436E+03  0.7546771E-02  0.1115509E+00
         21   -1    0    0  502  501  0.00000000000E+00  0.00000000000E+00  0.87525057304E+03  0.87525057304E+03  0.00000000000E+00 0.  1.
         21   -1    0    0  501  502 -0.00000000000E+00 -0.00000000000E+00 -0.69447256807E+02  0.69447256807E+02  0.00000000000E+00 0.  1.
         25    1    1    2    0    0 -0.69347910459E+02 -0.16422626349E+03  0.62451031860E+03  0.66137548817E+03  0.12500000000E+03 0.  0.
         25    1    1    2    0    0  0.69347910459E+02  0.16422626349E+03  0.18129299763E+03  0.28332234168E+03  0.12500000000E+03 0.  0.
</event>
<event>
 4    0  0.2219362E-002  0.3528601E+03  0.7546771E-02  0.1061447E+00
         21   -1    0    0  502  501  0.00000000000E+00  0.00000000000E+00  0.47128387353E+03  0.47128387353E+03  0.00000000000E+00 0.  1.
         21   -1    0    0  501  502 -0.00000000000E+00 -0.00000000000E+00 -0.26419368502E+03  0.26419368502E+03  0.00000000000E+00 0.  1.
         25    1    1    2    0    0  0.10544987311E+03  0.21035839725E+03 -0.13754216048E+03  0.29985525999E+03  0.12500000000E+03 0.  0.
         25    1    1    2    0    0 -0.10544987311E+03 -0.21035839725E+03  0.34463234900E+03  0.43562229856E+03  0.12500000000E+03 0.  0.
</event>
<event>
 4    0  0.2219362E-002  0.2322068E+03  0.7546771E-02  0.1125096E+00
         21   -1    0    0  502  501  0.00000000000E+00  0.00000000000E+00  0.44863577072E+03  0.44863577072E+03  0.00000000000E+00 0.  1.
         21   -1    0    0  501  502 -0.00000000000E+00 -0.00000000000E+00 -0.12018658041E+03  0.12018658041E+03  0.00000000000E+00 0.  1.
         25    1    1    2    0    0 -0.19126651352E+03  0.67140347569E+01  0.11421596627E+03  0.25553521168E+03  0.12500000000E+03 0.  0.
         25    1    1    2    0    0  0.19126651352E+03 -0.67140347569E+01  0.21423322404E+03  0.31328713944E+03  0.12500000000E+03 0.  0.
</event>
<event>
 4    0  0.2219362E-002  0.3263133E+03  0.7546771E-02  0.1072780E+00
         21   -1    0    0  502  501  0.00000000000E+00  0.00000000000E+00  0.43082158183E+03  0.43082158183E+03  0.00000000000E+00 0. -1.
         21   -1    0    0  501  502 -0.00000000000E+00 -0.00000000000E+00 -0.24715660896E+03  0.24715660896E+03  0.00000000000E+00 0. -1.
         25    1    1    2    0    0  0.28554958376E+03 -0.90114947001E+02  0.55903862514E+02  0.32925599509E+03  0.12500000000E+03 0.  0.
         25    1    1    2    0    0 -0.28554958376E+03  0.90114947001E+02  0.12776111035E+03  0.34872219570E+03  0.12500000000E+03 0.  0.
</event>
<event>
 4    0  0.2219362E-002  0.2313451E+03  0.7546771E-02  0.1125697E+00
         21   -1    0    0  502  501  0.00000000000E+00  0.00000000000E+00  0.21519414782E+03  0.21519414782E+03  0.00000000000E+00 0.  1.
         21   -1    0    0  501  502 -0.00000000000E+00 -0.00000000000E+00 -0.24870814622E+03  0.24870814622E+03  0.00000000000E+00 0.  1.
         25    1    1    2    0    0  0.86890346572E+02 -0.16568994630E+03  0.37165373286E+02  0.22805559762E+03  0.12500000000E+03 0.  0.
         25    1    1    2    0    0 -0.86890346572E+02  0.16568994630E+03 -0.70679371691E+02  0.23584669643E+03  0.12500000000E+03 0.  0.
</event>
<event>
 4    0  0.2219362E-002  0.2200702E+03  0.7546771E-02  0.1133831E+00
         21   -1    0    0  502  501  0.00000000000E+00  0.00000000000E+00  0.61803364616E+03  0.61803364616E+03  0.00000000000E+00 0. -1.
         21   -1    0    0  501  502 -0.00000000000E+00 -0.00000000000E+00 -0.78362899800E+02  0.78362899800E+02  0.00000000000E+00 0. -1.
         25    1    1    2    0    0  0.10929517123E+03 -0.53587858199E+02  0.57625009344E+02  0.18374638691E+03  0.12500000000E+03 0.  0.
         25    1    1    2    0    0 -0.10929517123E+03  0.53587858199E+02  0.48204573702E+03  0.51265015906E+03  0.12500000000E+03 0.  0.
</event>
<event>
 4    0  0.2219362E-002  0.3171977E+03  0.7546771E-02  0.1076946E+00
         21   -1    0    0  502  501  0.00000000000E+00  0.00000000000E+00  0.86233051582E+03  0.86233051582E+03  0.00000000000E+00 0. -1.
         21   -1    0    0  501  502 -0.00000000000E+00 -0.00000000000E+00 -0.11667728460E+03  0.11667728460E+03  0.00000000000E+00 0. -1.
         25    1    1    2    0    0 -0.28423242777E+03 -0.61788486185E+02  0.34260589361E+03  0.46648653609E+03  0.12500000000E+03 0.  0.
         25    1    1    2    0    0  0.28423242777E+03  0.61788486185E+02  0.40304733762E+03  0.51252126432E+03  0.12500000000E+03 0.  0.
</event>
<event>
 4    0  0.2219362E-002  0.2776945E+03  0.7546771E-02  0.1096955E+00
         21   -1    0    0  502  501  0.00000000000E+00  0.00000000000E+00  0.46694467380E+02  0.46694467380E+02  0.00000000000E+00 0.  1.
         21   -1    0    0  501  502 -0.00000000000E+00 -0.00000000000E+00 -0.16514638108E+04  0.16514638108E+04  0.00000000000E+00 0.  1.
         25    1    1    2    0    0  0.18383286490E+03  0.11581097022E+03 -0.11677971281E+04  0.11943960129E+04  0.12500000000E+03 0.  0.
         25    1    1    2    0    0 -0.18383286490E+03 -0.11581097022E+03 -0.43697221531E+03  0.50376226535E+03  0.12500000000E+03 0.  0.
</event>
<event>
 4    0  0.2219362E-002  0.1780789E+03  0.7546771E-02  0.1169675E+00
         21   -1    0    0  502  501  0.00000000000E+00  0.00000000000E+00  0.80578989316E+03  0.80578989316E+03  0.00000000000E+00 0.  1.
         21   -1    0    0  501  502 -0.00000000000E+00 -0.00000000000E+00 -0.39355294933E+02  0.39355294933E+02  0.00000000000E+00 0.  1.
         25    1    1    2    0    0  0.72892349996E+02 -0.10095538363E+03  0.44045486928E+03  0.47447947906E+03  0.12500000000E+03 0.  0.
         25    1    1    2    0    0 -0.72892349996E+02  0.10095538363E+03  0.32597972894E+03  0.37066570903E+03  0.12500000000E+03 0.  0.
</event>
<event>
 4    0  0.2219362E-002  0.4824584E+03  0.7546771E-02  0.1018462E+00
         21   -1    0    0  502  501  0.00000000000E+00  0.00000000000E+00  0.18315495710E+03  0.18315495710E+03  0.00000000000E+00 0. -1.
         21   -1    0    0  501  502 -0.00000000000E+00 -0.00000000000E+00 -0.12708700733E+04  0.12708700733E+04  0.00000000000E+00 0. -1.
         25    1    1    2    0    0 -0.22239829660E+03  0.25827871368E+03 -0.65025735947E+02  0.36881193393E+03  0.12500000000E+03 0.  0.
         25    1    1    2    0    0  0.22239829660E+03 -0.25827871368E+03 -0.10226893803E+04  0.10852130965E+04  0.12500000000E+03 0.  0.
</event>
<event>
 4    0  0.2219362E-002  0.1792352E+03  0.7546771E-02  0.1168545E+00
         21   -1    0    0  502  501  0.00000000000E+00  0.00000000000E+00  0.32185938322E+02  0.32185938322E+02  0.00000000000E+00 0.  1.
         21   -1    0    0  501  502 -0.00000000000E+00 -0.00000000000E+00 -0.99811439074E+03  0.99811439074E+03  0.00000000000E+00 0.  1.
         25    1    1    2    0    0  0.12656887704E+03 -0.11759439489E+02 -0.42978973197E+03  0.46529794622E+03  0.12500000000E+03 0.  0.
         25    1    1    2    0    0 -0.12656887704E+03  0.11759439489E+02 -0.53613872044E+03  0.56500238284E+03  0.12500000000E+03 0.  0.
</event>
<event>
 4    0  0.2219362E-002  0.2471986E+03  0.7546771E-02  0.1115088E+00
         21   -1    0    0  502  501  0.00000000000E+00  0.00000000000E+00  0.46529554568E+02  0.46529554568E+02  0.00000000000E+00 0. -1.
         21   -1    0    0  501  502 -0.00000000000E+00 -0.00000000000E+00 -0.13132973444E+04  0.13132973444E+04  0.00000000000E+00 0. -1.
         25    1    1    2    0    0 -0.17788230214E+02  0.12092616864E+03 -0.15269895123E+03  0.23212395202E+03  0.12500000000E+03 0.  0.
         25    1    1    2    0    0  0.17788230214E+02 -0.12092616864E+03 -0.11140688386E+04  0.11277029469E+04  0.12500000000E+03 0.  0.
</event>
<event>
 4    0  0.2219362E-002  0.2368360E+03  0.7546771E-02  0.1121919E+00
         21   -1    0    0  502  501  0.00000000000E+00  0.00000000000E+00  0.10140881405E+03  0.10140881405E+03  0.00000000000E+00 0. -1.
         21   -1    0    0  501  502 -0.00000000000E+00 -0.00000000000E+00 -0.55312026053E+03  0.55312026053E+03  0.00000000000E+00 0. -1.
         25    1    1    2    0    0  0.17032949294E+03  0.71384236849E+02 -0.33604163296E+03  0.40330735738E+03  0.12500000000E+03 0.  0.
         25    1    1    2    0    0 -0.17032949294E+03 -0.71384236849E+02 -0.11566981352E+03  0.25122171720E+03  0.12500000000E+03 0.  0.
</event>
<event>
 4    0  0.2219362E-002  0.2009580E+03  0.7546771E-02  0.1148933E+00
         21   -1    0    0  502  501  0.00000000000E+00  0.00000000000E+00  0.22931222071E+03  0.22931222071E+03  0.00000000000E+00 0. -1.
         21   -1    0    0  501  502 -0.00000000000E+00 -0.00000000000E+00 -0.17610974895E+03  0.17610974895E+03  0.00000000000E+00 0. -1.
         25    1    1    2    0    0 -0.86092897538E+02  0.61821146794E+02  0.14391394373E+03  0.21810562670E+03  0.12500000000E+03 0.  0.
         25    1    1    2    0    0  0.86092897538E+02 -0.61821146794E+02 -0.90711471962E+02  0.18731634297E+03  0.12500000000E+03 0.  0.
</event>
<event>
 4    0  0.2219362E-002  0.1890477E+03  0.7546771E-02  0.1159323E+00
         21   -1    0    0  502  501  0.00000000000E+00  0.00000000000E+00  0.23452496548E+03  0.23452496548E+03  0.00000000000E+00 0. -1.
         21   -1    0    0  501  502 -0.00000000000E+00 -0.00000000000E+00 -0.15238901602E+03  0.15238901602E+03  0.00000000000E+00 0. -1.
         25    1    1    2    0    0 -0.11378758161E+03 -0.69498428545E+02  0.90531505472E+02  0.20395734550E+03  0.12500000000E+03 0.  0.
         25    1    1    2    0    0  0.11378758161E+03  0.69498428545E+02 -0.83955560088E+01  0.18295663601E+03  0.12500000000E+03 0.  0.
</event>
<event>
 4    0  0.2219362E-002  0.2415009E+03  0.7546771E-02  0.1118797E+00
         21   -1    0    0  502  501  0.00000000000E+00  0.00000000000E+00  0.23998955603E+03  0.23998955603E+03  0.00000000000E+00 0.  1.
         21   -1    0    0  501  502 -0.00000000000E+00 -0.00000000000E+00 -0.24302185343E+03  0.24302185343E+03  0.00000000000E+00 0.  1.
         25    1    1    2    0    0  0.69080445949E+02  0.96444781592E+02  0.16767348152E+03  0.24044354912E+03  0.12500000000E+03 0.  0.
         25    1    1    2    0    0 -0.69080445949E+02 -0.96444781592E+02 -0.17070577892E+03  0.24256786033E+03  0.12500000000E+03 0.  0.
</event>
<event>
 4    0  0.2219362E-002  0.2724202E+03  0.7546771E-02  0.1099902E+00
         21   -1    0    0  502  501  0.00000000000E+00  0.00000000000E+00  0.14210335741E+03  0.14210335741E+03  0.00000000000E+00 0.  1.
         21   -1    0    0  501  502 -0.00000000000E+00 -0.00000000000E+00 -0.52224499958E+03  0.52224499958E+03  0.00000000000E+00 0.  1.
         25    1    1    2    0    0 -0.82405628799E+01 -0.19923520453E+03 -0.35737095471E+03  0.42790369579E+03  0.12500000000E+03 0.  0.
         25    1    1    2    0    0  0.82405628799E+01  0.19923520453E+03 -0.22770687472E+02  0.23644466120E+03  0.12500000000E+03 0.  0.
</event>
<event>
 4    0  0.2219362E-002  0.2405890E+03  0.7546771E-02  0.1119401E+00
         21   -1    0    0  502  501  0.00000000000E+00  0.00000000000E+00  0.15108465217E+04  0.15108465217E+04  0.00000000000E+00 0. -1.
         21   -1    0    0  501  502 -0.00000000000E+00 -0.00000000000E+00 -0.38311690934E+02  0.38311690934E+02  0.00000000000E+00 0. -1.
         25    1    1    2    0    0 -0.60019820416E+02  0.17463233676E+03  0.44545352522E+03  0.49814924974E+03  0.12500000000E+03 0.  0.
         25    1    1    2    0    0  0.60019820416E+02 -0.17463233676E+03  0.10270813055E+04  0.10510089629E+04  0.12500000000E+03 0.  0.
</event>
<event>
 4    0  0.2219362E-002  0.1976906E+03  0.7546771E-02  0.1151702E+00
         21   -1    0    0  502  501  0.00000000000E+00  0.00000000000E+00  0.41013192894E+02  0.41013192894E+02  0.00000000000E+00 0. -1.
         21   -1    0    0  501  502 -0.00000000000E+00 -0.00000000000E+00 -0.95290201421E+03  0.95290201421E+03  0.00000000000E+00 0. -1.
         25    1    1    2    0    0 -0.76042143313E+02 -0.13078034315E+03 -0.39589375818E+03  0.44186284464E+03  0.12500000000E+03 0.  0.
         25    1    1    2    0    0  0.76042143313E+02  0.13078034315E+03 -0.51599506314E+03  0.55205236246E+03  0.12500000000E+03 0.  0.
</event>
<event>
 4    0  0.2219362E-002  0.1918389E+03  0.7546771E-02  0.1156813E+00
         21   -1    0    0  502  501  0.00000000000E+00  0.00000000000E+00  0.18085310536E+03  0.18085310536E+03  0.00000000000E+00 0. -1.
         21   -1    0    0  501  502 -0.00000000000E+00 -0.00000000000E+00 -0.20349203931E+03  0.20349203931E+03  0.00000000000E+00 0.  1.
         25    1    1    2    0    0  0.89985727739E+02  0.98300737572E+02  0.47234752334E+02  0.18872357572E+03  0.12500000000E+03 0.  0.
         25    1    1    2    0    0 -0.89985727739E+02 -0.98300737572E+02 -0.69873686279E+02  0.19562156895E+03  0.12500000000E+03 0.  0.
</event>
<event>
 4    0  0.2219362E-002  0.2333159E+03  0.7546771E-02  0.1124327E+00
         21   -1    0    0  502  501  0.00000000000E+00  0.00000000000E+00  0.37949936497E+02  0.37949936497E+02  0.00000000000E+00 0. -1.
         21   -1    0    0  501  502 -0.00000000000E+00 -0.00000000000E+00 -0.14344245555E+04  0.14344245555E+04  0.00000000000E+00 0. -1.
         25    1    1    2    0    0  0.63276818495E+02 -0.15881193638E+03 -0.10071712701E+04  0.10291958775E+04  0.12500000000E+03 0.  0.
         25    1    1    2    0    0 -0.63276818495E+02  0.15881193638E+03 -0.38930334885E+03  0.44317861447E+03  0.12500000000E+03 0.  0.
</event>
<event>
 4    0  0.2219362E-002  0.2095215E+03  0.7546771E-02  0.1141945E+00
         21   -1    0    0  502  501  0.00000000000E+00  0.00000000000E+00  0.15874359579E+03  0.15874359579E+03  0.00000000000E+00 0. -1.
         21   -1    0    0  501  502 -0.00000000000E+00 -0.00000000000E+00 -0.27654197447E+03  0.27654197447E+03  0.00000000000E+00 0. -1.
         25    1    1    2    0    0  0.94460957855E+02 -0.79773971259E+02  0.59480871419E+02  0.18560639298E+03  0.12500000000E+03 0.  0.
         25    1    1    2    0    0 -0.94460957855E+02  0.79773971259E+02 -0.17727925011E+03  0.24967917728E+03  0.12500000000E+03 0.  0.
</event>
<event>
 4    0  0.2219362E-002  0.2220589E+03  0.7546771E-02  0.1132357E+00
         21   -1    0    0  502  501  0.00000000000E+00  0.00000000000E+00  0.70216343778E+03  0.70216343778E+03  0.00000000000E+00 0. -1.
         21   -1    0    0  501  502 -0.00000000000E+00 -0.00000000000E+00 -0.70226009179E+02  0.70226009179E+02  0.00000000000E+00 0. -1.
         25    1    1    2    0    0 -0.96147681367E+02  0.37866227342E+02  0.57976420380E+03  0.60202139481E+03  0.12500000000E+03 0.  0.
         25    1    1    2    0    0  0.96147681367E+02 -0.37866227342E+02  0.52173224801E+02  0.17036805214E+03  0.12500000000E+03 0.  0.
</event>
<event>
 4    0  0.2219362E-002  0.2711082E+03  0.7546771E-02  0.1100647E+00
         21   -1    0    0  502  501  0.00000000000E+00  0.00000000000E+00  0.57477307383E+02  0.57477307383E+02  0.00000000000E+00 0.  1.
         21   -1    0    0  501  502 -0.00000000000E+00 -0.00000000000E+00 -0.12787594450E+04  0.12787594450E+04  0.00000000000E+00 0.  1.
         25    1    1    2    0    0 -0.88204087110E+02  0.14140161616E+03 -0.10382000070E+04  0.10588950054E+04  0.12500000000E+03 0.  0.
         25    1    1    2    0    0  0.88204087110E+02 -0.14140161616E+03 -0.18308213059E+03  0.27734174691E+03  0.12500000000E+03 0.  0.
</event>
<event>
 4    0  0.2219362E-002  0.1741701E+03  0.7546771E-02  0.1173568E+00
         21   -1    0    0  502  501  0.00000000000E+00  0.00000000000E+00  0.21363336988E+02  0.21363336988E+02  0.00000000000E+00 0.  1.
         21   -1    0    0  501  502 -0.00000000000E+00 -0.00000000000E+00 -0.14199673272E+04  0.14199673272E+04  0.00000000000E+00 0.  1.
         25    1    1    2    0    0 -0.10451123928E+03 -0.45111408514E+02 -0.87252341205E+03  0.88875178924E+03  0.12500000000E+03 0.  0.
         25    1    1    2    0    0  0.10451123928E+03  0.45111408514E+02 -0.52608057816E+03  0.55257887494E+03  0.12500000000E+03 0.  0.
</event>
<event>
 4    0  0.2219362E-002  0.1673154E+03  0.7546771E-02  0.1180677E+00
         21   -1    0    0  502  501  0.00000000000E+00  0.00000000000E+00  0.59403019302E+03  0.59403019302E+03  0.00000000000E+00 0. -1.
         21   -1    0    0  501  502 -0.00000000000E+00 -0.00000000000E+00 -0.47126282241E+02  0.47126282241E+02  0.00000000000E+00 0. -1.
         25    1    1    2    0    0 -0.54705477978E+02 -0.67538664744E+02  0.14049572645E+03  0.20716710576E+03  0.12500000000E+03 0.  0.
         25    1    1    2    0    0  0.54705477978E+02  0.67538664744E+02  0.40640818432E+03  0.43398936950E+03  0.12500000000E+03 0.  0.
</event>
<event>
 4    0  0.2219362E-002  0.2429411E+03  0.7546771E-02  0.1117849E+00
         21   -1    0    0  502  501  0.00000000000E+00  0.00000000000E+00  0.10929186464E+04  0.10929186464E+04  0.00000000000E+00 0.  1.
         21   -1    0    0  501  502 -0.00000000000E+00 -0.00000000000E+00 -0.54002548452E+02  0.54002548452E+02  0.00000000000E+00 0.  1.
         25    1    1    2    0    0 -0.14288585746E+03  0.14541083915E+03  0.62056626754E+03  0.66504749666E+03  0.12500000000E+03 0.  0.
         25    1    1    2    0    0  0.14288585746E+03 -0.14541083915E+03  0.41834983039E+03  0.48187369817E+03  0.12500000000E+03 0.  0.
</event>
<event>
 4    0  0.2219362E-002  0.2048188E+03  0.7546771E-02  0.1145736E+00
         21   -1    0    0  502  501  0.00000000000E+00  0.00000000000E+00  0.32377503081E+03  0.32377503081E+03  0.00000000000E+00 0. -1.
         21   -1    0    0  501  502 -0.00000000000E+00 -0.00000000000E+00 -0.12956755205E+03  0.12956755205E+03  0.00000000000E+00 0. -1.
         25    1    1    2    0    0  0.51523677296E+02  0.94869191310E+02 -0.36942574981E+02  0.16924717613E+03  0.12500000000E+03 0.  0.
         25    1    1    2    0    0 -0.51523677296E+02 -0.94869191310E+02  0.23115005374E+03  0.28409540673E+03  0.12500000000E+03 0.  0.
</event>
<event>
 4    0  0.2219362E-002  0.1596915E+03  0.7546771E-02  0.1189046E+00
         21   -1    0    0  502  501  0.00000000000E+00  0.00000000000E+00  0.11697547874E+02  0.11697547874E+02  0.00000000000E+00 0.  1.
         21   -1    0    0  501  502 -0.00000000000E+00 -0.00000000000E+00 -0.21800607860E+04  0.21800607860E+04  0.00000000000E+00 0.  1.
         25    1    1    2    0    0  0.70785695517E+02 -0.45676796295E+02 -0.14459703174E+04  0.14538060885E+04  0.12500000000E+03 0.  0.
         25    1    1    2    0    0 -0.70785695517E+02  0.45676796295E+02 -0.72239292072E+03  0.73795224528E+03  0.12500000000E+03 0.  0.
</event>
<event>
 4    0  0.2219362E-002  0.2742579E+03  0.7546771E-02  0.1098867E+00
         21   -1    0    0  502  501  0.00000000000E+00  0.00000000000E+00  0.55290438856E+02  0.55290438856E+02  0.00000000000E+00 0.  1.
         21   -1    0    0  501  502 -0.00000000000E+00 -0.00000000000E+00 -0.13604048677E+04  0.13604048677E+04  0.00000000000E+00 0.  1.
         25    1    1    2    0    0  0.11879120036E+03  0.17797995657E+03 -0.95579673862E+03  0.98740094175E+03  0.12500000000E+03 0.  0.
         25    1    1    2    0    0 -0.11879120036E+03 -0.17797995657E+03 -0.34931769026E+03  0.42829436484E+03  0.12500000000E+03 0.  0.
</event>
<event>
 4    0  0.2219362E-002  0.2766622E+03  0.7546771E-02  0.1097526E+00
         21   -1    0    0  502  501  0.00000000000E+00  0.00000000000E+00  0.26243160746E+03  0.26243160746E+03  0.00000000000E+00 0. -1.
         21   -1    0    0  501  502 -0.00000000000E+00 -0.00000000000E+00 -0.29166441884E+03  0.29166441884E+03  0.00000000000E+00 0. -1.
         25    1    1    2    0    0  0.22701166225E+03  0.48138492778E+02  0.69556472238E+02  0.27260724883E+03  0.12500000000E+03 0.  0.
         25    1    1    2    0    0 -0.22701166225E+03 -0.48138492778E+02 -0.98789283622E+02  0.28148877747E+03  0.12500000000E+03 0.  0.
</event>
<event>
 4    0  0.2219362E-002  0.1968321E+03  0.7546771E-02  0.1152440E+00
         21   -1    0    0  502  501  0.00000000000E+00  0.00000000000E+00  0.37709615639E+02  0.37709615639E+02  0.00000000000E+00 0.  1.
         21   -1    0    0  501  502 -0.00000000000E+00 -0.00000000000E+00 -0.10274004692E+04  0.10274004692E+04  0.00000000000E+00 0.  1.
         25    1    1    2    0    0  0.26845016970E+02  0.14955617197E+03 -0.50970751743E+03  0.54636476536E+03  0.12500000000E+03 0.  0.
         25    1    1    2    0    0 -0.26845016970E+02 -0.14955617197E+03 -0.47998333617E+03  0.51874531951E+03  0.12500000000E+03 0.  0.
</event>
<event>
 4    0  0.2219362E-002  0.1771655E+03  0.7546771E-02  0.1170575E+00
         21   -1    0    0  502  501  0.00000000000E+00  0.00000000000E+00  0.15944469403E+03  0.15944469403E+03  0.00000000000E+00 0. -1.
         21   -1    0    0  501  502 -0.00000000000E+00 -0.00000000000E+00 -0.19685581620E+03  0.19685581620E+03  0.00000000000E+00 0. -1.
         25    1    1    2    0    0  0.14127837888E+01  0.11387586335E+03  0.34436150491E+02  0.17257043974E+03  0.12500000000E+03 0.  0.
         25    1    1    2    0    0 -0.14127837888E+01 -0.11387586335E+03 -0.71847272668E+02  0.18373007049E+03  0.12500000000E+03 0.  0.
</event>
<event>
 4    0  0.2219362E-002  0.2947359E+03  0.7546771E-02  0.1087902E+00
         21   -1    0    0  502  501  0.00000000000E+00  0.00000000000E+00  0.48056215679E+03  0.48056215679E+03  0.00000000000E+00 0.  1.
         21   -1    0    0  501  502 -0.00000000000E+00 -0.00000000000E+00 -0.18076595655E+03  0.18076595655E+03  0.00000000000E+00 0.  1.
         25    1    1    2    0    0 -0.45376994077E+02 -0.19354220062E+03 -0.49934255212E+02  0.24007516501E+03  0.12500000000E+03 0.  0.
         25    1    1    2    0    0  0.45376994077E+02  0.19354220062E+03  0.34973045545E+03  0.42125294833E+03  0.12500000000E+03 0.  0.
</event>
<event>
 4    0  0.2219362E-002  0.1795406E+03  0.7546771E-02  0.1168248E+00
         21   -1    0    0  502  501  0.00000000000E+00  0.00000000000E+00  0.47143514014E+03  0.47143514014E+03  0.00000000000E+00 0. -1.
         21   -1    0    0  501  502 -0.00000000000E+00 -0.00000000000E+00 -0.68375954458E+02  0.68375954458E+02  0.00000000000E+00 0. -1.
         25    1    1    2    0    0  0.16008366696E+02 -0.12526083821E+03  0.16281289304E+03  0.24099706126E+03  0.12500000000E+03 0.  0.
         25    1    1    2    0    0 -0.16008366696E+02  0.12526083821E+03  0.24024629264E+03  0.29881403334E+03  0.12500000000E+03 0.  0.
</event>
<event>
 4    0  0.2219362E-002  0.2473097E+03  0.7546771E-02  0.1115017E+00
         21   -1    0    0  502  501  0.00000000000E+00  0.00000000000E+00  0.32745930123E+03  0.32745930123E+03  0.00000000000E+00 0.  1.
         21   -1    0    0  501  502 -0.00000000000E+00 -0.00000000000E+00 -0.18677767541E+03  0.18677767541E+03  0.00000000000E+00 0.  1.
         25    1    1    2    0    0 -0.68153673096E+02  0.14882647823E+03 -0.71993593593E+02  0.21817956206E+03  0.12500000000E+03 0.  0.
         25    1    1    2    0    0  0.68153673096E+02 -0.14882647823E+03  0.21267521941E+03  0.29605741459E+03  0.12500000000E+03 0.  0.
</event>
<event>
 4    0  0.2219362E-002  0.1851738E+03  0.7546771E-02  0.1162888E+00
         21   -1    0    0  502  501  0.00000000000E+00  0.00000000000E+00  0.28574731269E+02  0.28574731269E+02  0.00000000000E+00 0.  1.
         21   -1    0    0  501  502 -0.00000000000E+00 -0.00000000000E+00 -0.11999878780E+04  0.11999878780E+04  0.00000000000E+00 0.  1.
         25    1    1    2    0    0  0.75959426731E+02 -0.29410959620E+02 -0.94954740571E+03  0.96119722988E+03  0.12500000000E+03 0.  0.
         25    1    1    2    0    0 -0.75959426731E+02  0.29410959620E+02 -0.22186574105E+03  0.26736537941E+03  0.12500000000E+03 0.  0.
</event>
<event>
 4    0  0.2219362E-002  0.3455572E+03  0.7546771E-02  0.1064453E+00
         21   -1    0    0  502  501  0.00000000000E+00  0.00000000000E+00  0.42997210262E+03  0.42997210262E+03  0.00000000000E+00 0.  1.
         21   -1    0    0  501  502 -0.00000000000E+00 -0.00000000000E+00 -0.27771512102E+03  0.27771512102E+03  0.00000000000E+00 0.  1.
         25    1    1    2    0    0  0.23299184399E+03  0.15977571494E+03 -0.82410844632E+02  0.31973430495E+03  0.12500000000E+03 0.  0.
         25    1    1    2    0    0 -0.23299184399E+03 -0.15977571494E+03  0.23466782623E+03  0.38795291869E+03  0.12500000000E+03 0.  0.
</event>
<event>
 4    0  0.2219362E-002  0.2320566E+03  0.7546771E-02  0.1125201E+00
         21   -1    0    0  502  501  0.00000000000E+00  0.00000000000E+00  0.28529637051E+03  0.28529637051E+03  0.00000000000E+00 0. -1.
         21   -1    0    0  501  502 -0.00000000000E+00 -0.00000000000E+00 -0.18875203892E+03  0.18875203892E+03  0.00000000000E+00 0. -1.
         25    1    1    2    0    0  0.18651473855E+03  0.48787706169E+02  0.81484126005E+02  0.24378812678E+03  0.12500000000E+03 0.  0.
         25    1    1    2    0    0 -0.18651473855E+03 -0.48787706169E+02  0.15060205583E+02  0.23026028264E+03  0.12500000000E+03 0.  0.
</event>
<event>
 4    0  0.2219362E-002  0.1815973E+03  0.7546771E-02  0.1166266E+00
         21   -1    0    0  502  501  0.00000000000E+00  0.00000000000E+00  0.39421720714E+03  0.39421720714E+03  0.00000000000E+00 0.  1.
         21   -1    0    0  501  502 -0.00000000000E+00 -0.00000000000E+00 -0.83653320491E+02  0.83653320491E+02  0.00000000000E+00 0.  1.
         25    1    1    2    0    0 -0.92619847310E+02  0.45535457673E+02  0.26298543975E+03  0.30893082646E+03  0.12500000000E+03 0.  0.
         25    1    1    2    0    0  0.92619847310E+02 -0.45535457673E+02  0.47578446903E+02  0.16893970117E+03  0.12500000000E+03 0.  0.
</event>
<event>
 4    0  0.2219362E-002  0.1610216E+03  0.7546771E-02  0.1187548E+00
         21   -1    0    0  502  501  0.00000000000E+00  0.00000000000E+00  0.79021347772E+02  0.79021347772E+02  0.00000000000E+00 0.  1.
         21   -1    0    0  501  502 -0.00000000000E+00 -0.00000000000E+00 -0.32811328373E+03  0.32811328373E+03  0.00000000000E+00 0.  1.
         25    1    1    2    0    0  0.17823352301E+02 -0.82895316769E+02 -0.54002189625E+02  0.16040742475E+03  0.12500000000E+03 0.  0.
         25    1    1    2    0    0 -0.17823352301E+02  0.82895316769E+02 -0.19508974633E+03  0.24672720676E+03  0.12500000000E+03 0.  0.
</event>
<event>
 4    0  0.2219362E-002  0.2621743E+03  0.7546771E-02  0.1105844E+00
         21   -1    0    0  502  501  0.00000000000E+00  0.00000000000E+00  0.14461099679E+03  0.14461099679E+03  0.00000000000E+00 0. -1.
         21   -1    0    0  501  502 -0.00000000000E+00 -0.00000000000E+00 -0.47531203442E+03  0.47531203442E+03  0.00000000000E+00 0. -1.
         25    1    1    2    0    0  0.15255157724E+03 -0.15281308210E+03 -0.26056955233E+03  0.36075658467E+03  0.12500000000E+03 0.  0.
         25    1    1    2    0    0 -0.15255157724E+03  0.15281308210E+03 -0.70131485300E+02  0.25916644654E+03  0.12500000000E+03 0.  0.
</event>
<event>
 4    0  0.2219362E-002  0.2870379E+03  0.7546771E-02  0.1091906E+00
         21   -1    0    0  502  501  0.00000000000E+00  0.00000000000E+00  0.19855350166E+04  0.19855350166E+04  0.00000000000E+00 0. -1.
         21   -1    0    0  501  502 -0.00000000000E+00 -0.00000000000E+00 -0.41495493259E+02  0.41495493259E+02  0.00000000000E+00 0. -1.
         25    1    1    2    0    0 -0.23172388478E+03  0.10037166034E+03  0.11652669089E+04  0.11988504485E+04  0.12500000000E+03 0.  0.
         25    1    1    2    0    0  0.23172388478E+03 -0.10037166034E+03  0.77877261448E+03  0.82818006136E+03  0.12500000000E+03 0.  0.
</event>
<event>
 4    0  0.2219362E-002  0.3585153E+03  0.7546771E-02  0.1059173E+00
         21   -1    0    0  502  501  0.00000000000E+00  0.00000000000E+00  0.49379594483E+03  0.49379594483E+03  0.00000000000E+00 0.  1.
         21   -1    0    0  501  502 -0.00000000000E+00 -0.00000000000E+00 -0.26029620773E+03  0.26029620773E+03  0.00000000000E+00 0.  1.
         25    1    1    2    0    0  0.20191525157E+03  0.24846022729E+03  0.22403209794E+03  0.41026532180E+03  0.12500000000E+03 0.  0.
         25    1    1    2    0    0 -0.20191525157E+03 -0.24846022729E+03  0.94676391618E+01  0.34382683076E+03  0.12500000000E+03 0.  0.
</event>
<event>
 4    0  0.2219362E-002  0.2823844E+03  0.7546771E-02  0.1094394E+00
         21   -1    0    0  502  501  0.00000000000E+00  0.00000000000E+00  0.18162014201E+03  0.18162014201E+03  0.00000000000E+00 0. -1.
         21   -1    0    0  501  502 -0.00000000000E+00 -0.00000000000E+00 -0.43905343873E+03  0.43905343873E+03  0.00000000000E+00 0. -1.
         25    1    1    2    0    0 -0.23198211174E+03  0.84470193935E+02 -0.19054415907E+03  0.33598063990E+03  0.12500000000E+03 0.  0.
         25    1    1    2    0    0  0.23198211174E+03 -0.84470193935E+02 -0.66889137651E+02  0.28469294085E+03  0.12500000000E+03 0.  0.
</event>
<event>
 4    0  0.2219362E-002  0.1882730E+03  0.7546771E-02  0.1160028E+00
         21   -1    0    0  502  501  0.00000000000E+00  0.00000000000E+00  0.46184693650E+03  0.46184693650E+03  0.00000000000E+00 0.  1.
         21   -1    0    0  501  502 -0.00000000000E+00 -0.00000000000E+00 -0.76749972267E+02  0.76749972267E+02  0.00000000000E+00 0.  1.
         25    1    1    2    0    0 -0.10633871716E+03 -0.92163428398E+02  0.19890019840E+03  0.27383993358E+03  0.12500000000E+03 0.  0.
         25    1    1    2    0    0  0.10633871716E+03  0.92163428398E+02  0.18619676584E+03  0.26475697519E+03  0.12500000000E+03 0.  0.
</event>
<event>
 4    0  0.2219362E-002  0.2400557E+03  0.7546771E-02  0.1119756E+00
         21   -1    0    0  502  501  0.00000000000E+00  0.00000000000E+00  0.10236827538E+04  0.10236827538E+04  0.00000000000E+00 0.  1.
         21   -1    0    0  501  502 -0.00000000000E+00 -0.00000000000E+00 -0.56293547719E+02  0.56293547719E+02  0.00000000000E+00 0.  1.
         25    1    1    2    0    0  0.20326542524E+03 -0.25391166973E+02  0.46943430910E+03  0.52721448673E+03  0.12500000000E+03 0.  0.
         25    1    1    2    0    0 -0.20326542524E+03  0.25391166973E+02  0.49795489695E+03  0.55276181475E+03  0.12500000000E+03 0.  0.
</event>
<event>
 4    0  0.2219362E-002  0.2381196E+03  0.7546771E-02  0.1121052E+00
         21   -1    0    0  502  501  0.00000000000E+00  0.00000000000E+00  0.28954711831E+02  0.28954711831E+02  0.00000000000E+00 0.  1.
         21   -1    0    0  501  502 -0.00000000000E+00 -0.00000000000E+00 -0.19582633050E+04  0.19582633050E+04  0.00000000000E+00 0.  1.
         25    1    1    2    0    0 -0.19568261868E+03  0.52758432818E+02 -0.96089838284E+03  0.98996254557E+03  0.12500000000E+03 0.  0.
         25    1    1    2    0    0  0.19568261868E+03 -0.52758432818E+02 -0.96841021031E+03  0.99725547124E+03  0.12500000000E+03 0.  0.
</event>
<event>
 4    0  0.2219362E-002  0.1773862E+03  0.7546771E-02  0.1170357E+00
         21   -1    0    0  502  501  0.00000000000E+00  0.00000000000E+00  0.74952259443E+03  0.74952259443E+03  0.00000000000E+00 0. -1.
         21   -1    0    0  501  502 -0.00000000000E+00 -0.00000000000E+00 -0.41981219357E+02  0.41981219357E+02  0.00000000000E+00 0. -1.
         25    1    1    2    0    0  0.12005892769E+03 -0.97306547401E+01  0.27234491779E+03  0.32296375340E+03  0.12500000000E+03 0.  0.
         25    1    1    2    0    0 -0.12005892769E+03  0.97306547401E+01  0.43519645728E+03  0.46854006039E+03  0.12500000000E+03 0.  0.
</event>
<event>
 4    0  0.2219362E-002  0.1844572E+03  0.7546771E-02  0.1163558E+00
         21   -1    0    0  502  501  0.00000000000E+00  0.00000000000E+00  0.59533808878E+03  0.59533808878E+03  0.00000000000E+00 0. -1.
         21   -1    0    0  501  502 -0.00000000000E+00 -0.00000000000E+00 -0.57151494730E+02  0.57151494730E+02  0.00000000000E+00 0. -1.
         25    1    1    2    0    0  0.12472944996E+03 -0.47593885280E+02  0.31157272573E+03  0.36128268298E+03  0.12500000000E+03 0.  0.
         25    1    1    2    0    0 -0.12472944996E+03  0.47593885280E+02  0.22661386832E+03  0.29120690053E+03  0.12500000000E+03 0.  0.
</event>
<event>
 4    0  0.2219362E-002  0.2108267E+03  0.7546771E-02  0.1140913E+00
         21   -1    0    0  502  501  0.00000000000E+00  0.00000000000E+00  0.34552340200E+03  0.34552340200E+03  0.00000000000E+00 0. -1.
         21   -1    0    0  501  502 -0.00000000000E+00 -0.00000000000E+00 -0.12863932040E+03  0.12863932040E+03  0.00000000000E+00 0. -1.
         25    1    1    2    0    0  0.41053816739E+02 -0.24421353239E+02  0.29164440887E+03  0.32087891733E+03  0.12500000000E+03 0.  0.
         25    1    1    2    0    0 -0.41053816739E+02  0.24421353239E+02 -0.74760327272E+02  0.15328380507E+03  0.12500000000E+03 0.  0.
</event>
<event>
 4    0  0.2219362E-002  0.1897420E+03  0.7546771E-02  0.1158694E+00
         21   -1    0    0  502  501  0.00000000000E+00  0.00000000000E+00  0.25012745465E+03  0.25012745465E+03  0.00000000000E+00 0.  1.
         21   -1    0    0  501  502 -0.00000000000E+00 -0.00000000000E+00 -0.14393479078E+03  0.14393479078E+03  0.00000000000E+00 0.  1.
         25    1    1    2    0    0 -0.12841635661E+03 -0.61273833751E+02  0.65017756409E+02  0.20024373148E+03  0.12500000000E+03 0.  0.
         25    1    1    2    0    0  0.12841635661E+03  0.61273833751E+02  0.41174907460E+02  0.19381851395E+03  0.12500000000E+03 0.  0.
</event>
<event>
 4    0  0.2219362E-002  0.2716796E+03  0.7546771E-02  0.1100322E+00
         21   -1    0    0  502  501  0.00000000000E+00  0.00000000000E+00  0.66046130585E+03  0.66046130585E+03  0.00000000000E+00 0.  1.
         21   -1    0    0  501  502 -0.00000000000E+00 -0.00000000000E+00 -0.11175491929E+03  0.11175491929E+03  0.00000000000E+00 0.  1.
         25    1    1    2    0    0  0.17646910382E+03  0.13115749744E+03  0.41533893569E+03  0.48628701940E+03  0.12500000000E+03 0.  0.
         25    1    1    2    0    0 -0.17646910382E+03 -0.13115749744E+03  0.13336745087E+03  0.28592920573E+03  0.12500000000E+03 0.  0.
</event>
<event>
 4    0  0.2219362E-002  0.3788701E+03  0.7546771E-02  0.1051352E+00
         21   -1    0    0  502  501  0.00000000000E+00  0.00000000000E+00  0.32240484460E+03  0.32240484460E+03  0.00000000000E+00 0. -1.
         21   -1    0    0  501  502 -0.00000000000E+00 -0.00000000000E+00 -0.44522450672E+03  0.44522450672E+03  0.00000000000E+00 0. -1.
         25    1    1    2    0    0  0.15838434562E+03  0.12055669088E+03 -0.36243773310E+03  0.43197873446E+03  0.12500000000E+03 0.  0.
         25    1    1    2    0    0 -0.15838434562E+03 -0.12055669088E+03  0.23961807098E+03  0.33565061686E+03  0.12500000000E+03 0.  0.
</event>
<event>
 4    0  0.2219362E-002  0.1841145E+03  0.7546771E-02  0.1163879E+00
         21   -1    0    0  502  501  0.00000000000E+00  0.00000000000E+00  0.22740057504E+02  0.22740057504E+02  0.00000000000E+00 0. -1.
         21   -1    0    0  501  502 -0.00000000000E+00 -0.00000000000E+00 -0.14906798946E+04  0.14906798946E+04  0.00000000000E+00 0. -1.
         25    1    1    2    0    0 -0.61292204015E+02 -0.11619670033E+03 -0.60304609595E+03  0.62972057397E+03  0.12500000000E+03 0.  0.
         25    1    1    2    0    0  0.61292204015E+02  0.11619670033E+03 -0.86489374117E+03  0.88369937816E+03  0.12500000000E+03 0.  0.
</event>
<event>
 4    0  0.2219362E-002  0.2709171E+03  0.7546771E-02  0.1100756E+00
         21   -1    0    0  502  501  0.00000000000E+00  0.00000000000E+00  0.11451347539E+04  0.11451347539E+04  0.00000000000E+00 0.  1.
         21   -1    0    0  501  502 -0.00000000000E+00 -0.00000000000E+00 -0.64093822814E+02  0.64093822814E+02  0.00000000000E+00 0.  1.
         25    1    1    2    0    0  0.16632597455E+02  0.21507496137E+03  0.77709648636E+03  0.81611140870E+03  0.12500000000E+03 0.  0.
         25    1    1    2    0    0 -0.16632597455E+02 -0.21507496137E+03  0.30394444475E+03  0.39311716803E+03  0.12500000000E+03 0.  0.
</event>
<event>
 4    0  0.2219362E-002  0.2769834E+03  0.7546771E-02  0.1097348E+00
         21   -1    0    0  502  501  0.00000000000E+00  0.00000000000E+00  0.13969416377E+03  0.13969416377E+03  0.00000000000E+00 0. -1.
         21   -1    0    0  501  502 -0.00000000000E+00 -0.00000000000E+00 -0.54919836993E+03  0.54919836993E+03  0.00000000000E+00 0. -1.
         25    1    1    2    0    0  0.66797283379E+02  0.16654513061E+02 -0.49996552929E+03  0.51993247672E+03  0.12500000000E+03 0.  0.
         25    1    1    2    0    0 -0.66797283379E+02 -0.16654513061E+02  0.90461323131E+02  0.16896005698E+03  0.12500000000E+03 0.  0.
</event>
<event>
 4    0  0.2219362E-002  0.2206452E+03  0.7546771E-02  0.1133403E+00
         21   -1    0    0  502  501  0.00000000000E+00  0.00000000000E+00  0.12906936347E+03  0.12906936347E+03  0.00000000000E+00 0.  1.
         21   -1    0    0  501  502 -0.00000000000E+00 -0.00000000000E+00 -0.37719491626E+03  0.37719491626E+03  0.00000000000E+00 0.  1.
         25    1    1    2    0    0  0.78158116395E+00  0.15133637837E+03 -0.23967774956E+03  0.30979627809E+03  0.12500000000E+03 0.  0.
         25    1    1    2    0    0 -0.78158116395E+00 -0.15133637837E+03 -0.84478032253E+01  0.19646800164E+03  0.12500000000E+03 0.  0.
</event>
<event>
 4    0  0.2219362E-002  0.1897309E+03  0.7546771E-02  0.1158704E+00
         21   -1    0    0  502  501  0.00000000000E+00  0.00000000000E+00  0.14210873600E+03  0.14210873600E+03  0.00000000000E+00 0.  1.
         21   -1    0    0  501  502 -0.00000000000E+00 -0.00000000000E+00 -0.25331167920E+03  0.25331167920E+03  0.00000000000E+00 0.  1.
         25    1    1    2    0    0 -0.42873206614E+02  0.80536884502E+02  0.58780506996E+02  0.16554289358E+03  0.12500000000E+03 0.  0.
         25    1    1    2    0    0  0.42873206614E+02 -0.80536884502E+02 -0.16998345020E+03  0.22987752163E+03  0.12500000000E+03 0.  0.
</event>
<event>
 4    0  0.2219362E-002  0.2004337E+03  0.7546771E-02  0.1149374E+00
         21   -1    0    0  502  501  0.00000000000E+00  0.00000000000E+00  0.62656149764E+02  0.62656149764E+02  0.00000000000E+00 0. -1.
         21   -1    0    0  501  502 -0.00000000000E+00 -0.00000000000E+00 -0.64117696319E+03  0.64117696319E+03  0.00000000000E+00 0. -1.
         25    1    1    2    0    0  0.79205049442E+02  0.64987782521E+00 -0.52661378541E+03  0.54701091505E+03  0.12500000000E+03 0.  0.
         25    1    1    2    0    0 -0.79205049442E+02 -0.64987782521E+00 -0.51907028014E+02  0.15682219790E+03  0.12500000000E+03 0.  0.
</event>
<event>
 4    0  0.2219362E-002  0.2096437E+03  0.7546771E-02  0.1141848E+00
         21   -1    0    0  502  501  0.00000000000E+00  0.00000000000E+00  0.15716970140E+03  0.15716970140E+03  0.00000000000E+00 0. -1.
         21   -1    0    0  501  502 -0.00000000000E+00 -0.00000000000E+00 -0.27963720372E+03  0.27963720372E+03  0.00000000000E+00 0. -1.
         25    1    1    2    0    0 -0.12242054992E+03 -0.99303613505E+01 -0.18110723378E+03  0.25201236725E+03  0.12500000000E+03 0.  0.
         25    1    1    2    0    0  0.12242054992E+03  0.99303613505E+01  0.58639731458E+02  0.18479453787E+03  0.12500000000E+03 0.  0.
</event>
<event>
 4    0  0.2219362E-002  0.1938931E+03  0.7546771E-02  0.1154996E+00
         21   -1    0    0  502  501  0.00000000000E+00  0.00000000000E+00  0.28303796806E+02  0.28303796806E+02  0.00000000000E+00 0. -1.
         21   -1    0    0  501  502 -0.00000000000E+00 -0.00000000000E+00 -0.13282499292E+04  0.13282499292E+04  0.00000000000E+00 0. -1.
         25    1    1    2    0    0 -0.11556260369E+03 -0.81858643393E+02 -0.49693074330E+03  0.53162083905E+03  0.12500000000E+03 0.  0.
         25    1    1    2    0    0  0.11556260369E+03  0.81858643393E+02 -0.80301538909E+03  0.82493288695E+03  0.12500000000E+03 0.  0.
</event>
<event>
 4    0  0.2219362E-002  0.2346852E+03  0.7546771E-02  0.1123385E+00
         21   -1    0    0  502  501  0.00000000000E+00  0.00000000000E+00  0.31025194105E+02  0.31025194105E+02  0.00000000000E+00 0. -1.
         21   -1    0    0  501  502 -0.00000000000E+00 -0.00000000000E+00 -0.17752398268E+04  0.17752398268E+04  0.00000000000E+00 0. -1.
         25    1    1    2    0    0 -0.11796554321E+03 -0.10506081436E+03 -0.40873777400E+03  0.45568104195E+03  0.12500000000E+03 0.  0.
         25    1    1    2    0    0  0.11796554321E+03  0.10506081436E+03 -0.13354768587E+04  0.13505839790E+04  0.12500000000E+03 0.  0.
</event>
<event>
 4    0  0.2219362E-002  0.2126961E+03  0.7546771E-02  0.1139449E+00
         21   -1    0    0  502  501  0.00000000000E+00  0.00000000000E+00  0.15876779116E+03  0.15876779116E+03  0.00000000000E+00 0.  1.
         21   -1    0    0  501  502 -0.00000000000E+00 -0.00000000000E+00 -0.28494207073E+03  0.28494207073E+03  0.00000000000E+00 0.  1.
         25    1    1    2    0    0 -0.24159509580E+02  0.13016264180E+03 -0.17776989078E+03  0.25446636181E+03  0.12500000000E+03 0.  0.
         25    1    1    2    0    0  0.24159509580E+02 -0.13016264180E+03  0.51595611215E+02  0.18924350007E+03  0.12500000000E+03 0.  0.
</event>
<event>
 4    0  0.2219362E-002  0.2782711E+03  0.7546771E-02  0.1096637E+00
         21   -1    0    0  502  501  0.00000000000E+00  0.00000000000E+00  0.32356613847E+03  0.32356613847E+03  0.00000000000E+00 0.  1.
         21   -1    0    0  501  502 -0.00000000000E+00 -0.00000000000E+00 -0.23931672576E+03  0.23931672576E+03  0.00000000000E+00 0.  1.
         25    1    1    2    0    0 -0.62713743394E+02 -0.23937278709E+03  0.17820865288E+02  0.27780375816E+03  0.12500000000E+03 0.  0.
         25    1    1    2    0    0  0.62713743394E+02  0.23937278709E+03  0.66428547417E+02  0.28507910607E+03  0.12500000000E+03 0.  0.
</event>
<event>
 4    0  0.2219362E-002  0.2060975E+03  0.7546771E-02  0.1144694E+00
         21   -1    0    0  502  501  0.00000000000E+00  0.00000000000E+00  0.38584703845E+02  0.38584703845E+02  0.00000000000E+00 0. -1.
         21   -1    0    0  501  502 -0.00000000000E+00 -0.00000000000E+00 -0.11008557184E+04  0.11008557184E+04  0.00000000000E+00 0. -1.
         25    1    1    2    0    0  0.12993974220E+02 -0.16023289527E+03 -0.44338107230E+03  0.48790900726E+03  0.12500000000E+03 0.  0.
         25    1    1    2    0    0 -0.12993974220E+02  0.16023289527E+03 -0.61888994228E+03  0.65153141501E+03  0.12500000000E+03 0.  0.
</event>
<event>
 4    0  0.2219362E-002  0.1861589E+03  0.7546771E-02  0.1161972E+00
         21   -1    0    0  502  501  0.00000000000E+00  0.00000000000E+00  0.86447195459E+02  0.86447195459E+02  0.00000000000E+00 0. -1.
         21   -1    0    0  501  502 -0.00000000000E+00 -0.00000000000E+00 -0.40088224092E+03  0.40088224092E+03  0.00000000000E+00 0. -1.
         25    1    1    2    0    0  0.12555236870E+03  0.16367666107E+02 -0.85539504641E+02  0.19741657639E+03  0.12500000000E+03 0.  0.
         25    1    1    2    0    0 -0.12555236870E+03 -0.16367666107E+02 -0.22889554082E+03  0.28991285999E+03  0.12500000000E+03 0.  0.
</event>
<event>
 4    0  0.2219362E-002  0.2126894E+03  0.7546771E-02  0.1139454E+00
         21   -1    0    0  502  501  0.00000000000E+00  0.00000000000E+00  0.11632114572E+03  0.11632114572E+03  0.00000000000E+00 0. -1.
         21   -1    0    0  501  502 -0.00000000000E+00 -0.00000000000E+00 -0.38889552647E+03  0.38889552647E+03  0.00000000000E+00 0. -1.
         25    1    1    2    0    0  0.70008351843E+01 -0.23072368507E+02 -0.33864901340E+03  0.36178653950E+03  0.12500000000E+03 0.  0.
         25    1    1    2    0    0 -0.70008351843E+01  0.23072368507E+02  0.66074632660E+02  0.14343013269E+03  0.12500000000E+03 0.  0.
</event>
<event>
 4    0  0.2219362E-002  0.2240805E+03  0.7546771E-02  0.1130877E+00
         21   -1    0    0  502  501  0.00000000000E+00  0.00000000000E+00  0.13468666319E+04  0.13468666319E+04  0.00000000000E+00 0.  1.
         21   -1    0    0  501  502 -0.00000000000E+00 -0.00000000000E+00 -0.37280667722E+02  0.37280667722E+02  0.00000000000E+00 0.  1.
         25    1    1    2    0    0  0.11065990758E+03  0.10736724664E+02  0.11152411359E+04  0.11277183530E+04  0.12500000000E+03 0.  0.
         25    1    1    2    0    0 -0.11065990758E+03 -0.10736724664E+02  0.19434482822E+03  0.25642894661E+03  0.12500000000E+03 0.  0.
</event>
<event>
 4    0  0.2219362E-002  0.2326609E+03  0.7546771E-02  0.1124781E+00
         21   -1    0    0  502  501  0.00000000000E+00  0.00000000000E+00  0.26532969488E+03  0.26532969488E+03  0.00000000000E+00 0. -1.
         21   -1    0    0  501  502 -0.00000000000E+00 -0.00000000000E+00 -0.20401446733E+03  0.20401446733E+03  0.00000000000E+00 0. -1.
         25    1    1    2    0    0 -0.69822653698E+02  0.16154711137E+03  0.11820319386E+03  0.24610905550E+03  0.12500000000E+03 0.  0.
         25    1    1    2    0    0  0.69822653698E+02 -0.16154711137E+03 -0.56887966308E+02  0.22323510672E+03  0.12500000000E+03 0.  0.
</event>
<event>
 4    0  0.2219362E-002  0.2672850E+03  0.7546771E-02  0.1102844E+00
         21   -1    0    0  502  501  0.00000000000E+00  0.00000000000E+00  0.35341852593E+03  0.35341852593E+03  0.00000000000E+00 0. -1.
         21   -1    0    0  501  502 -0.00000000000E+00 -0.00000000000E+00 -0.20214350881E+03  0.20214350881E+03  0.00000000000E+00 0. -1.
         25    1    1    2    0    0  0.49642683436E+02 -0.19495378119E+03 -0.53101414375E+02  0.24272645720E+03  0.12500000000E+03 0.  0.
         25    1    1    2    0    0 -0.49642683436E+02  0.19495378119E+03  0.20437643150E+03  0.31283557754E+03  0.12500000000E+03 0.  0.
</event>
<event>
 4    0  0.2219362E-002  0.2379687E+03  0.7546771E-02  0.1121153E+00
         21   -1    0    0  502  501  0.00000000000E+00  0.00000000000E+00  0.14890969659E+03  0.14890969659E+03  0.00000000000E+00 0.  1.
         21   -1    0    0  501  502 -0.00000000000E+00 -0.00000000000E+00 -0.38029158976E+03  0.38029158976E+03  0.00000000000E+00 0.  1.
         25    1    1    2    0    0 -0.11573661958E+03 -0.16472403550E+03 -0.13992791557E+03  0.27519773716E+03  0.12500000000E+03 0.  0.
         25    1    1    2    0    0  0.11573661958E+03  0.16472403550E+03 -0.91453977606E+02  0.25400354919E+03  0.12500000000E+03 0.  0.
</event>
<event>
 4    0  0.2219362E-002  0.5257004E+03  0.7546771E-02  0.1007280E+00
         21   -1    0    0  502  501  0.00000000000E+00  0.00000000000E+00  0.34740828419E+04  0.34740828419E+04  0.00000000000E+00 0.  1.
         21   -1    0    0  501  502 -0.00000000000E+00 -0.00000000000E+00 -0.79549322299E+02  0.79549322299E+02  0.00000000000E+00 0.  1.
         25    1    1    2    0    0 -0.12479464773E+03  0.24005247508E+03  0.31609519500E+04  0.31749710432E+04  0.12500000000E+03 0.  0.
         25    1    1    2    0    0  0.12479464773E+03 -0.24005247508E+03  0.23358156956E+03  0.37866112097E+03  0.12500000000E+03 0.  0.
</event>
<event>
 4    0  0.2219362E-002  0.1948044E+03  0.7546771E-02  0.1154198E+00
         21   -1    0    0  502  501  0.00000000000E+00  0.00000000000E+00  0.85472106012E+02  0.85472106012E+02  0.00000000000E+00 0. -1.
         21   -1    0    0  501  502 -0.00000000000E+00 -0.00000000000E+00 -0.44398996636E+03  0.44398996636E+03  0.00000000000E+00 0. -1.
         25    1    1    2    0    0  0.11205351823E+03 -0.68083916051E+02 -0.27661523475E+03  0.33065450045E+03  0.12500000000E+03 0.  0.
         25    1    1    2    0    0 -0.11205351823E+03  0.68083916051E+02 -0.81902625595E+02  0.19880757192E+03  0.12500000000E+03 0.  0.
</event>
<event>
 4    0  0.2219362E-002  0.3871186E+03  0.7546771E-02  0.1048334E+00
         21   -1    0    0  502  501  0.00000000000E+00  0.00000000000E+00  0.14736163573E+04  0.14736163573E+04  0.00000000000E+00 0. -1.
         21   -1    0    0  501  502 -0.00000000000E+00 -0.00000000000E+00 -0.10169592408E+03  0.10169592408E+03  0.00000000000E+00 0. -1.
         25    1    1    2    0    0  0.15027526074E+03 -0.16076373894E+02  0.13650463855E+04  0.13790640806E+04  0.12500000000E+03 0.  0.
         25    1    1    2    0    0 -0.15027526074E+03  0.16076373894E+02  0.68740477210E+01  0.19624820081E+03  0.12500000000E+03 0.  0.
</event>
<event>
 4    0  0.2219362E-002  0.2269205E+03  0.7546771E-02  0.1128826E+00
         21   -1    0    0  502  501  0.00000000000E+00  0.00000000000E+00  0.77219568001E+03  0.77219568001E+03  0.00000000000E+00 0. -1.
         21   -1    0    0  501  502 -0.00000000000E+00 -0.00000000000E+00 -0.66683742282E+02  0.66683742282E+02  0.00000000000E+00 0. -1.
         25    1    1    2    0    0 -0.18873169505E+03  0.57897351494E+01  0.37984142415E+03  0.44221904216E+03  0.12500000000E+03 0.  0.
         25    1    1    2    0    0  0.18873169505E+03 -0.57897351494E+01  0.32567051358E+03  0.39666038013E+03  0.12500000000E+03 0.  0.
</event>
<event>
 4    0  0.2219362E-002  0.2367477E+03  0.7546771E-02  0.1121979E+00
         21   -1    0    0  502  501  0.00000000000E+00  0.00000000000E+00  0.48559262480E+02  0.48559262480E+02  0.00000000000E+00 0. -1.
         21   -1    0    0  501  502 -0.00000000000E+00 -0.00000000000E+00 -0.11542492167E+04  0.11542492167E+04  0.00000000000E+00 0. -1.
         25    1    1    2    0    0  0.38304926920E+02 -0.16645452215E+03 -0.82228315762E+03  0.84908713727E+03  0.12500000000E+03 0.  0.
         25    1    1    2    0    0 -0.38304926920E+02  0.16645452215E+03 -0.28340679664E+03  0.35372134195E+03  0.12500000000E+03 0.  0.
</event>
<event>
 4    0  0.2219362E-002  0.1752845E+03  0.7546771E-02  0.1172446E+00
         21   -1    0    0  502  501  0.00000000000E+00  0.00000000000E+00  0.79784262309E+02  0.79784262309E+02  0.00000000000E+00 0.  1.
         21   -1    0    0  501  502 -0.00000000000E+00 -0.00000000000E+00 -0.38509648252E+03  0.38509648252E+03  0.00000000000E+00 0.  1.
         25    1    1    2    0    0  0.46878347859E+02  0.11338103542E+03 -0.16172786888E+03  0.23839828494E+03  0.12500000000E+03 0.  0.
         25    1    1    2    0    0 -0.46878347859E+02 -0.11338103542E+03 -0.14358435133E+03  0.22648245989E+03  0.12500000000E+03 0.  0.
</event>
<event>
 4    0  0.2219362E-002  0.2597843E+03  0.7546771E-02  0.1107273E+00
         21   -1    0    0  502  501  0.00000000000E+00  0.00000000000E+00  0.81271962017E+03  0.81271962017E+03  0.00000000000E+00 0.  1.
         21   -1    0    0  501  502 -0.00000000000E+00 -0.00000000000E+00 -0.83039586794E+02  0.83039586794E+02  0.00000000000E+00 0.  1.
         25    1    1    2    0    0 -0.44663894162E+02 -0.21733046453E+03  0.27633244507E+03  0.37578187084E+03  0.12500000000E+03 0.  0.
         25    1    1    2    0    0  0.44663894162E+02  0.21733046453E+03  0.45334758830E+03  0.51997733612E+03  0.12500000000E+03 0.  0.
</event>
<event>
 4    0  0.2219362E-002  0.1648727E+03  0.7546771E-02  0.1183303E+00
         21   -1    0    0  502  501  0.00000000000E+00  0.00000000000E+00  0.67546225604E+03  0.67546225604E+03  0.00000000000E+00 0.  1.
         21   -1    0    0  501  502 -0.00000000000E+00 -0.00000000000E+00 -0.40243578611E+02  0.40243578611E+02  0.00000000000E+00 0.  1.
         25    1    1    2    0    0  0.75376784250E+02  0.72720972494E+02  0.26497715545E+03  0.31113966696E+03  0.12500000000E+03 0.  0.
         25    1    1    2    0    0 -0.75376784250E+02 -0.72720972494E+02  0.37024152198E+03  0.40456616770E+03  0.12500000000E+03 0.  0.
</event>
<event>
 4    0  0.2219362E-002  0.3054042E+03  0.7546771E-02  0.1082570E+00
         21   -1    0    0  502  501  0.00000000000E+00  0.00000000000E+00  0.98232771754E+02  0.98232771754E+02  0.00000000000E+00 0. -1.
         21   -1    0    0  501  502 -0.00000000000E+00 -0.00000000000E+00 -0.94949708174E+03  0.94949708174E+03  0.00000000000E+00 0. -1.
         25    1    1    2    0    0 -0.13373043912E+03 -0.52842608544E+02 -0.16211691955E+02  0.19121712942E+03  0.12500000000E+03 0.  0.
         25    1    1    2    0    0  0.13373043912E+03  0.52842608544E+02 -0.83505261803E+03  0.85651272407E+03  0.12500000000E+03 0.  0.
</event>
<event>
 4    0  0.2219362E-002  0.1853292E+03  0.7546771E-02  0.1162743E+00
         21   -1    0    0  502  501  0.00000000000E+00  0.00000000000E+00  0.31365593505E+03  0.31365593505E+03  0.00000000000E+00 0. -1.
         21   -1    0    0  501  502 -0.00000000000E+00 -0.00000000000E+00 -0.10950511755E+03  0.10950511755E+03  0.00000000000E+00 0. -1.
         25    1    1    2    0    0  0.31006098326E+02 -0.13318162364E+03  0.10757514051E+03  0.21423382988E+03  0.12500000000E+03 0.  0.
         25    1    1    2    0    0 -0.31006098326E+02  0.13318162364E+03  0.96575676980E+02  0.20892722272E+03  0.12500000000E+03 0.  0.
</event>
<event>
 4    0  0.2219362E-002  0.2110794E+03  0.7546771E-02  0.1140714E+00
         21   -1    0    0  502  501  0.00000000000E+00  0.00000000000E+00  0.10707058423E+04  0.10707058423E+04  0.00000000000E+00 0.  1.
         21   -1    0    0  501  502 -0.00000000000E+00 -0.00000000000E+00 -0.41612287248E+02  0.41612287248E+02  0.00000000000E+00 0.  1.
         25    1    1    2    0    0 -0.42864015931E+02 -0.14788163979E+03  0.70497097135E+03  0.73233556085E+03  0.12500000000E+03 0.  0.
         25    1    1    2    0    0  0.42864015931E+02  0.14788163979E+03  0.32412258374E+03  0.37998256873E+03  0.12500000000E+03 0.  0.
</event>
<event>
 4    0  0.2219362E-002  0.1916822E+03  0.7546771E-02  0.1156953E+00
         21   -1    0    0  502  501  0.00000000000E+00  0.00000000000E+00  0.15056576712E+03  0.15056576712E+03  0.00000000000E+00 0.  1.
         21   -1    0    0  501  502 -0.00000000000E+00 -0.00000000000E+00 -0.24402671630E+03  0.24402671630E+03  0.00000000000E+00 0.  1.
         25    1    1    2    0    0 -0.13286630105E+03  0.57404906634E+02 -0.33377766478E+02  0.19413359461E+03  0.12500000000E+03 0.  0.
         25    1    1    2    0    0  0.13286630105E+03 -0.57404906634E+02 -0.60083182697E+02  0.20045888881E+03  0.12500000000E+03 0.  0.
</event>
<event>
 4    0  0.2219362E-002  0.1981502E+03  0.7546771E-02  0.1151309E+00
         21   -1    0    0  502  501  0.00000000000E+00  0.00000000000E+00  0.18373786198E+03  0.18373786198E+03  0.00000000000E+00 0.  1.
         21   -1    0    0  501  502 -0.00000000000E+00 -0.00000000000E+00 -0.21369299769E+03  0.21369299769E+03  0.00000000000E+00 0.  1.
         25    1    1    2    0    0  0.11629046795E+03  0.37676722360E+02 -0.10849316467E+03  0.20576388197E+03  0.12500000000E+03 0.  0.
         25    1    1    2    0    0 -0.11629046795E+03 -0.37676722360E+02  0.78538028961E+02  0.19166697769E+03  0.12500000000E+03 0.  0.
</event>
<event>
 4    0  0.2219362E-002  0.2231214E+03  0.7546771E-02  0.1131577E+00
         21   -1    0    0  502  501  0.00000000000E+00  0.00000000000E+00  0.57479387646E+02  0.57479387646E+02  0.00000000000E+00 0.  1.
         21   -1    0    0  501  502 -0.00000000000E+00 -0.00000000000E+00 -0.86610441239E+03  0.86610441239E+03  0.00000000000E+00 0.  1.
         25    1    1    2    0    0 -0.16129812744E+03  0.76756727449E+02 -0.50247492754E+03  0.54773600752E+03  0.12500000000E+03 0.  0.
         25    1    1    2    0    0  0.16129812744E+03 -0.76756727449E+02 -0.30615009720E+03  0.37584779252E+03  0.12500000000E+03 0.  0.
</event>
<event>
 4    0  0.2219362E-002  0.2222395E+03  0.7546771E-02  0.1132224E+00
         21   -1    0    0  502  501  0.00000000000E+00  0.00000000000E+00  0.20744352180E+03  0.20744352180E+03  0.00000000000E+00 0.  1.
         21   -1    0    0  501  502 -0.00000000000E+00 -0.00000000000E+00 -0.23809078308E+03  0.23809078308E+03  0.00000000000E+00 0.  1.
         25    1    1    2    0    0  0.39175171569E+02 -0.15045904660E+02 -0.19464589186E+03  0.23510231078E+03  0.12500000000E+03 0.  0.
         25    1    1    2    0    0 -0.39175171569E+02  0.15045904660E+02  0.16399863058E+03  0.21043199411E+03  0.12500000000E+03 0.  0.
</event>
<event>
 4    0  0.2219362E-002  0.1831327E+03  0.7546771E-02  0.1164805E+00
         21   -1    0    0  502  501  0.00000000000E+00  0.00000000000E+00  0.68130227074E+02  0.68130227074E+02  0.00000000000E+00 0.  1.
         21   -1    0    0  501  502 -0.00000000000E+00 -0.00000000000E+00 -0.49225694537E+03  0.49225694537E+03  0.00000000000E+00 0.  1.
         25    1    1    2    0    0  0.60847705526E+01 -0.36792549204E+02 -0.40872598435E+03  0.42903688232E+03  0.12500000000E+03 0.  0.
         25    1    1    2    0    0 -0.60847705526E+01  0.36792549204E+02 -0.15400733949E+02  0.13135029012E+03  0.12500000000E+03 0.  0.
</event>
<event>
 4    0  0.2219362E-002  0.2773513E+03  0.7546771E-02  0.1097144E+00
         21   -1    0    0  502  501  0.00000000000E+00  0.00000000000E+00  0.64178465734E+03  0.64178465734E+03  0.00000000000E+00 0.  1.
         21   -1    0    0  501  502 -0.00000000000E+00 -0.00000000000E+00 -0.11985913847E+03  0.11985913847E+03  0.00000000000E+00 0.  1.
         25    1    1    2    0    0 -0.94833115592E+02 -0.22725041735E+03  0.29630914020E+03  0.40504342800E+03  0.12500000000E+03 0.  0.
         25    1    1    2    0    0  0.94833115592E+02  0.22725041735E+03  0.22561637868E+03  0.35660036782E+03  0.12500000000E+03 0.  0.
</event>
<event>
 4    0  0.2219362E-002  0.4129403E+03  0.7546771E-02  0.1039389E+00
         21   -1    0    0  502  501  0.00000000000E+00  0.00000000000E+00  0.36740768120E+03  0.36740768120E+03  0.00000000000E+00 0.  1.
         21   -1    0    0  501  502 -0.00000000000E+00 -0.00000000000E+00 -0.46411572526E+03  0.46411572526E+03  0.00000000000E+00 0.  1.
         25    1    1    2    0    0  0.13814655595E+03 -0.17899039719E+03  0.27598460758E+03  0.37804039047E+03  0.12500000000E+03 0.  0.
         25    1    1    2    0    0 -0.13814655595E+03  0.17899039719E+03 -0.37269265163E+03  0.45348301599E+03  0.12500000000E+03 0.  0.
</event>
<event>
 4    0  0.2219362E-002  0.2527048E+03  0.7546771E-02  0.1111607E+00
         21   -1    0    0  502  501  0.00000000000E+00  0.00000000000E+00  0.25823466806E+03  0.25823466806E+03  0.00000000000E+00 0. -1.
         21   -1    0    0  501  502 -0.00000000000E+00 -0.00000000000E+00 -0.24729332901E+03  0.24729332901E+03  0.00000000000E+00 0. -1.
         25    1    1    2    0    0 -0.19837289123E+03 -0.75663040716E+02  0.61680019692E+02  0.25398055936E+03  0.12500000000E+03 0.  0.
         25    1    1    2    0    0  0.19837289123E+03  0.75663040716E+02 -0.50738680633E+02  0.25154743771E+03  0.12500000000E+03 0.  0.
</event>
<event>
 4    0  0.2219362E-002  0.1865073E+03  0.7546771E-02  0.1161650E+00
         21   -1    0    0  502  501  0.00000000000E+00  0.00000000000E+00  0.88652635597E+02  0.88652635597E+02  0.00000000000E+00 0. -1.
         21   -1    0    0  501  502 -0.00000000000E+00 -0.00000000000E+00 -0.39237390504E+03  0.39237390504E+03  0.00000000000E+00 0. -1.
         25    1    1    2    0    0  0.13230648450E+03  0.10662949809E+01 -0.20430389007E+03  0.27362606294E+03  0.12500000000E+03 0.  0.
         25    1    1    2    0    0 -0.13230648450E+03 -0.10662949809E+01 -0.99417379373E+02  0.20740047769E+03  0.12500000000E+03 0.  0.
</event>
<event>
 4    0  0.2219362E-002  0.1734932E+03  0.7546771E-02  0.1174253E+00
         21   -1    0    0  502  501  0.00000000000E+00  0.00000000000E+00  0.65196362192E+02  0.65196362192E+02  0.00000000000E+00 0. -1.
         21   -1    0    0  501  502 -0.00000000000E+00 -0.00000000000E+00 -0.46168067455E+03  0.46168067455E+03  0.00000000000E+00 0. -1.
         25    1    1    2    0    0 -0.94800389621E+02 -0.39588548111E+02 -0.29331781155E+03  0.33498463485E+03  0.12500000000E+03 0.  0.
         25    1    1    2    0    0  0.94800389621E+02  0.39588548111E+02 -0.10316650080E+03  0.19189240189E+03  0.12500000000E+03 0.  0.
</event>
<event>
 4    0  0.2219362E-002  0.6596924E+03  0.7546771E-02  0.9788760E-01
         21   -1    0    0  502  501  0.00000000000E+00  0.00000000000E+00  0.15165858005E+03  0.15165858005E+03  0.00000000000E+00 0.  1.
         21   -1    0    0  501  502 -0.00000000000E+00 -0.00000000000E+00 -0.28695642362E+04  0.28695642362E+04  0.00000000000E+00 0. -1.
         25    1    1    2    0    0 -0.54166309157E+03 -0.24972399978E+03 -0.19373804856E+04  0.20309675347E+04  0.12500000000E+03 0.  0.
         25    1    1    2    0    0  0.54166309157E+03  0.24972399978E+03 -0.78052517051E+03  0.99025528155E+03  0.12500000000E+03 0.  0.
</event>
<event>
 4    0  0.2219362E-002  0.3344357E+03  0.7546771E-02  0.1069191E+00
         21   -1    0    0  502  501  0.00000000000E+00  0.00000000000E+00  0.63802205217E+03  0.63802205217E+03  0.00000000000E+00 0. -1.
         21   -1    0    0  501  502 -0.00000000000E+00 -0.00000000000E+00 -0.17530308859E+03  0.17530308859E+03  0.00000000000E+00 0. -1.
         25    1    1    2    0    0  0.22891450365E+03  0.12660050386E+02  0.48543568026E+03  0.55121223365E+03  0.12500000000E+03 0.  0.
         25    1    1    2    0    0 -0.22891450365E+03 -0.12660050386E+02 -0.22716716677E+02  0.26211290711E+03  0.12500000000E+03 0.  0.
</event>
<event>
 4    0  0.2219362E-002  0.2362028E+03  0.7546771E-02  0.1122349E+00
         21   -1    0    0  502  501  0.00000000000E+00  0.00000000000E+00  0.90752454851E+02  0.90752454851E+02  0.00000000000E+00 0. -1.
         21   -1    0    0  501  502 -0.00000000000E+00 -0.00000000000E+00 -0.61476838881E+03  0.61476838881E+03  0.00000000000E+00 0. -1.
         25    1    1    2    0    0  0.19715951913E+03 -0.35955385792E+02 -0.25985680914E+03  0.35116267884E+03  0.12500000000E+03 0.  0.
         25    1    1    2    0    0 -0.19715951913E+03  0.35955385792E+02 -0.26415912482E+03  0.35435816482E+03  0.12500000000E+03 0.  0.
</event>
<event>
 4    0  0.2219362E-002  0.3494663E+03  0.7546771E-02  0.1062834E+00
         21   -1    0    0  502  501  0.00000000000E+00  0.00000000000E+00  0.12552332121E+03  0.12552332121E+03  0.00000000000E+00 0.  1.
         21   -1    0    0  501  502 -0.00000000000E+00 -0.00000000000E+00 -0.97294054167E+03  0.97294054167E+03  0.00000000000E+00 0.  1.
         25    1    1    2    0    0  0.14746117153E+03 -0.17869374736E+03 -0.78492889078E+03  0.82789770868E+03  0.12500000000E+03 0.  0.
         25    1    1    2    0    0 -0.14746117153E+03  0.17869374736E+03 -0.62488329684E+02  0.27056615421E+03  0.12500000000E+03 0.  0.
</event>
<event>
 4    0  0.2219362E-002  0.3336594E+03  0.7546771E-02  0.1069529E+00
         21   -1    0    0  502  501  0.00000000000E+00  0.00000000000E+00  0.74574846468E+03  0.74574846468E+03  0.00000000000E+00 0.  1.
         21   -1    0    0  501  502 -0.00000000000E+00 -0.00000000000E+00 -0.14928436467E+03  0.14928436467E+03  0.00000000000E+00 0.  1.
         25    1    1    2    0    0  0.17683415058E+03 -0.11587760459E+03 -0.46787552533E+01  0.24565184064E+03  0.12500000000E+03 0.  0.
         25    1    1    2    0    0 -0.17683415058E+03  0.11587760459E+03  0.60114285526E+03  0.64938098870E+03  0.12500000000E+03 0.  0.
</event>
<event>
 4    0  0.2219362E-002  0.1704563E+03  0.7546771E-02  0.1177373E+00
         21   -1    0    0  502  501  0.00000000000E+00  0.00000000000E+00  0.66640006556E+02  0.66640006556E+02  0.00000000000E+00 0.  1.
         21   -1    0    0  501  502 -0.00000000000E+00 -0.00000000000E+00 -0.43600437251E+03  0.43600437251E+03  0.00000000000E+00 0.  1.
         25    1    1    2    0    0  0.11553637108E+03  0.43208025200E+01 -0.19638604150E+03  0.25992268018E+03  0.12500000000E+03 0.  0.
         25    1    1    2    0    0 -0.11553637108E+03 -0.43208025200E+01 -0.17297832446E+03  0.24272169889E+03  0.12500000000E+03 0.  0.
</event>
<event>
 4    0  0.2219362E-002  0.2559106E+03  0.7546771E-02  0.1109625E+00
         21   -1    0    0  502  501  0.00000000000E+00  0.00000000000E+00  0.11496682057E+03  0.11496682057E+03  0.00000000000E+00 0.  1.
         21   -1    0    0  501  502 -0.00000000000E+00 -0.00000000000E+00 -0.56964477855E+03  0.56964477855E+03  0.00000000000E+00 0.  1.
         25    1    1    2    0    0 -0.10552187063E+03  0.11038312554E+03 -0.44527301806E+03  0.48704451562E+03  0.12500000000E+03 0.  0.
         25    1    1    2    0    0  0.10552187063E+03 -0.11038312554E+03 -0.94049399147E+01  0.19756708350E+03  0.12500000000E+03 0.  0.
</event>
<event>
 4    0  0.2219362E-002  0.1818856E+03  0.7546771E-02  0.1165991E+00
         21   -1    0    0  502  501  0.00000000000E+00  0.00000000000E+00  0.20646928312E+02  0.20646928312E+02  0.00000000000E+00 0. -1.
         21   -1    0    0  501  502 -0.00000000000E+00 -0.00000000000E+00 -0.16022903931E+04  0.16022903931E+04  0.00000000000E+00 0. -1.
         25    1    1    2    0    0 -0.28315260297E+02  0.12835595969E+03 -0.85073924713E+03  0.86986164013E+03  0.12500000000E+03 0.  0.
         25    1    1    2    0    0  0.28315260297E+02 -0.12835595969E+03 -0.73090421763E+03  0.75307568126E+03  0.12500000000E+03 0.  0.
</event>
<event>
 4    0  0.2219362E-002  0.1806926E+03  0.7546771E-02  0.1167134E+00
         21   -1    0    0  502  501  0.00000000000E+00  0.00000000000E+00  0.16585432290E+03  0.16585432290E+03  0.00000000000E+00 0. -1.
         21   -1    0    0  501  502 -0.00000000000E+00 -0.00000000000E+00 -0.19685839164E+03  0.19685839164E+03  0.00000000000E+00 0. -1.
         25    1    1    2    0    0 -0.12998963313E+03  0.10014682313E+02 -0.20738157996E+02  0.18180393225E+03  0.12500000000E+03 0.  0.
         25    1    1    2    0    0  0.12998963313E+03 -0.10014682313E+02 -0.10265910746E+02  0.18090878228E+03  0.12500000000E+03 0.  0.
</event>
<event>
 4    0  0.2219362E-002  0.2512305E+03  0.7546771E-02  0.1112530E+00
         21   -1    0    0  502  501  0.00000000000E+00  0.00000000000E+00  0.22205975352E+03  0.22205975352E+03  0.00000000000E+00 0.  1.
         21   -1    0    0  501  502 -0.00000000000E+00 -0.00000000000E+00 -0.28423319294E+03  0.28423319294E+03  0.00000000000E+00 0.  1.
         25    1    1    2    0    0  0.51154861772E+02  0.20504453881E+03 -0.84705987202E+02  0.25973098977E+03  0.12500000000E+03 0.  0.
         25    1    1    2    0    0 -0.51154861772E+02 -0.20504453881E+03  0.22532547787E+02  0.24656195669E+03  0.12500000000E+03 0.  0.
</event>
<event>
 4    0  0.2219362E-002  0.2486069E+03  0.7546771E-02  0.1114188E+00
         21   -1    0    0  502  501  0.00000000000E+00  0.00000000000E+00  0.17155609606E+03  0.17155609606E+03  0.00000000000E+00 0. -1.
         21   -1    0    0  501  502 -0.00000000000E+00 -0.00000000000E+00 -0.36026357107E+03  0.36026357107E+03  0.00000000000E+00 0. -1.
         25    1    1    2    0    0 -0.43291724304E+02  0.36899831930E+02  0.12730029325E+03  0.18725954088E+03  0.12500000000E+03 0.  0.
         25    1    1    2    0    0  0.43291724304E+02 -0.36899831930E+02 -0.31600776826E+03  0.34456012624E+03  0.12500000000E+03 0.  0.
</event>
<event>
 4    0  0.2219362E-002  0.2244535E+03  0.7546771E-02  0.1130606E+00
         21   -1    0    0  502  501  0.00000000000E+00  0.00000000000E+00  0.66918596598E+02  0.66918596598E+02  0.00000000000E+00 0. -1.
         21   -1    0    0  501  502 -0.00000000000E+00 -0.00000000000E+00 -0.75284547141E+03  0.75284547141E+03  0.00000000000E+00 0. -1.
         25    1    1    2    0    0  0.38133246420E+02 -0.68112222280E+02 -0.65211951440E+03  0.66856434273E+03  0.12500000000E+03 0.  0.
         25    1    1    2    0    0 -0.38133246420E+02  0.68112222280E+02 -0.33807360410E+02  0.15119972528E+03  0.12500000000E+03 0.  0.
</event>
<event>
 4    0  0.2219362E-002  0.4010692E+03  0.7546771E-02  0.1043410E+00
         21   -1    0    0  502  501  0.00000000000E+00  0.00000000000E+00  0.55034956979E+03  0.55034956979E+03  0.00000000000E+00 0.  1.
         21   -1    0    0  501  502 -0.00000000000E+00 -0.00000000000E+00 -0.29228064126E+03  0.29228064126E+03  0.00000000000E+00 0.  1.
         25    1    1    2    0    0 -0.31045061780E+03 -0.20373994798E+03  0.21904515010E+03  0.44888231228E+03  0.12500000000E+03 0.  0.
         25    1    1    2    0    0  0.31045061780E+03  0.20373994798E+03  0.39023778425E+02  0.39374789876E+03  0.12500000000E+03 0.  0.
</event>
<event>
 4    0  0.2219362E-002  0.4077498E+03  0.7546771E-02  0.1041129E+00
         21   -1    0    0  502  501  0.00000000000E+00  0.00000000000E+00  0.15836318978E+03  0.15836318978E+03  0.00000000000E+00 0. -1.
         21   -1    0    0  501  502 -0.00000000000E+00 -0.00000000000E+00 -0.10498644516E+04  0.10498644516E+04  0.00000000000E+00 0. -1.
         25    1    1    2    0    0 -0.63731863422E+02  0.19284327944E+03  0.44257325954E+02  0.24255719272E+03  0.12500000000E+03 0.  0.
         25    1    1    2    0    0  0.63731863422E+02 -0.19284327944E+03 -0.93575858774E+03  0.96567044864E+03  0.12500000000E+03 0.  0.
</event>
<event>
 4    0  0.2219362E-002  0.2825854E+03  0.7546771E-02  0.1094285E+00
         21   -1    0    0  502  501  0.00000000000E+00  0.00000000000E+00  0.77659318508E+02  0.77659318508E+02  0.00000000000E+00 0.  1.
         21   -1    0    0  501  502 -0.00000000000E+00 -0.00000000000E+00 -0.10282671893E+04  0.10282671893E+04  0.00000000000E+00 0.  1.
         25    1    1    2    0    0 -0.84828962736E+02  0.76488342226E+02 -0.91800424920E+03  0.93348980764E+03  0.12500000000E+03 0.  0.
         25    1    1    2    0    0  0.84828962736E+02 -0.76488342226E+02 -0.32603621559E+02  0.17243670014E+03  0.12500000000E+03 0.  0.
</event>
<event>
 4    0  0.2219362E-002  0.2570776E+03  0.7546771E-02  0.1108912E+00
         21   -1    0    0  502  501  0.00000000000E+00  0.00000000000E+00  0.52773079475E+02  0.52773079475E+02  0.00000000000E+00 0.  1.
         21   -1    0    0  501  502 -0.00000000000E+00 -0.00000000000E+00 -0.12523220492E+04  0.12523220492E+04  0.00000000000E+00 0.  1.
         25    1    1    2    0    0  0.13350848962E+02  0.66426976739E+02 -0.56114963990E+02  0.15285508690E+03  0.12500000000E+03 0.  0.
         25    1    1    2    0    0 -0.13350848962E+02 -0.66426976739E+02 -0.11434340058E+04  0.11522400418E+04  0.12500000000E+03 0.  0.
</event>
<event>
 4    0  0.2219362E-002  0.1933726E+03  0.7546771E-02  0.1155454E+00
         21   -1    0    0  502  501  0.00000000000E+00  0.00000000000E+00  0.42562723725E+03  0.42562723725E+03  0.00000000000E+00 0. -1.
         21   -1    0    0  501  502 -0.00000000000E+00 -0.00000000000E+00 -0.87853757536E+02  0.87853757536E+02  0.00000000000E+00 0. -1.
         25    1    1    2    0    0  0.59992837883E+02  0.37748057497E+02 -0.29150785130E+01  0.14372736039E+03  0.12500000000E+03 0.  0.
         25    1    1    2    0    0 -0.59992837883E+02 -0.37748057497E+02  0.34068855822E+03  0.36975363439E+03  0.12500000000E+03 0.  0.
</event>
<event>
 4    0  0.2219362E-002  0.2316468E+03  0.7546771E-02  0.1125486E+00
         21   -1    0    0  502  501  0.00000000000E+00  0.00000000000E+00  0.12115483942E+04  0.12115483942E+04  0.00000000000E+00 0. -1.
         21   -1    0    0  501  502 -0.00000000000E+00 -0.00000000000E+00 -0.44290639138E+02  0.44290639138E+02  0.00000000000E+00 0. -1.
         25    1    1    2    0    0 -0.11745315100E+03 -0.15349223708E+03  0.65432210440E+03  0.69362635895E+03  0.12500000000E+03 0.  0.
         25    1    1    2    0    0  0.11745315100E+03  0.15349223708E+03  0.51293565068E+03  0.56221267441E+03  0.12500000000E+03 0.  0.
</event>
<event>
 4    0  0.2219362E-002  0.2521467E+03  0.7546771E-02  0.1111956E+00
         21   -1    0    0  502  501  0.00000000000E+00  0.00000000000E+00  0.11950891558E+03  0.11950891558E+03  0.00000000000E+00 0. -1.
         21   -1    0    0  501  502 -0.00000000000E+00 -0.00000000000E+00 -0.53199327745E+03  0.53199327745E+03  0.00000000000E+00 0. -1.
         25    1    1    2    0    0 -0.65066662349E+02  0.97346339363E+01  0.63592596409E+02  0.15491110988E+03  0.12500000000E+03 0.  0.
         25    1    1    2    0    0  0.65066662349E+02 -0.97346339363E+01 -0.47607695828E+03  0.49659108314E+03  0.12500000000E+03 0.  0.
</event>
<event>
 4    0  0.2219362E-002  0.1720596E+03  0.7546771E-02  0.1175717E+00
         21   -1    0    0  502  501  0.00000000000E+00  0.00000000000E+00  0.10215982901E+04  0.10215982901E+04  0.00000000000E+00 0. -1.
         21   -1    0    0  501  502 -0.00000000000E+00 -0.00000000000E+00 -0.28978612857E+02  0.28978612857E+02  0.00000000000E+00 0. -1.
         25    1    1    2    0    0  0.11695536117E+03 -0.22405334263E+01  0.54882802189E+03  0.57490936164E+03  0.12500000000E+03 0.  0.
         25    1    1    2    0    0 -0.11695536117E+03  0.22405334263E+01  0.44379165537E+03  0.47566754133E+03  0.12500000000E+03 0.  0.
</event>
<event>
 4    0  0.2219362E-002  0.1890784E+03  0.7546771E-02  0.1159295E+00
         21   -1    0    0  502  501  0.00000000000E+00  0.00000000000E+00  0.78160124151E+03  0.78160124151E+03  0.00000000000E+00 0. -1.
         21   -1    0    0  501  502 -0.00000000000E+00 -0.00000000000E+00 -0.45740270279E+02  0.45740270279E+02  0.00000000000E+00 0. -1.
         25    1    1    2    0    0 -0.83525093223E+02 -0.11457909206E+03  0.35794227339E+03  0.40478695707E+03  0.12500000000E+03 0.  0.
         25    1    1    2    0    0  0.83525093223E+02  0.11457909206E+03  0.37791869784E+03  0.42255455472E+03  0.12500000000E+03 0.  0.
</event>
<event>
 4    0  0.2219362E-002  0.1997011E+03  0.7546771E-02  0.1149991E+00
         21   -1    0    0  502  501  0.00000000000E+00  0.00000000000E+00  0.43808926886E+03  0.43808926886E+03  0.00000000000E+00 0.  1.
         21   -1    0    0  501  502 -0.00000000000E+00 -0.00000000000E+00 -0.91032900970E+02  0.91032900970E+02  0.00000000000E+00 0.  1.
         25    1    1    2    0    0 -0.57127752306E+02  0.14440821358E+03  0.18910355647E+03  0.27477712296E+03  0.12500000000E+03 0.  0.
         25    1    1    2    0    0  0.57127752306E+02 -0.14440821358E+03  0.15795281143E+03  0.25434504688E+03  0.12500000000E+03 0.  0.
</event>
<event>
 4    0  0.2219362E-002  0.1762743E+03  0.7546771E-02  0.1171458E+00
         21   -1    0    0  502  501  0.00000000000E+00  0.00000000000E+00  0.22307072196E+03  0.22307072196E+03  0.00000000000E+00 0.  1.
         21   -1    0    0  501  502 -0.00000000000E+00 -0.00000000000E+00 -0.13929493613E+03  0.13929493613E+03  0.00000000000E+00 0.  1.
         25    1    1    2    0    0 -0.41149351539E+02  0.10704002400E+03  0.91147207117E+02  0.19257115370E+03  0.12500000000E+03 0.  0.
         25    1    1    2    0    0  0.41149351539E+02 -0.10704002400E+03 -0.73714212870E+01  0.16979450439E+03  0.12500000000E+03 0.  0.
</event>
<event>
 4    0  0.2219362E-002  0.2524563E+03  0.7546771E-02  0.1111762E+00
         21   -1    0    0  502  501  0.00000000000E+00  0.00000000000E+00  0.31037633170E+03  0.31037633170E+03  0.00000000000E+00 0.  1.
         21   -1    0    0  501  502 -0.00000000000E+00 -0.00000000000E+00 -0.20534489656E+03  0.20534489656E+03  0.00000000000E+00 0.  1.
         25    1    1    2    0    0  0.41113277246E+02 -0.19615204818E+03 -0.38517180703E+02  0.23932091589E+03  0.12500000000E+03 0.  0.
         25    1    1    2    0    0 -0.41113277246E+02  0.19615204818E+03  0.14354861584E+03  0.27640031237E+03  0.12500000000E+03 0.  0.
</event>
<event>
 4    0  0.2219362E-002  0.1736645E+03  0.7546771E-02  0.1174079E+00
         21   -1    0    0  502  501  0.00000000000E+00  0.00000000000E+00  0.11961873255E+04  0.11961873255E+04  0.00000000000E+00 0. -1.
         21   -1    0    0  501  502 -0.00000000000E+00 -0.00000000000E+00 -0.25212899359E+02  0.25212899359E+02  0.00000000000E+00 0. -1.
         25    1    1    2    0    0  0.11610542914E+03  0.24558287187E+02  0.51082604969E+03  0.53912135293E+03  0.12500000000E+03 0.  0.
         25    1    1    2    0    0 -0.11610542914E+03 -0.24558287187E+02  0.66014837647E+03  0.68227887194E+03  0.12500000000E+03 0.  0.
</event>
<event>
 4    0  0.2219362E-002  0.2306368E+03  0.7546771E-02  0.1126192E+00
         21   -1    0    0  502  501  0.00000000000E+00  0.00000000000E+00  0.23927550030E+04  0.23927550030E+04  0.00000000000E+00 0.  1.
         21   -1    0    0  501  502 -0.00000000000E+00 -0.00000000000E+00 -0.22230998542E+02  0.22230998542E+02  0.00000000000E+00 0.  1.
         25    1    1    2    0    0  0.14750135886E+03 -0.11476660010E+03  0.91624269533E+03  0.94342657378E+03  0.12500000000E+03 0.  0.
         25    1    1    2    0    0 -0.14750135886E+03  0.11476660010E+03  0.14542813091E+04  0.14715594278E+04  0.12500000000E+03 0.  0.
</event>
<event>
 4    0  0.2219362E-002  0.1678587E+03  0.7546771E-02  0.1180099E+00
         21   -1    0    0  502  501  0.00000000000E+00  0.00000000000E+00  0.94522590055E+03  0.94522590055E+03  0.00000000000E+00 0.  1.
         21   -1    0    0  501  502 -0.00000000000E+00 -0.00000000000E+00 -0.29809332815E+02  0.29809332815E+02  0.00000000000E+00 0.  1.
         25    1    1    2    0    0  0.10101324890E+03 -0.35407001016E+02  0.36163581365E+03  0.39731951109E+03  0.12500000000E+03 0.  0.
         25    1    1    2    0    0 -0.10101324890E+03  0.35407001016E+02  0.55378075409E+03  0.57771572228E+03  0.12500000000E+03 0.  0.
</event>
<event>
 4    0  0.2219362E-002  0.2367293E+03  0.7546771E-02  0.1121991E+00
         21   -1    0    0  502  501  0.00000000000E+00  0.00000000000E+00  0.14207977835E+04  0.14207977835E+04  0.00000000000E+00 0. -1.
         21   -1    0    0  501  502 -0.00000000000E+00 -0.00000000000E+00 -0.39443155736E+02  0.39443155736E+02  0.00000000000E+00 0. -1.
         25    1    1    2    0    0  0.78809045899E+02 -0.86728442086E+02  0.18687474562E+03  0.25353472924E+03  0.12500000000E+03 0.  0.
         25    1    1    2    0    0 -0.78809045899E+02  0.86728442086E+02  0.11944798821E+04  0.12067062100E+04  0.12500000000E+03 0.  0.
</event>
<event>
 4    0  0.2219362E-002  0.1998446E+03  0.7546771E-02  0.1149870E+00
         21   -1    0    0  502  501  0.00000000000E+00  0.00000000000E+00  0.32733550556E+03  0.32733550556E+03  0.00000000000E+00 0. -1.
         21   -1    0    0  501  502 -0.00000000000E+00 -0.00000000000E+00 -0.12200894637E+03  0.12200894637E+03  0.00000000000E+00 0. -1.
         25    1    1    2    0    0 -0.94308319437E+02  0.77669647820E+02  0.21158199611E+03  0.27444229701E+03  0.12500000000E+03 0.  0.
         25    1    1    2    0    0  0.94308319437E+02 -0.77669647820E+02 -0.62554369259E+01  0.17490215493E+03  0.12500000000E+03 0.  0.
</event>
<event>
 4    0  0.2219362E-002  0.2222833E+03  0.7546771E-02  0.1132192E+00
         21   -1    0    0  502  501  0.00000000000E+00  0.00000000000E+00  0.38944249939E+03  0.38944249939E+03  0.00000000000E+00 0.  1.
         21   -1    0    0  501  502 -0.00000000000E+00 -0.00000000000E+00 -0.12687334961E+03  0.12687334961E+03  0.00000000000E+00 0.  1.
         25    1    1    2    0    0 -0.35574050079E+02 -0.17271818062E+03  0.19149564807E+03  0.28877788382E+03  0.12500000000E+03 0.  0.
         25    1    1    2    0    0  0.35574050079E+02  0.17271818062E+03  0.71073501712E+02  0.22753796518E+03  0.12500000000E+03 0.  0.
</event>
<event>
 4    0  0.2219362E-002  0.2384641E+03  0.7546771E-02  0.1120820E+00
         21   -1    0    0  502  501  0.00000000000E+00  0.00000000000E+00  0.37126990084E+03  0.37126990084E+03  0.00000000000E+00 0.  1.
         21   -1    0    0  501  502 -0.00000000000E+00 -0.00000000000E+00 -0.15316380362E+03  0.15316380362E+03  0.00000000000E+00 0.  1.
         25    1    1    2    0    0 -0.53170219118E+02 -0.71732981123E+02 -0.91508281308E+02  0.17880564401E+03  0.12500000000E+03 0.  0.
         25    1    1    2    0    0  0.53170219118E+02  0.71732981123E+02  0.30961437853E+03  0.34562806046E+03  0.12500000000E+03 0.  0.
</event>
<event>
 4    0  0.2219362E-002  0.1799388E+03  0.7546771E-02  0.1167862E+00
         21   -1    0    0  502  501  0.00000000000E+00  0.00000000000E+00  0.49812329032E+03  0.49812329032E+03  0.00000000000E+00 0. -1.
         21   -1    0    0  501  502 -0.00000000000E+00 -0.00000000000E+00 -0.64999908138E+02  0.64999908138E+02  0.00000000000E+00 0. -1.
         25    1    1    2    0    0 -0.71841882272E+02  0.99653262020E+01  0.48814955867E+02  0.15254003963E+03  0.12500000000E+03 0.  0.
         25    1    1    2    0    0  0.71841882272E+02 -0.99653262020E+01  0.38430842631E+03  0.41058315883E+03  0.12500000000E+03 0.  0.
</event>
<event>
 4    0  0.2219362E-002  0.1887515E+03  0.7546771E-02  0.1159592E+00
         21   -1    0    0  502  501  0.00000000000E+00  0.00000000000E+00  0.17530657544E+03  0.17530657544E+03  0.00000000000E+00 0.  1.
         21   -1    0    0  501  502 -0.00000000000E+00 -0.00000000000E+00 -0.20322755162E+03  0.20322755162E+03  0.00000000000E+00 0.  1.
         25    1    1    2    0    0  0.13996386517E+03  0.19085216935E+02 -0.20907402232E+02  0.18977947341E+03  0.12500000000E+03 0.  0.
         25    1    1    2    0    0 -0.13996386517E+03 -0.19085216935E+02 -0.70135739509E+01  0.18875465366E+03  0.12500000000E+03 0.  0.
</event>
<event>
 4    0  0.2219362E-002  0.2588662E+03  0.7546771E-02  0.1107826E+00
         21   -1    0    0  502  501  0.00000000000E+00  0.00000000000E+00  0.67817042805E+03  0.67817042805E+03  0.00000000000E+00 0. -1.
         21   -1    0    0  501  502 -0.00000000000E+00 -0.00000000000E+00 -0.98812461106E+02  0.98812461106E+02  0.00000000000E+00 0. -1.
         25    1    1    2    0    0 -0.14823673421E+03 -0.89500475136E+02  0.70127874146E+02  0.22478296899E+03  0.12500000000E+03 0.  0.
         25    1    1    2    0    0  0.14823673421E+03  0.89500475136E+02  0.50923009280E+03  0.55219992016E+03  0.12500000000E+03 0.  0.
</event>
<event>
 4    0  0.2219362E-002  0.1447366E+03  0.7546771E-02  0.1207094E+00
         21   -1    0    0  502  501  0.00000000000E+00  0.00000000000E+00  0.69087768101E+03  0.69087768101E+03  0.00000000000E+00 0. -1.
         21   -1    0    0  501  502 -0.00000000000E+00 -0.00000000000E+00 -0.30321851606E+02  0.30321851606E+02  0.00000000000E+00 0. -1.
         25    1    1    2    0    0  0.31849810811E+02 -0.22685000695E+02  0.17680418264E+03  0.22003122211E+03  0.12500000000E+03 0.  0.
         25    1    1    2    0    0 -0.31849810811E+02  0.22685000695E+02  0.48375164677E+03  0.50116831051E+03  0.12500000000E+03 0.  0.
</event>
<event>
 4    0  0.2219362E-002  0.1877792E+03  0.7546771E-02  0.1160480E+00
         21   -1    0    0  502  501  0.00000000000E+00  0.00000000000E+00  0.40495316238E+02  0.40495316238E+02  0.00000000000E+00 0. -1.
         21   -1    0    0  501  502 -0.00000000000E+00 -0.00000000000E+00 -0.87074344101E+03  0.87074344101E+03  0.00000000000E+00 0. -1.
         25    1    1    2    0    0 -0.11443525523E+03 -0.19687349609E+02 -0.22479787314E+03  0.28220932504E+03  0.12500000000E+03 0.  0.
         25    1    1    2    0    0  0.11443525523E+03  0.19687349609E+02 -0.60545025164E+03  0.62902943221E+03  0.12500000000E+03 0.  0.
</event>
<event>
 4    0  0.2219362E-002  0.3700123E+03  0.7546771E-02  0.1054688E+00
         21   -1    0    0  502  501  0.00000000000E+00  0.00000000000E+00  0.17329249258E+03  0.17329249258E+03  0.00000000000E+00 0. -1.
         21   -1    0    0  501  502 -0.00000000000E+00 -0.00000000000E+00 -0.79004642789E+03  0.79004642789E+03  0.00000000000E+00 0.  1.
         25    1    1    2    0    0  0.10462857164E+03  0.28314561250E+03 -0.82283260995E+02  0.33691855235E+03  0.12500000000E+03 0.  0.
         25    1    1    2    0    0 -0.10462857164E+03 -0.28314561250E+03 -0.53447067432E+03  0.62642036812E+03  0.12500000000E+03 0.  0.
</event>
<event>
 4    0  0.2219362E-002  0.2518306E+03  0.7546771E-02  0.1112153E+00
         21   -1    0    0  502  501  0.00000000000E+00  0.00000000000E+00  0.13178892391E+04  0.13178892391E+04  0.00000000000E+00 0.  1.
         21   -1    0    0  501  502 -0.00000000000E+00 -0.00000000000E+00 -0.48121377979E+02  0.48121377979E+02  0.00000000000E+00 0.  1.
         25    1    1    2    0    0  0.39559396695E+02 -0.19977544373E+03  0.41929739029E+03  0.48260799339E+03  0.12500000000E+03 0.  0.
         25    1    1    2    0    0 -0.39559396695E+02  0.19977544373E+03  0.85047047087E+03  0.88340262372E+03  0.12500000000E+03 0.  0.
</event>
<event>
 4    0  0.2219362E-002  0.2087063E+03  0.7546771E-02  0.1142595E+00
         21   -1    0    0  502  501  0.00000000000E+00  0.00000000000E+00  0.22870351888E+03  0.22870351888E+03  0.00000000000E+00 0.  1.
         21   -1    0    0  501  502 -0.00000000000E+00 -0.00000000000E+00 -0.19045756454E+03  0.19045756454E+03  0.00000000000E+00 0.  1.
         25    1    1    2    0    0 -0.93604172259E+02 -0.64914053616E+01  0.15801154591E+03  0.22225329705E+03  0.12500000000E+03 0.  0.
         25    1    1    2    0    0  0.93604172259E+02  0.64914053616E+01 -0.11976559157E+03  0.19690778637E+03  0.12500000000E+03 0.  0.
</event>
<event>
 4    0  0.2219362E-002  0.2188374E+03  0.7546771E-02  0.1134753E+00
         21   -1    0    0  502  501  0.00000000000E+00  0.00000000000E+00  0.56426040080E+03  0.56426040080E+03  0.00000000000E+00 0. -1.
         21   -1    0    0  501  502 -0.00000000000E+00 -0.00000000000E+00 -0.84871805962E+02  0.84871805962E+02  0.00000000000E+00 0. -1.
         25    1    1    2    0    0 -0.64304079389E+02 -0.56557950361E+02  0.47387513420E+03  0.49751026038E+03  0.12500000000E+03 0.  0.
         25    1    1    2    0    0  0.64304079389E+02  0.56557950361E+02  0.55134606390E+01  0.15162194638E+03  0.12500000000E+03 0.  0.
</event>
<event>
 4    0  0.2219362E-002  0.1683619E+03  0.7546771E-02  0.1179567E+00
         21   -1    0    0  502  501  0.00000000000E+00  0.00000000000E+00  0.50464700112E+03  0.50464700112E+03  0.00000000000E+00 0.  1.
         21   -1    0    0  501  502 -0.00000000000E+00 -0.00000000000E+00 -0.56169396522E+02  0.56169396522E+02  0.00000000000E+00 0.  1.
         25    1    1    2    0    0 -0.30400943538E+02  0.86911060134E+02  0.33272683822E+03  0.36716467506E+03  0.12500000000E+03 0.  0.
         25    1    1    2    0    0  0.30400943538E+02 -0.86911060134E+02  0.11575076638E+03  0.19365172258E+03  0.12500000000E+03 0.  0.
</event>
<event>
 4    0  0.2219362E-002  0.2043007E+03  0.7546771E-02  0.1146160E+00
         21   -1    0    0  502  501  0.00000000000E+00  0.00000000000E+00  0.82958216584E+03  0.82958216584E+03  0.00000000000E+00 0. -1.
         21   -1    0    0  501  502 -0.00000000000E+00 -0.00000000000E+00 -0.50312990885E+02  0.50312990885E+02  0.00000000000E+00 0. -1.
         25    1    1    2    0    0  0.89015905976E+01 -0.13462982662E+03  0.19812035807E+03  0.27033517125E+03  0.12500000000E+03 0.  0.
         25    1    1    2    0    0 -0.89015905976E+01  0.13462982662E+03  0.58114881688E+03  0.60955998548E+03  0.12500000000E+03 0.  0.
</event>
<event>
 4    0  0.2219362E-002  0.2940097E+03  0.7546771E-02  0.1088274E+00
         21   -1    0    0  502  501  0.00000000000E+00  0.00000000000E+00  0.14451249621E+03  0.14451249621E+03  0.00000000000E+00 0. -1.
         21   -1    0    0  501  502 -0.00000000000E+00 -0.00000000000E+00 -0.59816074270E+03  0.59816074270E+03  0.00000000000E+00 0. -1.
         25    1    1    2    0    0  0.21716351173E+03 -0.10297110468E+03 -0.82522133315E+02  0.28319241111E+03  0.12500000000E+03 0.  0.
         25    1    1    2    0    0 -0.21716351173E+03  0.10297110468E+03 -0.37112611318E+03  0.45948082779E+03  0.12500000000E+03 0.  0.
</event>
<event>
 4    0  0.2219362E-002  0.4003663E+03  0.7546771E-02  0.1043653E+00
         21   -1    0    0  502  501  0.00000000000E+00  0.00000000000E+00  0.17901577333E+04  0.17901577333E+04  0.00000000000E+00 0. -1.
         21   -1    0    0  501  502 -0.00000000000E+00 -0.00000000000E+00 -0.89541375114E+02  0.89541375114E+02  0.00000000000E+00 0. -1.
         25    1    1    2    0    0  0.33167918231E+03  0.18604116256E+03  0.83442305137E+03  0.92547783485E+03  0.12500000000E+03 0.  0.
         25    1    1    2    0    0 -0.33167918231E+03 -0.18604116256E+03  0.86619330680E+03  0.95422127355E+03  0.12500000000E+03 0.  0.
</event>
<event>
 4    0  0.2219362E-002  0.1828719E+03  0.7546771E-02  0.1165052E+00
         21   -1    0    0  502  501  0.00000000000E+00  0.00000000000E+00  0.10988539250E+04  0.10988539250E+04  0.00000000000E+00 0.  1.
         21   -1    0    0  501  502 -0.00000000000E+00 -0.00000000000E+00 -0.30433658241E+02  0.30433658241E+02  0.00000000000E+00 0.  1.
         25    1    1    2    0    0 -0.38413291998E+02  0.11973675360E+03  0.39596516412E+03  0.43385006899E+03  0.12500000000E+03 0.  0.
         25    1    1    2    0    0  0.38413291998E+02 -0.11973675360E+03  0.67245510261E+03  0.69543751423E+03  0.12500000000E+03 0.  0.
</event>
<event>
 4    0  0.2219362E-002  0.3295720E+03  0.7546771E-02  0.1071326E+00
         21   -1    0    0  502  501  0.00000000000E+00  0.00000000000E+00  0.19440717479E+03  0.19440717479E+03  0.00000000000E+00 0. -1.
         21   -1    0    0  501  502 -0.00000000000E+00 -0.00000000000E+00 -0.55871243374E+03  0.55871243374E+03  0.00000000000E+00 0. -1.
         25    1    1    2    0    0  0.12753726389E+03 -0.65222963325E+02 -0.48974213803E+03  0.52534955067E+03  0.12500000000E+03 0.  0.
         25    1    1    2    0    0 -0.12753726389E+03  0.65222963325E+02  0.12543687908E+03  0.22777005786E+03  0.12500000000E+03 0.  0.
</event>
<event>
 4    0  0.2219362E-002  0.2164139E+03  0.7546771E-02  0.1136585E+00
         21   -1    0    0  502  501  0.00000000000E+00  0.00000000000E+00  0.14587985963E+04  0.14587985963E+04  0.00000000000E+00 0. -1.
         21   -1    0    0  501  502 -0.00000000000E+00 -0.00000000000E+00 -0.32105159784E+02  0.32105159784E+02  0.00000000000E+00 0. -1.
         25    1    1    2    0    0 -0.15457362865E+03 -0.77827857423E+02  0.59108742673E+03  0.62845805597E+03  0.12500000000E+03 0.  0.
         25    1    1    2    0    0  0.15457362865E+03  0.77827857423E+02  0.83560600975E+03  0.86244570008E+03  0.12500000000E+03 0.  0.
</event>
<event>
 4    0  0.2219362E-002  0.4401968E+03  0.7546771E-02  0.1030686E+00
         21   -1    0    0  502  501  0.00000000000E+00  0.00000000000E+00  0.23602593483E+03  0.23602593483E+03  0.00000000000E+00 0. -1.
         21   -1    0    0  501  502 -0.00000000000E+00 -0.00000000000E+00 -0.82098275457E+03  0.82098275457E+03  0.00000000000E+00 0. -1.
         25    1    1    2    0    0 -0.22741734930E+03  0.34989074382E+03 -0.21648791815E+03  0.48645061628E+03  0.12500000000E+03 0.  0.
         25    1    1    2    0    0  0.22741734930E+03 -0.34989074382E+03 -0.36846890159E+03  0.57055807313E+03  0.12500000000E+03 0.  0.
</event>
<event>
 4    0  0.2219362E-002  0.1862049E+03  0.7546771E-02  0.1161929E+00
         21   -1    0    0  502  501  0.00000000000E+00  0.00000000000E+00  0.67376056089E+03  0.67376056089E+03  0.00000000000E+00 0. -1.
         21   -1    0    0  501  502 -0.00000000000E+00 -0.00000000000E+00 -0.51460829300E+02  0.51460829300E+02  0.00000000000E+00 0. -1.
         25    1    1    2    0    0  0.53221699804E+02 -0.11258279576E+03  0.42701195728E+03  0.46202991991E+03  0.12500000000E+03 0.  0.
         25    1    1    2    0    0 -0.53221699804E+02  0.11258279576E+03  0.19528777431E+03  0.26319147027E+03  0.12500000000E+03 0.  0.
</event>
<event>
 4    0  0.2219362E-002  0.1740126E+03  0.7546771E-02  0.1173727E+00
         21   -1    0    0  502  501  0.00000000000E+00  0.00000000000E+00  0.26663637848E+03  0.26663637848E+03  0.00000000000E+00 0. -1.
         21   -1    0    0  501  502 -0.00000000000E+00 -0.00000000000E+00 -0.11356433754E+03  0.11356433754E+03  0.00000000000E+00 0. -1.
         25    1    1    2    0    0  0.11220980964E+03  0.45404804377E+02  0.74725697425E+02  0.18937150656E+03  0.12500000000E+03 0.  0.
         25    1    1    2    0    0 -0.11220980964E+03 -0.45404804377E+02  0.78346343521E+02  0.19082920946E+03  0.12500000000E+03 0.  0.
</event>
<event>
 4    0  0.2219362E-002  0.3080014E+03  0.7546771E-02  0.1081308E+00
         21   -1    0    0  502  501  0.00000000000E+00  0.00000000000E+00  0.12122000909E+04  0.12122000909E+04  0.00000000000E+00 0.  1.
         21   -1    0    0  501  502 -0.00000000000E+00 -0.00000000000E+00 -0.78258399282E+02  0.78258399282E+02  0.00000000000E+00 0.  1.
         25    1    1    2    0    0 -0.95959133072E+01 -0.28057553903E+03  0.52377726069E+03  0.60727451245E+03  0.12500000000E+03 0.  0.
         25    1    1    2    0    0  0.95959133072E+01  0.28057553903E+03  0.61016443093E+03  0.68318397773E+03  0.12500000000E+03 0.  0.
</event>
<event>
 4    0  0.2219362E-002  0.1880414E+03  0.7546771E-02  0.1160240E+00
         21   -1    0    0  502  501  0.00000000000E+00  0.00000000000E+00  0.16425656838E+03  0.16425656838E+03  0.00000000000E+00 0.  1.
         21   -1    0    0  501  502 -0.00000000000E+00 -0.00000000000E+00 -0.21527039622E+03  0.21527039622E+03  0.00000000000E+00 0.  1.
         25    1    1    2    0    0 -0.35350592422E+02  0.13572417331E+03 -0.33571402139E+02  0.19084746434E+03  0.12500000000E+03 0.  0.
         25    1    1    2    0    0  0.35350592422E+02 -0.13572417331E+03 -0.17442425706E+02  0.18867950026E+03  0.12500000000E+03 0.  0.
</event>
<event>
 4    0  0.2219362E-002  0.2070752E+03  0.7546771E-02  0.1143903E+00
         21   -1    0    0  502  501  0.00000000000E+00  0.00000000000E+00  0.17447218082E+03  0.17447218082E+03  0.00000000000E+00 0. -1.
         21   -1    0    0  501  502 -0.00000000000E+00 -0.00000000000E+00 -0.24577059803E+03  0.24577059803E+03  0.00000000000E+00 0. -1.
         25    1    1    2    0    0  0.15467915630E+03 -0.51492680495E+02 -0.62070579622E+02  0.21460404095E+03  0.12500000000E+03 0.  0.
         25    1    1    2    0    0 -0.15467915630E+03  0.51492680495E+02 -0.92278375910E+01  0.20563873790E+03  0.12500000000E+03 0.  0.
</event>
<event>
 4    0  0.2219362E-002  0.1452705E+03  0.7546771E-02  0.1206408E+00
         21   -1    0    0  502  501  0.00000000000E+00  0.00000000000E+00  0.20107282476E+02  0.20107282476E+02  0.00000000000E+00 0.  1.
         21   -1    0    0  501  502 -0.00000000000E+00 -0.00000000000E+00 -0.10495462623E+04  0.10495462623E+04  0.00000000000E+00 0.  1.
         25    1    1    2    0    0 -0.50042673346E+02  0.50271483116E+02 -0.43687910743E+03  0.45991286749E+03  0.12500000000E+03 0.  0.
         25    1    1    2    0    0  0.50042673346E+02 -0.50271483116E+02 -0.59255987235E+03  0.60974067724E+03  0.12500000000E+03 0.  0.
</event>
<event>
 4    0  0.2219362E-002  0.1810001E+03  0.7546771E-02  0.1166839E+00
         21   -1    0    0  502  501  0.00000000000E+00  0.00000000000E+00  0.24434102803E+03  0.24434102803E+03  0.00000000000E+00 0.  1.
         21   -1    0    0  501  502 -0.00000000000E+00 -0.00000000000E+00 -0.13407921219E+03  0.13407921219E+03  0.00000000000E+00 0.  1.
         25    1    1    2    0    0  0.85229482011E+02 -0.63565027344E+02 -0.24696983186E+02  0.16595034885E+03  0.12500000000E+03 0.  0.
         25    1    1    2    0    0 -0.85229482011E+02  0.63565027344E+02  0.13495879902E+03  0.21246989137E+03  0.12500000000E+03 0.  0.
</event>
<event>
 4    0  0.2219362E-002  0.1883124E+03  0.7546771E-02  0.1159992E+00
         21   -1    0    0  502  501  0.00000000000E+00  0.00000000000E+00  0.11491672072E+03  0.11491672072E+03  0.00000000000E+00 0.  1.
         21   -1    0    0  501  502 -0.00000000000E+00 -0.00000000000E+00 -0.30858499918E+03  0.30858499918E+03  0.00000000000E+00 0.  1.
         25    1    1    2    0    0  0.26607589841E+02 -0.99970109229E+02  0.10636711115E+02  0.16260420105E+03  0.12500000000E+03 0.  0.
         25    1    1    2    0    0 -0.26607589841E+02  0.99970109229E+02 -0.20430498957E+03  0.26089751884E+03  0.12500000000E+03 0.  0.
</event>
<event>
 4    0  0.2219362E-002  0.2031709E+03  0.7546771E-02  0.1147091E+00
         21   -1    0    0  502  501  0.00000000000E+00  0.00000000000E+00  0.52111709314E+03  0.52111709314E+03  0.00000000000E+00 0.  1.
         21   -1    0    0  501  502 -0.00000000000E+00 -0.00000000000E+00 -0.79211409752E+02  0.79211409752E+02  0.00000000000E+00 0.  1.
         25    1    1    2    0    0  0.12224015589E+03  0.89443588735E+02  0.14403433920E+03  0.24354404560E+03  0.12500000000E+03 0.  0.
         25    1    1    2    0    0 -0.12224015589E+03 -0.89443588735E+02  0.29787134419E+03  0.35678445729E+03  0.12500000000E+03 0.  0.
</event>
<event>
 4    0  0.2219362E-002  0.1758776E+03  0.7546771E-02  0.1171853E+00
         21   -1    0    0  502  501  0.00000000000E+00  0.00000000000E+00  0.14882280988E+03  0.14882280988E+03  0.00000000000E+00 0.  1.
         21   -1    0    0  501  502 -0.00000000000E+00 -0.00000000000E+00 -0.20785073388E+03  0.20785073388E+03  0.00000000000E+00 0.  1.
         25    1    1    2    0    0 -0.21030700348E+02  0.68983566879E+02 -0.13145276114E+03  0.19520720086E+03  0.12500000000E+03 0.  0.
         25    1    1    2    0    0  0.21030700348E+02 -0.68983566879E+02  0.72424837132E+02  0.16146634290E+03  0.12500000000E+03 0.  0.
</event>
<event>
 4    0  0.2219362E-002  0.6354454E+03  0.7546771E-02  0.9834480E-01
         21   -1    0    0  502  501  0.00000000000E+00  0.00000000000E+00  0.50384230302E+03  0.50384230302E+03  0.00000000000E+00 0. -1.
         21   -1    0    0  501  502 -0.00000000000E+00 -0.00000000000E+00 -0.80142311841E+03  0.80142311841E+03  0.00000000000E+00 0.  1.
         25    1    1    2    0    0 -0.23477606087E+03  0.57627908638E+03 -0.18042089939E+03  0.65984398541E+03  0.12500000000E+03 0.  0.
         25    1    1    2    0    0  0.23477606087E+03 -0.57627908638E+03 -0.11715991601E+03  0.64542143602E+03  0.12500000000E+03 0.  0.
</event>
<event>
 4    0  0.2219362E-002  0.1717064E+03  0.7546771E-02  0.1176080E+00
         21   -1    0    0  502  501  0.00000000000E+00  0.00000000000E+00  0.50778862749E+03  0.50778862749E+03  0.00000000000E+00 0. -1.
         21   -1    0    0  501  502 -0.00000000000E+00 -0.00000000000E+00 -0.58061727564E+02  0.58061727564E+02  0.00000000000E+00 0. -1.
         25    1    1    2    0    0 -0.66094446494E+02  0.25921847850E+02  0.70137919811E+02  0.15995232367E+03  0.12500000000E+03 0.  0.
         25    1    1    2    0    0  0.66094446494E+02 -0.25921847850E+02  0.37958898012E+03  0.40589803138E+03  0.12500000000E+03 0.  0.
</event>
<event>
 4    0  0.2219362E-002  0.1801315E+03  0.7546771E-02  0.1167676E+00
         21   -1    0    0  502  501  0.00000000000E+00  0.00000000000E+00  0.10963817836E+04  0.10963817836E+04  0.00000000000E+00 0.  1.
         21   -1    0    0  501  502 -0.00000000000E+00 -0.00000000000E+00 -0.29594949934E+02  0.29594949934E+02  0.00000000000E+00 0.  1.
         25    1    1    2    0    0  0.76952840479E+02  0.70921858725E+02  0.77286566052E+03  0.78987212820E+03  0.12500000000E+03 0.  0.
         25    1    1    2    0    0 -0.76952840479E+02 -0.70921858725E+02  0.29392117317E+03  0.33610460536E+03  0.12500000000E+03 0.  0.
</event>
<event>
 4    0  0.2219362E-002  0.2459073E+03  0.7546771E-02  0.1115919E+00
         21   -1    0    0  502  501  0.00000000000E+00  0.00000000000E+00  0.34804842036E+04  0.34804842036E+04  0.00000000000E+00 0. -1.
         21   -1    0    0  501  502 -0.00000000000E+00 -0.00000000000E+00 -0.17374135224E+02  0.17374135224E+02  0.00000000000E+00 0. -1.
         25    1    1    2    0    0 -0.90666772537E+02 -0.13312782408E+03  0.27093634537E+04  0.27170238875E+04  0.12500000000E+03 0.  0.
         25    1    1    2    0    0  0.90666772537E+02  0.13312782408E+03  0.75374661468E+03  0.78083445129E+03  0.12500000000E+03 0.  0.
</event>
<event>
 4    0  0.2219362E-002  0.1996185E+03  0.7546771E-02  0.1150061E+00
         21   -1    0    0  502  501  0.00000000000E+00  0.00000000000E+00  0.13949486432E+03  0.13949486432E+03  0.00000000000E+00 0. -1.
         21   -1    0    0  501  502 -0.00000000000E+00 -0.00000000000E+00 -0.28565586234E+03  0.28565586234E+03  0.00000000000E+00 0. -1.
         25    1    1    2    0    0 -0.12183113599E+03  0.95968615927E+02 -0.59207034525E+02  0.20780585622E+03  0.12500000000E+03 0.  0.
         25    1    1    2    0    0  0.12183113599E+03 -0.95968615927E+02 -0.86953963497E+02  0.21734487044E+03  0.12500000000E+03 0.  0.
</event>
<event>
 4    0  0.2219362E-002  0.2199123E+03  0.7546771E-02  0.1133948E+00
         21   -1    0    0  502  501  0.00000000000E+00  0.00000000000E+00  0.19746015817E+03  0.19746015817E+03  0.00000000000E+00 0. -1.
         21   -1    0    0  501  502 -0.00000000000E+00 -0.00000000000E+00 -0.24491734124E+03  0.24491734124E+03  0.00000000000E+00 0. -1.
         25    1    1    2    0    0  0.53398868151E+02  0.16508472295E+03  0.27872330683E+02  0.21565312817E+03  0.12500000000E+03 0.  0.
         25    1    1    2    0    0 -0.53398868151E+02 -0.16508472295E+03 -0.75329513747E+02  0.22672437124E+03  0.12500000000E+03 0.  0.
</event>
<event>
 4    0  0.2219362E-002  0.1946457E+03  0.7546771E-02  0.1154337E+00
         21   -1    0    0  502  501  0.00000000000E+00  0.00000000000E+00  0.25512726076E+03  0.25512726076E+03  0.00000000000E+00 0. -1.
         21   -1    0    0  501  502 -0.00000000000E+00 -0.00000000000E+00 -0.14850214278E+03  0.14850214278E+03  0.00000000000E+00 0. -1.
         25    1    1    2    0    0 -0.13632809139E+03  0.37355218570E+02  0.37916998831E+01  0.18873298027E+03  0.12500000000E+03 0.  0.
         25    1    1    2    0    0  0.13632809139E+03 -0.37355218570E+02  0.10283341810E+03  0.21489642327E+03  0.12500000000E+03 0.  0.
</event>
<event>
 4    0  0.2219362E-002  0.1959689E+03  0.7546771E-02  0.1153185E+00
         21   -1    0    0  502  501  0.00000000000E+00  0.00000000000E+00  0.57534072438E+03  0.57534072438E+03  0.00000000000E+00 0.  1.
         21   -1    0    0  501  502 -0.00000000000E+00 -0.00000000000E+00 -0.66749665943E+02  0.66749665943E+02  0.00000000000E+00 0.  1.
         25    1    1    2    0    0 -0.74935491618E+02  0.10558702015E+03  0.12724056774E+03  0.22040668957E+03  0.12500000000E+03 0.  0.
         25    1    1    2    0    0  0.74935491618E+02 -0.10558702015E+03  0.38135049069E+03  0.42168370075E+03  0.12500000000E+03 0.  0.
</event>
<event>
 4    0  0.2219362E-002  0.2447604E+03  0.7546771E-02  0.1116662E+00
         21   -1    0    0  502  501  0.00000000000E+00  0.00000000000E+00  0.37409466934E+03  0.37409466934E+03  0.00000000000E+00 0. -1.
         21   -1    0    0  501  502 -0.00000000000E+00 -0.00000000000E+00 -0.16014033450E+03  0.16014033450E+03  0.00000000000E+00 0. -1.
         25    1    1    2    0    0 -0.16622456672E+03 -0.10038188067E+03  0.18480652240E+02  0.23167577140E+03  0.12500000000E+03 0.  0.
         25    1    1    2    0    0  0.16622456672E+03  0.10038188067E+03  0.19547368260E+03  0.30255923244E+03  0.12500000000E+03 0.  0.
</event>
<event>
 4    0  0.2219362E-002  0.2137368E+03  0.7546771E-02  0.1138641E+00
         21   -1    0    0  502  501  0.00000000000E+00  0.00000000000E+00  0.25003732780E+03  0.25003732780E+03  0.00000000000E+00 0. -1.
         21   -1    0    0  501  502 -0.00000000000E+00 -0.00000000000E+00 -0.18270645244E+03  0.18270645244E+03  0.00000000000E+00 0. -1.
         25    1    1    2    0    0 -0.68924701306E+02 -0.12142049840E+03  0.13771824024E+03  0.23256153073E+03  0.12500000000E+03 0.  0.
         25    1    1    2    0    0  0.68924701306E+02  0.12142049840E+03 -0.70387364878E+02  0.20018224951E+03  0.12500000000E+03 0.  0.
</event>
<event>
 4    0  0.2219362E-002  0.1582712E+03  0.7546771E-02  0.1190662E+00
         21   -1    0    0  502  501  0.00000000000E+00  0.00000000000E+00  0.36906794768E+03  0.36906794768E+03  0.00000000000E+00 0.  1.
         21   -1    0    0  501  502 -0.00000000000E+00 -0.00000000000E+00 -0.67873072714E+02  0.67873072714E+02  0.00000000000E+00 0.  1.
         25    1    1    2    0    0  0.22400376783E+02  0.93505302727E+02  0.13209052518E+03  0.20571321144E+03  0.12500000000E+03 0.  0.
         25    1    1    2    0    0 -0.22400376783E+02 -0.93505302727E+02  0.16910434979E+03  0.23122780896E+03  0.12500000000E+03 0.  0.
</event>
<event>
 4    0  0.2219362E-002  0.1690222E+03  0.7546771E-02  0.1178871E+00
         21   -1    0    0  502  501  0.00000000000E+00  0.00000000000E+00  0.29755392363E+03  0.29755392363E+03  0.00000000000E+00 0.  1.
         21   -1    0    0  501  502 -0.00000000000E+00 -0.00000000000E+00 -0.96011225115E+02  0.96011225115E+02  0.00000000000E+00 0.  1.
         25    1    1    2    0    0 -0.56655104092E+02  0.45084722168E+02 -0.13975500794E+01  0.14446240389E+03  0.12500000000E+03 0.  0.
         25    1    1    2    0    0  0.56655104092E+02 -0.45084722168E+02  0.20294024859E+03  0.24910274485E+03  0.12500000000E+03 0.  0.
</event>
<event>
 4    0  0.2219362E-002  0.1972111E+03  0.7546771E-02  0.1152114E+00
         21   -1    0    0  502  501  0.00000000000E+00  0.00000000000E+00  0.13255818222E+03  0.13255818222E+03  0.00000000000E+00 0.  1.
         21   -1    0    0  501  502 -0.00000000000E+00 -0.00000000000E+00 -0.29339738198E+03  0.29339738198E+03  0.00000000000E+00 0.  1.
         25    1    1    2    0    0 -0.96860057703E+02 -0.44032897803E+02  0.37618570895E+02  0.16840701809E+03  0.12500000000E+03 0.  0.
         25    1    1    2    0    0  0.96860057703E+02  0.44032897803E+02 -0.19845777066E+03  0.25754854610E+03  0.12500000000E+03 0.  0.
</event>
<event>
 4    0  0.2219362E-002  0.1992942E+03  0.7546771E-02  0.1150336E+00
         21   -1    0    0  502  501  0.00000000000E+00  0.00000000000E+00  0.15380977503E+03  0.15380977503E+03  0.00000000000E+00 0. -1.
         21   -1    0    0  501  502 -0.00000000000E+00 -0.00000000000E+00 -0.25822925141E+03  0.25822925141E+03  0.00000000000E+00 0. -1.
         25    1    1    2    0    0 -0.89295610269E+02 -0.18475022173E+02  0.77640191477E+02  0.17311277189E+03  0.12500000000E+03 0.  0.
         25    1    1    2    0    0  0.89295610269E+02  0.18475022173E+02 -0.18205966785E+03  0.23892625456E+03  0.12500000000E+03 0.  0.
</event>
<event>
 4    0  0.2219362E-002  0.2260517E+03  0.7546771E-02  0.1129450E+00
         21   -1    0    0  502  501  0.00000000000E+00  0.00000000000E+00  0.72351808378E+02  0.72351808378E+02  0.00000000000E+00 0.  1.
         21   -1    0    0  501  502 -0.00000000000E+00 -0.00000000000E+00 -0.70626283546E+03  0.70626283546E+03  0.00000000000E+00 0.  1.
         25    1    1    2    0    0  0.10367842339E+03  0.15497470781E+03 -0.27113005834E+03  0.35199841487E+03  0.12500000000E+03 0.  0.
         25    1    1    2    0    0 -0.10367842339E+03 -0.15497470781E+03 -0.36278096874E+03  0.42661622896E+03  0.12500000000E+03 0.  0.
</event>
<event>
 4    0  0.2219362E-002  0.3517978E+03  0.7546771E-02  0.1061880E+00
         21   -1    0    0  502  501  0.00000000000E+00  0.00000000000E+00  0.35758583219E+03  0.35758583219E+03  0.00000000000E+00 0. -1.
         21   -1    0    0  501  502 -0.00000000000E+00 -0.00000000000E+00 -0.34610354739E+03  0.34610354739E+03  0.00000000000E+00 0. -1.
         25    1    1    2    0    0  0.19937472370E+03 -0.29125675266E+02 -0.25417447204E+03  0.34760357830E+03  0.12500000000E+03 0.  0.
         25    1    1    2    0    0 -0.19937472370E+03  0.29125675266E+02  0.26565675684E+03  0.35608580127E+03  0.12500000000E+03 0.  0.
</event>
<event>
 4    0  0.2219362E-002  0.1805397E+03  0.7546771E-02  0.1167282E+00
         21   -1    0    0  502  501  0.00000000000E+00  0.00000000000E+00  0.29999367077E+03  0.29999367077E+03  0.00000000000E+00 0.  1.
         21   -1    0    0  501  502 -0.00000000000E+00 -0.00000000000E+00 -0.10865094185E+03  0.10865094185E+03  0.00000000000E+00 0.  1.
         25    1    1    2    0    0  0.12957711652E+03 -0.20991092488E+01  0.80701711124E+02  0.19731295336E+03  0.12500000000E+03 0.  0.
         25    1    1    2    0    0 -0.12957711652E+03  0.20991092488E+01  0.11064101780E+03  0.21133165926E+03  0.12500000000E+03 0.  0.
</event>
<event>
 4    0  0.2219362E-002  0.1754868E+03  0.7546771E-02  0.1172244E+00
         21   -1    0    0  502  501  0.00000000000E+00  0.00000000000E+00  0.16815734440E+03  0.16815734440E+03  0.00000000000E+00 0. -1.
         21   -1    0    0  501  502 -0.00000000000E+00 -0.00000000000E+00 -0.18313580907E+03  0.18313580907E+03  0.00000000000E+00 0. -1.
         25    1    1    2    0    0 -0.47615175176E+02 -0.59229060167E+02  0.89528584282E+02  0.17150992356E+03  0.12500000000E+03 0.  0.
         25    1    1    2    0    0  0.47615175176E+02  0.59229060167E+02 -0.10450704896E+03  0.17978322991E+03  0.12500000000E+03 0.  0.
</event>
<event>
 4    0  0.2219362E-002  0.2080651E+03  0.7546771E-02  0.1143107E+00
         21   -1    0    0  502  501  0.00000000000E+00  0.00000000000E+00  0.20649511267E+03  0.20649511267E+03  0.00000000000E+00 0.  1.
         21   -1    0    0  501  502 -0.00000000000E+00 -0.00000000000E+00 -0.20964697519E+03  0.20964697519E+03  0.00000000000E+00 0. -1.
         25    1    1    2    0    0 -0.51050316168E+02 -0.15303218445E+03  0.38935618358E+02  0.20776420923E+03  0.12500000000E+03 0.  0.
         25    1    1    2    0    0  0.51050316168E+02  0.15303218445E+03 -0.42087480875E+02  0.20837787864E+03  0.12500000000E+03 0.  0.
</event>
<event>
 4    0  0.2219362E-002  0.1957939E+03  0.7546771E-02  0.1153337E+00
         21   -1    0    0  502  501  0.00000000000E+00  0.00000000000E+00  0.89883244778E+02  0.89883244778E+02  0.00000000000E+00 0. -1.
         21   -1    0    0  501  502 -0.00000000000E+00 -0.00000000000E+00 -0.42650052501E+03  0.42650052501E+03  0.00000000000E+00 0. -1.
         25    1    1    2    0    0  0.72431417331E+02 -0.13214538337E+03 -0.16994431048E+03  0.25925813628E+03  0.12500000000E+03 0.  0.
         25    1    1    2    0    0 -0.72431417331E+02  0.13214538337E+03 -0.16667296975E+03  0.25712563351E+03  0.12500000000E+03 0.  0.
</event>
<event>
 4    0  0.2219362E-002  0.2175511E+03  0.7546771E-02  0.1135722E+00
         21   -1    0    0  502  501  0.00000000000E+00  0.00000000000E+00  0.79087953630E+03  0.79087953630E+03  0.00000000000E+00 0. -1.
         21   -1    0    0  501  502 -0.00000000000E+00 -0.00000000000E+00 -0.59842850692E+02  0.59842850692E+02  0.00000000000E+00 0. -1.
         25    1    1    2    0    0  0.13238112952E+03  0.89446978714E+02  0.51919897036E+03  0.55742093276E+03  0.12500000000E+03 0.  0.
         25    1    1    2    0    0 -0.13238112952E+03 -0.89446978714E+02  0.21183771525E+03  0.29330145423E+03  0.12500000000E+03 0.  0.
</event>
<event>
 4    0  0.2219362E-002  0.1457183E+03  0.7546771E-02  0.1205835E+00
         21   -1    0    0  502  501  0.00000000000E+00  0.00000000000E+00  0.23239071796E+03  0.23239071796E+03  0.00000000000E+00 0.  1.
         21   -1    0    0  501  502 -0.00000000000E+00 -0.00000000000E+00 -0.91371275596E+02  0.91371275596E+02  0.00000000000E+00 0.  1.
         25    1    1    2    0    0  0.39369891112E+02  0.23141966488E+02  0.13645083652E+03  0.19060264879E+03  0.12500000000E+03 0.  0.
         25    1    1    2    0    0 -0.39369891112E+02 -0.23141966488E+02  0.45686058441E+01  0.13315934477E+03  0.12500000000E+03 0.  0.
</event>
<event>
 4    0  0.2219362E-002  0.1912693E+03  0.7546771E-02  0.1157321E+00
         21   -1    0    0  502  501  0.00000000000E+00  0.00000000000E+00  0.12106992850E+04  0.12106992850E+04  0.00000000000E+00 0.  1.
         21   -1    0    0  501  502 -0.00000000000E+00 -0.00000000000E+00 -0.30217199838E+02  0.30217199838E+02  0.00000000000E+00 0.  1.
         25    1    1    2    0    0 -0.95899323628E+02  0.53662604379E+02  0.28451175916E+03  0.32961841041E+03  0.12500000000E+03 0.  0.
         25    1    1    2    0    0  0.95899323628E+02 -0.53662604379E+02  0.89597032598E+03  0.91129807441E+03  0.12500000000E+03 0.  0.
</event>
<event>
 4    0  0.2219362E-002  0.2827955E+03  0.7546771E-02  0.1094172E+00
         21   -1    0    0  502  501  0.00000000000E+00  0.00000000000E+00  0.17950539246E+03  0.17950539246E+03  0.00000000000E+00 0.  1.
         21   -1    0    0  501  502 -0.00000000000E+00 -0.00000000000E+00 -0.44552030982E+03  0.44552030982E+03  0.00000000000E+00 0.  1.
         25    1    1    2    0    0 -0.91484808868E+02  0.18216981021E+03  0.33830938650E+02  0.24150536726E+03  0.12500000000E+03 0.  0.
         25    1    1    2    0    0  0.91484808868E+02 -0.18216981021E+03 -0.29984585601E+03  0.38352033502E+03  0.12500000000E+03 0.  0.
</event>
<event>
 4    0  0.2219362E-002  0.1679773E+03  0.7546771E-02  0.1179974E+00
         21   -1    0    0  502  501  0.00000000000E+00  0.00000000000E+00  0.45136670309E+03  0.45136670309E+03  0.00000000000E+00 0.  1.
         21   -1    0    0  501  502 -0.00000000000E+00 -0.00000000000E+00 -0.62513155658E+02  0.62513155658E+02  0.00000000000E+00 0.  1.
         25    1    1    2    0    0 -0.10648180827E+03  0.19474117207E+01  0.14036438678E+03  0.21603085192E+03  0.12500000000E+03 0.  0.
         25    1    1    2    0    0  0.10648180827E+03 -0.19474117207E+01  0.24848916065E+03  0.29784900682E+03  0.12500000000E+03 0.  0.
</event>
<event>
 4    0  0.2219362E-002  0.3207630E+03  0.7546771E-02  0.1075299E+00
         21   -1    0    0  502  501  0.00000000000E+00  0.00000000000E+00  0.28158690682E+03  0.28158690682E+03  0.00000000000E+00 0.  1.
         21   -1    0    0  501  502 -0.00000000000E+00 -0.00000000000E+00 -0.36538953026E+03  0.36538953026E+03  0.00000000000E+00 0.  1.
         25    1    1    2    0    0  0.78923847425E+02  0.28273336985E+03 -0.85023428566E+01  0.31916206221E+03  0.12500000000E+03 0.  0.
         25    1    1    2    0    0 -0.78923847425E+02 -0.28273336985E+03 -0.75300280589E+02  0.32781437488E+03  0.12500000000E+03 0.  0.
</event>
<event>
 4    0  0.2219362E-002  0.4046567E+03  0.7546771E-02  0.1042179E+00
         21   -1    0    0  502  501  0.00000000000E+00  0.00000000000E+00  0.11879541684E+03  0.11879541684E+03  0.00000000000E+00 0. -1.
         21   -1    0    0  501  502 -0.00000000000E+00 -0.00000000000E+00 -0.13783950095E+04  0.13783950095E+04  0.00000000000E+00 0. -1.
         25    1    1    2    0    0 -0.17269191723E+03 -0.39808022890E+02  0.22093783376E+01  0.21688028568E+03  0.12500000000E+03 0.  0.
         25    1    1    2    0    0  0.17269191723E+03  0.39808022890E+02 -0.12618089710E+04  0.12803101406E+04  0.12500000000E+03 0.  0.
</event>
<event>
 4    0  0.2219362E-002  0.2019022E+03  0.7546771E-02  0.1148144E+00
         21   -1    0    0  502  501  0.00000000000E+00  0.00000000000E+00  0.96877695777E+02  0.96877695777E+02  0.00000000000E+00 0. -1.
         21   -1    0    0  501  502 -0.00000000000E+00 -0.00000000000E+00 -0.42078292311E+03  0.42078292311E+03  0.00000000000E+00 0. -1.
         25    1    1    2    0    0 -0.10510861189E+03 -0.51425013320E+02 -0.24794203519E+02  0.17300897323E+03  0.12500000000E+03 0.  0.
         25    1    1    2    0    0  0.10510861189E+03  0.51425013320E+02 -0.29911102381E+03  0.34465164566E+03  0.12500000000E+03 0.  0.
</event>
<event>
 4    0  0.2219362E-002  0.2832330E+03  0.7546771E-02  0.1093936E+00
         21   -1    0    0  502  501  0.00000000000E+00  0.00000000000E+00  0.56782896621E+03  0.56782896621E+03  0.00000000000E+00 0.  1.
         21   -1    0    0  501  502 -0.00000000000E+00 -0.00000000000E+00 -0.14127658972E+03  0.14127658972E+03  0.00000000000E+00 0.  1.
         25    1    1    2    0    0 -0.14254375914E+03 -0.73198254719E+02 -0.33679566590E+02  0.20600005090E+03  0.12500000000E+03 0.  0.
         25    1    1    2    0    0  0.14254375914E+03  0.73198254719E+02  0.46023194308E+03  0.50310550504E+03  0.12500000000E+03 0.  0.
</event>
<event>
 4    0  0.2219362E-002  0.2423611E+03  0.7546771E-02  0.1118230E+00
         21   -1    0    0  502  501  0.00000000000E+00  0.00000000000E+00  0.14475334938E+03  0.14475334938E+03  0.00000000000E+00 0. -1.
         21   -1    0    0  501  502 -0.00000000000E+00 -0.00000000000E+00 -0.40578602380E+03  0.40578602380E+03  0.00000000000E+00 0. -1.
         25    1    1    2    0    0 -0.58941499488E+02 -0.12469765194E+03  0.45769113764E+02  0.19168572335E+03  0.12500000000E+03 0.  0.
         25    1    1    2    0    0  0.58941499488E+02  0.12469765194E+03 -0.30680178818E+03  0.35885364983E+03  0.12500000000E+03 0.  0.
</event>
<event>
 4    0  0.2219362E-002  0.2057196E+03  0.7546771E-02  0.1145001E+00
         21   -1    0    0  502  501  0.00000000000E+00  0.00000000000E+00  0.99092627048E+02  0.99092627048E+02  0.00000000000E+00 0.  1.
         21   -1    0    0  501  502 -0.00000000000E+00 -0.00000000000E+00 -0.42708086653E+03  0.42708086653E+03  0.00000000000E+00 0.  1.
         25    1    1    2    0    0 -0.82427071167E+02 -0.17883747549E+02 -0.34295016829E+03  0.37463831680E+03  0.12500000000E+03 0.  0.
         25    1    1    2    0    0  0.82427071167E+02  0.17883747549E+02  0.14961928805E+02  0.15153517678E+03  0.12500000000E+03 0.  0.
</event>
<event>
 4    0  0.2219362E-002  0.1690046E+03  0.7546771E-02  0.1178890E+00
         21   -1    0    0  502  501  0.00000000000E+00  0.00000000000E+00  0.22577898264E+03  0.22577898264E+03  0.00000000000E+00 0.  1.
         21   -1    0    0  501  502 -0.00000000000E+00 -0.00000000000E+00 -0.12650670628E+03  0.12650670628E+03  0.00000000000E+00 0.  1.
         25    1    1    2    0    0 -0.48152684028E+02  0.80301234814E+02  0.11694388049E+03  0.19510981645E+03  0.12500000000E+03 0.  0.
         25    1    1    2    0    0  0.48152684028E+02 -0.80301234814E+02 -0.17671604129E+02  0.15717587246E+03  0.12500000000E+03 0.  0.
</event>
<event>
 4    0  0.2219362E-002  0.1876248E+03  0.7546771E-02  0.1160621E+00
         21   -1    0    0  502  501  0.00000000000E+00  0.00000000000E+00  0.35413568811E+03  0.35413568811E+03  0.00000000000E+00 0. -1.
         21   -1    0    0  501  502 -0.00000000000E+00 -0.00000000000E+00 -0.99405587190E+02  0.99405587190E+02  0.00000000000E+00 0. -1.
         25    1    1    2    0    0  0.12421443704E+03  0.38558653757E+02  0.65005022482E+02  0.19174631443E+03  0.12500000000E+03 0.  0.
         25    1    1    2    0    0 -0.12421443704E+03 -0.38558653757E+02  0.18972507844E+03  0.26179496087E+03  0.12500000000E+03 0.  0.
</event>
<event>
 4    0  0.2219362E-002  0.1983939E+03  0.7546771E-02  0.1151101E+00
         21   -1    0    0  502  501  0.00000000000E+00  0.00000000000E+00  0.82771233875E+02  0.82771233875E+02  0.00000000000E+00 0.  1.
         21   -1    0    0  501  502 -0.00000000000E+00 -0.00000000000E+00 -0.47552901946E+03  0.47552901946E+03  0.00000000000E+00 0.  1.
         25    1    1    2    0    0 -0.11002502724E+03 -0.87427081556E+01 -0.45141071727E+02  0.17275606479E+03  0.12500000000E+03 0.  0.
         25    1    1    2    0    0  0.11002502724E+03  0.87427081556E+01 -0.34761671386E+03  0.38554418855E+03  0.12500000000E+03 0.  0.
</event>
<event>
 4    0  0.2219362E-002  0.1545059E+03  0.7546771E-02  0.1195043E+00
         21   -1    0    0  502  501  0.00000000000E+00  0.00000000000E+00  0.10312185823E+03  0.10312185823E+03  0.00000000000E+00 0. -1.
         21   -1    0    0  501  502 -0.00000000000E+00 -0.00000000000E+00 -0.23149396587E+03  0.23149396587E+03  0.00000000000E+00 0. -1.
         25    1    1    2    0    0  0.77025977787E+02  0.44074905534E+02 -0.43314995238E+02  0.15930093334E+03  0.12500000000E+03 0.  0.
         25    1    1    2    0    0 -0.77025977787E+02 -0.44074905534E+02 -0.85057112396E+02  0.17531489076E+03  0.12500000000E+03 0.  0.
</event>
<event>
 4    0  0.2219362E-002  0.1741567E+03  0.7546771E-02  0.1173581E+00
         21   -1    0    0  502  501  0.00000000000E+00  0.00000000000E+00  0.10199054333E+03  0.10199054333E+03  0.00000000000E+00 0. -1.
         21   -1    0    0  501  502 -0.00000000000E+00 -0.00000000000E+00 -0.29738604805E+03  0.29738604805E+03  0.00000000000E+00 0. -1.
         25    1    1    2    0    0 -0.70882551025E+02  0.79354458223E+02 -0.16439898552E+03  0.23232195875E+03  0.12500000000E+03 0.  0.
         25    1    1    2    0    0  0.70882551025E+02 -0.79354458223E+02 -0.30996519210E+02  0.16705463263E+03  0.12500000000E+03 0.  0.
</event>
<event>
 4    0  0.2219362E-002  0.3047149E+03  0.7546771E-02  0.1082907E+00
         21   -1    0    0  502  501  0.00000000000E+00  0.00000000000E+00  0.34769897472E+03  0.34769897472E+03  0.00000000000E+00 0. -1.
         21   -1    0    0  501  502 -0.00000000000E+00 -0.00000000000E+00 -0.26704462382E+03  0.26704462382E+03  0.00000000000E+00 0. -1.
         25    1    1    2    0    0  0.20513545881E+03  0.15016874601E+03  0.15353288430E+03  0.32222438657E+03  0.12500000000E+03 0.  0.
         25    1    1    2    0    0 -0.20513545881E+03 -0.15016874601E+03 -0.72878533400E+02  0.29251921197E+03  0.12500000000E+03 0.  0.
</event>
<event>
 4    0  0.2219362E-002  0.1538583E+03  0.7546771E-02  0.1195811E+00
         21   -1    0    0  502  501  0.00000000000E+00  0.00000000000E+00  0.20621986801E+02  0.20621986801E+02  0.00000000000E+00 0. -1.
         21   -1    0    0  501  502 -0.00000000000E+00 -0.00000000000E+00 -0.11479190612E+04  0.11479190612E+04  0.00000000000E+00 0. -1.
         25    1    1    2    0    0 -0.65885259217E+02 -0.37763458262E+02 -0.38230543461E+03  0.40932797546E+03  0.12500000000E+03 0.  0.
         25    1    1    2    0    0  0.65885259217E+02  0.37763458262E+02 -0.74499163983E+03  0.75921307258E+03  0.12500000000E+03 0.  0.
</event>
<event>
 4    0  0.2219362E-002  0.2027184E+03  0.7546771E-02  0.1147466E+00
         21   -1    0    0  502  501  0.00000000000E+00  0.00000000000E+00  0.23350052688E+03  0.23350052688E+03  0.00000000000E+00 0. -1.
         21   -1    0    0  501  502 -0.00000000000E+00 -0.00000000000E+00 -0.17599426672E+03  0.17599426672E+03  0.00000000000E+00 0. -1.
         25    1    1    2    0    0  0.11542443848E+03 -0.55836573802E+02  0.12472645812E+03  0.21822514367E+03  0.12500000000E+03 0.  0.
         25    1    1    2    0    0 -0.11542443848E+03  0.55836573802E+02 -0.67220197960E+02  0.19126964994E+03  0.12500000000E+03 0.  0.
</event>
<event>
 4    0  0.2219362E-002  0.1706454E+03  0.7546771E-02  0.1177176E+00
         21   -1    0    0  502  501  0.00000000000E+00  0.00000000000E+00  0.88595219157E+02  0.88595219157E+02  0.00000000000E+00 0. -1.
         21   -1    0    0  501  502 -0.00000000000E+00 -0.00000000000E+00 -0.32868440138E+03  0.32868440138E+03  0.00000000000E+00 0. -1.
         25    1    1    2    0    0  0.34391603018E+02  0.88460886430E+02 -0.20194172526E+03  0.25576076944E+03  0.12500000000E+03 0.  0.
         25    1    1    2    0    0 -0.34391603018E+02 -0.88460886430E+02 -0.38147456968E+02  0.16151885110E+03  0.12500000000E+03 0.  0.
</event>
<event>
 4    0  0.2219362E-002  0.1909096E+03  0.7546771E-02  0.1157644E+00
         21   -1    0    0  502  501  0.00000000000E+00  0.00000000000E+00  0.88696531696E+02  0.88696531696E+02  0.00000000000E+00 0. -1.
         21   -1    0    0  501  502 -0.00000000000E+00 -0.00000000000E+00 -0.41091187642E+03  0.41091187642E+03  0.00000000000E+00 0. -1.
         25    1    1    2    0    0 -0.21221422175E+02  0.11926499579E+03 -0.26369710649E+03  0.31596780208E+03  0.12500000000E+03 0.  0.
         25    1    1    2    0    0  0.21221422175E+02 -0.11926499579E+03 -0.58518238239E+02  0.18364060604E+03  0.12500000000E+03 0.  0.
</event>
<event>
 4    0  0.2219362E-002  0.1818178E+03  0.7546771E-02  0.1166055E+00
         21   -1    0    0  502  501  0.00000000000E+00  0.00000000000E+00  0.44339401026E+02  0.44339401026E+02  0.00000000000E+00 0. -1.
         21   -1    0    0  501  502 -0.00000000000E+00 -0.00000000000E+00 -0.74556040184E+03  0.74556040184E+03  0.00000000000E+00 0. -1.
         25    1    1    2    0    0 -0.91762359469E+02  0.87203771680E+02 -0.26910489862E+03  0.32259459833E+03  0.12500000000E+03 0.  0.
         25    1    1    2    0    0  0.91762359469E+02 -0.87203771680E+02 -0.43211610220E+03  0.46730520454E+03  0.12500000000E+03 0.  0.
</event>
<event>
 4    0  0.2219362E-002  0.1896855E+03  0.7546771E-02  0.1158745E+00
         21   -1    0    0  502  501  0.00000000000E+00  0.00000000000E+00  0.12301280939E+03  0.12301280939E+03  0.00000000000E+00 0. -1.
         21   -1    0    0  501  502 -0.00000000000E+00 -0.00000000000E+00 -0.29249470915E+03  0.29249470915E+03  0.00000000000E+00 0. -1.
         25    1    1    2    0    0 -0.12359783039E+03 -0.26910127969E+02 -0.12462362771E+02  0.17827195278E+03  0.12500000000E+03 0.  0.
         25    1    1    2    0    0  0.12359783039E+03  0.26910127969E+02 -0.15701953699E+03  0.23723556575E+03  0.12500000000E+03 0.  0.
</event>
<event>
 4    0  0.2219362E-002  0.2004631E+03  0.7546771E-02  0.1149349E+00
         21   -1    0    0  502  501  0.00000000000E+00  0.00000000000E+00  0.72247214786E+03  0.72247214786E+03  0.00000000000E+00 0.  1.
         21   -1    0    0  501  502 -0.00000000000E+00 -0.00000000000E+00 -0.55622168558E+02  0.55622168558E+02  0.00000000000E+00 0.  1.
         25    1    1    2    0    0 -0.59528738835E+02 -0.14399761364E+03  0.36598576019E+03  0.41695270732E+03  0.12500000000E+03 0.  0.
         25    1    1    2    0    0  0.59528738835E+02  0.14399761364E+03  0.30086421912E+03  0.36114160910E+03  0.12500000000E+03 0.  0.
</event>
<event>
 4    0  0.2219362E-002  0.2152271E+03  0.7546771E-02  0.1137492E+00
         21   -1    0    0  502  501  0.00000000000E+00  0.00000000000E+00  0.67940097094E+03  0.67940097094E+03  0.00000000000E+00 0. -1.
         21   -1    0    0  501  502 -0.00000000000E+00 -0.00000000000E+00 -0.68181664424E+02  0.68181664424E+02  0.00000000000E+00 0. -1.
         25    1    1    2    0    0  0.86622215168E+02  0.14626832587E+03  0.37928995794E+03  0.43403191531E+03  0.12500000000E+03 0.  0.
         25    1    1    2    0    0 -0.86622215168E+02 -0.14626832587E+03  0.23192934857E+03  0.31355072005E+03  0.12500000000E+03 0.  0.
</event>
<event>
 4    0  0.2219362E-002  0.1689368E+03  0.7546771E-02  0.1178961E+00
         21   -1    0    0  502  501  0.00000000000E+00  0.00000000000E+00  0.23337315251E+04  0.23337315251E+04  0.00000000000E+00 0.  1.
         21   -1    0    0  501  502 -0.00000000000E+00 -0.00000000000E+00 -0.12229191253E+02  0.12229191253E+02  0.00000000000E+00 0.  1.
         25    1    1    2    0    0  0.96468060841E+01 -0.28514001994E+02  0.19216230382E+04  0.19259195752E+04  0.12500000000E+03 0.  0.
         25    1    1    2    0    0 -0.96468060841E+01  0.28514001994E+02  0.39987929562E+03  0.42004114113E+03  0.12500000000E+03 0.  0.
</event>
<event>
 4    0  0.2219362E-002  0.2089995E+03  0.7546771E-02  0.1142361E+00
         21   -1    0    0  502  501  0.00000000000E+00  0.00000000000E+00  0.24807393010E+03  0.24807393010E+03  0.00000000000E+00 0.  1.
         21   -1    0    0  501  502 -0.00000000000E+00 -0.00000000000E+00 -0.17607973771E+03  0.17607973771E+03  0.00000000000E+00 0.  1.
         25    1    1    2    0    0 -0.49900757555E+02  0.87380551052E+02  0.17187295884E+03  0.23513987388E+03  0.12500000000E+03 0.  0.
         25    1    1    2    0    0  0.49900757555E+02 -0.87380551052E+02 -0.99878766462E+02  0.18901379393E+03  0.12500000000E+03 0.  0.
</event>
<event>
 4    0  0.2219362E-002  0.2608111E+03  0.7546771E-02  0.1106657E+00
         21   -1    0    0  502  501  0.00000000000E+00  0.00000000000E+00  0.29209879821E+03  0.29209879821E+03  0.00000000000E+00 0.  1.
         21   -1    0    0  501  502 -0.00000000000E+00 -0.00000000000E+00 -0.23287477526E+03  0.23287477526E+03  0.00000000000E+00 0.  1.
         25    1    1    2    0    0  0.15594231724E+03 -0.51017903502E+02  0.19025143968E+03  0.28060905738E+03  0.12500000000E+03 0.  0.
         25    1    1    2    0    0 -0.15594231724E+03  0.51017903502E+02 -0.13102741673E+03  0.24436451608E+03  0.12500000000E+03 0.  0.
</event>
<event>
 4    0  0.2219362E-002  0.2283852E+03  0.7546771E-02  0.1127782E+00
         21   -1    0    0  502  501  0.00000000000E+00  0.00000000000E+00  0.18029739573E+03  0.18029739573E+03  0.00000000000E+00 0. -1.
         21   -1    0    0  501  502 -0.00000000000E+00 -0.00000000000E+00 -0.28929873905E+03  0.28929873905E+03  0.00000000000E+00 0. -1.
         25    1    1    2    0    0 -0.83265217621E+02 -0.11848367744E+03 -0.18275670295E+03  0.26456849918E+03  0.12500000000E+03 0.  0.
         25    1    1    2    0    0  0.83265217621E+02  0.11848367744E+03  0.73755359634E+02  0.20502763560E+03  0.12500000000E+03 0.  0.
</event>
<event>
 4    0  0.2219362E-002  0.2101451E+03  0.7546771E-02  0.1141451E+00
         21   -1    0    0  502  501  0.00000000000E+00  0.00000000000E+00  0.10040041173E+03  0.10040041173E+03  0.00000000000E+00 0.  1.
         21   -1    0    0  501  502 -0.00000000000E+00 -0.00000000000E+00 -0.43984853119E+03  0.43984853119E+03  0.00000000000E+00 0.  1.
         25    1    1    2    0    0  0.85550341470E+02  0.12981525538E+03 -0.25465038144E+03  0.32348520557E+03  0.12500000000E+03 0.  0.
         25    1    1    2    0    0 -0.85550341470E+02 -0.12981525538E+03 -0.84797738017E+02  0.21676373734E+03  0.12500000000E+03 0.  0.
</event>
<event>
 4    0  0.2219362E-002  0.2887378E+03  0.7546771E-02  0.1091010E+00
         21   -1    0    0  502  501  0.00000000000E+00  0.00000000000E+00  0.23857666342E+03  0.23857666342E+03  0.00000000000E+00 0. -1.
         21   -1    0    0  501  502 -0.00000000000E+00 -0.00000000000E+00 -0.34944545934E+03  0.34944545934E+03  0.00000000000E+00 0. -1.
         25    1    1    2    0    0 -0.50116923175E+02  0.25027829825E+03 -0.35769168199E+01  0.28423357806E+03  0.12500000000E+03 0.  0.
         25    1    1    2    0    0  0.50116923175E+02 -0.25027829825E+03 -0.10729187910E+03  0.30378854469E+03  0.12500000000E+03 0.  0.
</event>
<event>
 4    0  0.2219362E-002  0.2762219E+03  0.7546771E-02  0.1097771E+00
         21   -1    0    0  502  501  0.00000000000E+00  0.00000000000E+00  0.27329764637E+02  0.27329764637E+02  0.00000000000E+00 0. -1.
         21   -1    0    0  501  502 -0.00000000000E+00 -0.00000000000E+00 -0.27917753762E+04  0.27917753762E+04  0.00000000000E+00 0. -1.
         25    1    1    2    0    0 -0.17825770928E+03  0.12240111100E+03 -0.19841943375E+04  0.19998524976E+04  0.12500000000E+03 0.  0.
         25    1    1    2    0    0  0.17825770928E+03 -0.12240111100E+03 -0.78025127403E+03  0.81925264328E+03  0.12500000000E+03 0.  0.
</event>
<event>
 4    0  0.2219362E-002  0.2248270E+03  0.7546771E-02  0.1130335E+00
         21   -1    0    0  502  501  0.00000000000E+00  0.00000000000E+00  0.55431689011E+02  0.55431689011E+02  0.00000000000E+00 0. -1.
         21   -1    0    0  501  502 -0.00000000000E+00 -0.00000000000E+00 -0.91188229453E+03  0.91188229453E+03  0.00000000000E+00 0. -1.
         25    1    1    2    0    0 -0.43444694444E+02  0.10329210391E+03 -0.10650527960E+03  0.19880914161E+03  0.12500000000E+03 0.  0.
         25    1    1    2    0    0  0.43444694444E+02 -0.10329210391E+03 -0.74994532592E+03  0.76850484193E+03  0.12500000000E+03 0.  0.
</event>
<event>
 4    0  0.2219362E-002  0.1813331E+03  0.7546771E-02  0.1166519E+00
         21   -1    0    0  502  501  0.00000000000E+00  0.00000000000E+00  0.19022164187E+03  0.19022164187E+03  0.00000000000E+00 0. -1.
         21   -1    0    0  501  502 -0.00000000000E+00 -0.00000000000E+00 -0.17285998060E+03  0.17285998060E+03  0.00000000000E+00 0. -1.
         25    1    1    2    0    0  0.28980323667E+02 -0.61569081571E+02  0.12117542731E+03  0.18692002340E+03  0.12500000000E+03 0.  0.
         25    1    1    2    0    0 -0.28980323667E+02  0.61569081571E+02 -0.10381376604E+03  0.17616159907E+03  0.12500000000E+03 0.  0.
</event>
<event>
 4    0  0.2219362E-002  0.3656569E+03  0.7546771E-02  0.1056366E+00
         21   -1    0    0  502  501  0.00000000000E+00  0.00000000000E+00  0.45846142041E+03  0.45846142041E+03  0.00000000000E+00 0. -1.
         21   -1    0    0  501  502 -0.00000000000E+00 -0.00000000000E+00 -0.29163835886E+03  0.29163835886E+03  0.00000000000E+00 0.  1.
         25    1    1    2    0    0 -0.48820313690E+02  0.33992103990E+03  0.70841102529E+02  0.37225421180E+03  0.12500000000E+03 0.  0.
         25    1    1    2    0    0  0.48820313690E+02 -0.33992103990E+03  0.95981959020E+02  0.37784556746E+03  0.12500000000E+03 0.  0.
</event>
<event>
 4    0  0.2219362E-002  0.3393639E+03  0.7546771E-02  0.1067067E+00
         21   -1    0    0  502  501  0.00000000000E+00  0.00000000000E+00  0.60078016384E+03  0.60078016384E+03  0.00000000000E+00 0.  1.
         21   -1    0    0  501  502 -0.00000000000E+00 -0.00000000000E+00 -0.19169720175E+03  0.19169720175E+03  0.00000000000E+00 0. -1.
         25    1    1    2    0    0 -0.25068239732E+03  0.25901034714E+01  0.42820322084E+03  0.51169460746E+03  0.12500000000E+03 0.  0.
         25    1    1    2    0    0  0.25068239732E+03 -0.25901034714E+01 -0.19120258749E+02  0.28078275812E+03  0.12500000000E+03 0.  0.
</event>
<event>
 4    0  0.2219362E-002  0.2569855E+03  0.7546771E-02  0.1108968E+00
         21   -1    0    0  502  501  0.00000000000E+00  0.00000000000E+00  0.25880363042E+03  0.25880363042E+03  0.00000000000E+00 0.  1.
         21   -1    0    0  501  502 -0.00000000000E+00 -0.00000000000E+00 -0.25518011837E+03  0.25518011837E+03  0.00000000000E+00 0.  1.
         25    1    1    2    0    0  0.14880118290E+03  0.16205451908E+03  0.46680251816E+02  0.25730819089E+03  0.12500000000E+03 0.  0.
         25    1    1    2    0    0 -0.14880118290E+03 -0.16205451908E+03 -0.43056739763E+02  0.25667555791E+03  0.12500000000E+03 0.  0.
</event>
<event>
 4    0  0.2219362E-002  0.2837246E+03  0.7546771E-02  0.1093672E+00
         21   -1    0    0  502  501  0.00000000000E+00  0.00000000000E+00  0.92022412817E+03  0.92022412817E+03  0.00000000000E+00 0.  1.
         21   -1    0    0  501  502 -0.00000000000E+00 -0.00000000000E+00 -0.87478325029E+02  0.87478325029E+02  0.00000000000E+00 0.  1.
         25    1    1    2    0    0  0.75332566248E+02  0.11807777197E+03  0.79416219789E+03  0.81604898893E+03  0.12500000000E+03 0.  0.
         25    1    1    2    0    0 -0.75332566248E+02 -0.11807777197E+03  0.38583605246E+02  0.19165346427E+03  0.12500000000E+03 0.  0.
</event>
<event>
 4    0  0.2219362E-002  0.1932990E+03  0.7546771E-02  0.1155519E+00
         21   -1    0    0  502  501  0.00000000000E+00  0.00000000000E+00  0.78005044118E+02  0.78005044118E+02  0.00000000000E+00 0.  1.
         21   -1    0    0  501  502 -0.00000000000E+00 -0.00000000000E+00 -0.47900090862E+03  0.47900090862E+03  0.00000000000E+00 0.  1.
         25    1    1    2    0    0  0.85388071415E+02  0.11301414497E+03 -0.14151056518E+03  0.23603719995E+03  0.12500000000E+03 0.  0.
         25    1    1    2    0    0 -0.85388071415E+02 -0.11301414497E+03 -0.25948529932E+03  0.32096875279E+03  0.12500000000E+03 0.  0.
</event>
<event>
 4    0  0.2219362E-002  0.1791136E+03  0.7546771E-02  0.1168664E+00
         21   -1    0    0  502  501  0.00000000000E+00  0.00000000000E+00  0.43881341102E+02  0.43881341102E+02  0.00000000000E+00 0.  1.
         21   -1    0    0  501  502 -0.00000000000E+00 -0.00000000000E+00 -0.73110053190E+03  0.73110053190E+03  0.00000000000E+00 0.  1.
         25    1    1    2    0    0  0.34133055830E+02  0.69182251682E+02 -0.56534743494E+03  0.58411811446E+03  0.12500000000E+03 0.  0.
         25    1    1    2    0    0 -0.34133055830E+02 -0.69182251682E+02 -0.12187175585E+03  0.19086375854E+03  0.12500000000E+03 0.  0.
</event>
<event>
 4    0  0.2219362E-002  0.3082541E+03  0.7546771E-02  0.1081186E+00
         21   -1    0    0  502  501  0.00000000000E+00  0.00000000000E+00  0.60168045506E+03  0.60168045506E+03  0.00000000000E+00 0.  1.
         21   -1    0    0  501  502 -0.00000000000E+00 -0.00000000000E+00 -0.15792534051E+03  0.15792534051E+03  0.00000000000E+00 0.  1.
         25    1    1    2    0    0 -0.26619138118E+03  0.89741621204E+02  0.19476608078E+03  0.36396460847E+03  0.12500000000E+03 0.  0.
         25    1    1    2    0    0  0.26619138118E+03 -0.89741621204E+02  0.24898903377E+03  0.39564118710E+03  0.12500000000E+03 0.  0.
</event>
<event>
 4    0  0.2219362E-002  0.2361412E+03  0.7546771E-02  0.1122390E+00
         21   -1    0    0  502  501  0.00000000000E+00  0.00000000000E+00  0.40419947747E+02  0.40419947747E+02  0.00000000000E+00 0.  1.
         21   -1    0    0  501  502 -0.00000000000E+00 -0.00000000000E+00 -0.13795834019E+04  0.13795834019E+04  0.00000000000E+00 0.  1.
         25    1    1    2    0    0  0.51261642324E+02  0.18992597250E+03 -0.78360033191E+03  0.81752927237E+03  0.12500000000E+03 0.  0.
         25    1    1    2    0    0 -0.51261642324E+02 -0.18992597250E+03 -0.55556312225E+03  0.60247407729E+03  0.12500000000E+03 0.  0.
</event>
<event>
 4    0  0.2219362E-002  0.2614077E+03  0.7546771E-02  0.1106300E+00
         21   -1    0    0  502  501  0.00000000000E+00  0.00000000000E+00  0.19444529114E+03  0.19444529114E+03  0.00000000000E+00 0.  1.
         21   -1    0    0  501  502 -0.00000000000E+00 -0.00000000000E+00 -0.35143032626E+03  0.35143032626E+03  0.00000000000E+00 0.  1.
         25    1    1    2    0    0 -0.39789498813E+02 -0.15909810191E+03  0.89260111242E+02  0.22469485465E+03  0.12500000000E+03 0.  0.
         25    1    1    2    0    0  0.39789498813E+02  0.15909810191E+03 -0.24624514636E+03  0.32118076274E+03  0.12500000000E+03 0.  0.
</event>
<event>
 4    0  0.2219362E-002  0.2227813E+03  0.7546771E-02  0.1131826E+00
         21   -1    0    0  502  501  0.00000000000E+00  0.00000000000E+00  0.10125025533E+04  0.10125025533E+04  0.00000000000E+00 0. -1.
         21   -1    0    0  501  502 -0.00000000000E+00 -0.00000000000E+00 -0.49018643378E+02  0.49018643378E+02  0.00000000000E+00 0. -1.
         25    1    1    2    0    0 -0.14309053389E+03 -0.75507567046E+02  0.27092447517E+03  0.33941326553E+03  0.12500000000E+03 0.  0.
         25    1    1    2    0    0  0.14309053389E+03  0.75507567046E+02  0.69255943480E+03  0.72210793120E+03  0.12500000000E+03 0.  0.
</event>
<event>
 4    0  0.2219362E-002  0.1892614E+03  0.7546771E-02  0.1159129E+00
         21   -1    0    0  502  501  0.00000000000E+00  0.00000000000E+00  0.73793739015E+02  0.73793739015E+02  0.00000000000E+00 0. -1.
         21   -1    0    0  501  502 -0.00000000000E+00 -0.00000000000E+00 -0.48540537985E+03  0.48540537985E+03  0.00000000000E+00 0. -1.
         25    1    1    2    0    0  0.13679694566E+03 -0.31447525397E+02 -0.17301975270E+03  0.25546660451E+03  0.12500000000E+03 0.  0.
         25    1    1    2    0    0 -0.13679694566E+03  0.31447525397E+02 -0.23859188813E+03  0.30373251436E+03  0.12500000000E+03 0.  0.
</event>
<event>
 4    0  0.2219362E-002  0.3539064E+03  0.7546771E-02  0.1061023E+00
         21   -1    0    0  502  501  0.00000000000E+00  0.00000000000E+00  0.14353074716E+03  0.14353074716E+03  0.00000000000E+00 0. -1.
         21   -1    0    0  501  502 -0.00000000000E+00 -0.00000000000E+00 -0.87263367060E+03  0.87263367060E+03  0.00000000000E+00 0. -1.
         25    1    1    2    0    0  0.14242242807E+03 -0.26359743055E+03 -0.16224840178E+03  0.36292877716E+03  0.12500000000E+03 0.  0.
         25    1    1    2    0    0 -0.14242242807E+03  0.26359743055E+03 -0.56685452167E+03  0.65323564060E+03  0.12500000000E+03 0.  0.
</event>
<event>
 4    0  0.2219362E-002  0.2445657E+03  0.7546771E-02  0.1116788E+00
         21   -1    0    0  502  501  0.00000000000E+00  0.00000000000E+00  0.33760515241E+03  0.33760515241E+03  0.00000000000E+00 0.  1.
         21   -1    0    0  501  502 -0.00000000000E+00 -0.00000000000E+00 -0.17716664554E+03  0.17716664554E+03  0.00000000000E+00 0.  1.
         25    1    1    2    0    0 -0.82139048563E+02  0.15642405005E+03  0.20008464397E+03  0.29474424758E+03  0.12500000000E+03 0.  0.
         25    1    1    2    0    0  0.82139048563E+02 -0.15642405005E+03 -0.39646137103E+02  0.22002755037E+03  0.12500000000E+03 0.  0.
</event>
<event>
 4    0  0.2219362E-002  0.1599471E+03  0.7546771E-02  0.1188756E+00
         21   -1    0    0  502  501  0.00000000000E+00  0.00000000000E+00  0.27438405521E+02  0.27438405521E+02  0.00000000000E+00 0. -1.
         21   -1    0    0  501  502 -0.00000000000E+00 -0.00000000000E+00 -0.93238220336E+03  0.93238220336E+03  0.00000000000E+00 0. -1.
         25    1    1    2    0    0 -0.69629559507E+02 -0.57270278975E+01 -0.23868183570E+03  0.27834348043E+03  0.12500000000E+03 0.  0.
         25    1    1    2    0    0  0.69629559507E+02  0.57270278975E+01 -0.66626196214E+03  0.68147712845E+03  0.12500000000E+03 0.  0.
</event>
<event>
 4    0  0.2219362E-002  0.3220261E+03  0.7546771E-02  0.1074721E+00
         21   -1    0    0  502  501  0.00000000000E+00  0.00000000000E+00  0.43507296818E+03  0.43507296818E+03  0.00000000000E+00 0.  1.
         21   -1    0    0  501  502 -0.00000000000E+00 -0.00000000000E+00 -0.23835262511E+03  0.23835262511E+03  0.00000000000E+00 0.  1.
         25    1    1    2    0    0 -0.26060987226E+03  0.28683911547E+02 -0.47033812683E+02  0.29424046601E+03  0.12500000000E+03 0.  0.
         25    1    1    2    0    0  0.26060987226E+03 -0.28683911547E+02  0.24375415575E+03  0.37918512728E+03  0.12500000000E+03 0.  0.
</event>
<event>
 4    0  0.2219362E-002  0.1940942E+03  0.7546771E-02  0.1154820E+00
         21   -1    0    0  502  501  0.00000000000E+00  0.00000000000E+00  0.34122171881E+03  0.34122171881E+03  0.00000000000E+00 0. -1.
         21   -1    0    0  501  502 -0.00000000000E+00 -0.00000000000E+00 -0.11040497359E+03  0.11040497359E+03  0.00000000000E+00 0.  1.
         25    1    1    2    0    0 -0.10367233220E+03 -0.69530079541E+02  0.21861857197E+02  0.17800372250E+03  0.12500000000E+03 0.  0.
         25    1    1    2    0    0  0.10367233220E+03  0.69530079541E+02  0.20895488803E+03  0.27362296990E+03  0.12500000000E+03 0.  0.
</event>
<event>
 4    0  0.2219362E-002  0.1954860E+03  0.7546771E-02  0.1153604E+00
         21   -1    0    0  502  501  0.00000000000E+00  0.00000000000E+00  0.24217581080E+03  0.24217581080E+03  0.00000000000E+00 0.  1.
         21   -1    0    0  501  502 -0.00000000000E+00 -0.00000000000E+00 -0.15779762628E+03  0.15779762628E+03  0.00000000000E+00 0.  1.
         25    1    1    2    0    0  0.56033738845E+02 -0.13946171528E+03  0.42850639323E+02  0.20012627816E+03  0.12500000000E+03 0.  0.
         25    1    1    2    0    0 -0.56033738845E+02  0.13946171528E+03  0.41527545192E+02  0.19984715892E+03  0.12500000000E+03 0.  0.
</event>
<event>
 4    0  0.2219362E-002  0.2745188E+03  0.7546771E-02  0.1098721E+00
         21   -1    0    0  502  501  0.00000000000E+00  0.00000000000E+00  0.16913921018E+03  0.16913921018E+03  0.00000000000E+00 0. -1.
         21   -1    0    0  501  502 -0.00000000000E+00 -0.00000000000E+00 -0.44555341050E+03  0.44555341050E+03  0.00000000000E+00 0. -1.
         25    1    1    2    0    0 -0.73056576493E+02 -0.15413175416E+03  0.57773161168E+02  0.21921815426E+03  0.12500000000E+03 0.  0.
         25    1    1    2    0    0  0.73056576493E+02  0.15413175416E+03 -0.33418736149E+03  0.39547446642E+03  0.12500000000E+03 0.  0.
</event>
<event>
 4    0  0.2219362E-002  0.1781851E+03  0.7546771E-02  0.1169571E+00
         21   -1    0    0  502  501  0.00000000000E+00  0.00000000000E+00  0.78510612034E+02  0.78510612034E+02  0.00000000000E+00 0.  1.
         21   -1    0    0  501  502 -0.00000000000E+00 -0.00000000000E+00 -0.40440323347E+03  0.40440323347E+03  0.00000000000E+00 0.  1.
         25    1    1    2    0    0  0.11887434391E+03 -0.30259875708E+02 -0.20744148685E+03  0.27148432769E+03  0.12500000000E+03 0.  0.
         25    1    1    2    0    0 -0.11887434391E+03  0.30259875708E+02 -0.11845113459E+03  0.21142951781E+03  0.12500000000E+03 0.  0.
</event>
<event>
 4    0  0.2219362E-002  0.1900506E+03  0.7546771E-02  0.1158416E+00
         21   -1    0    0  502  501  0.00000000000E+00  0.00000000000E+00  0.71068545808E+03  0.71068545808E+03  0.00000000000E+00 0. -1.
         21   -1    0    0  501  502 -0.00000000000E+00 -0.00000000000E+00 -0.50823098543E+02  0.50823098543E+02  0.00000000000E+00 0. -1.
         25    1    1    2    0    0  0.67703754510E+02  0.10515345997E+03  0.19036214018E+03  0.25981492053E+03  0.12500000000E+03 0.  0.
         25    1    1    2    0    0 -0.67703754510E+02 -0.10515345997E+03  0.46950021936E+03  0.50169363609E+03  0.12500000000E+03 0.  0.
</event>
<event>
 4    0  0.2219362E-002  0.1814224E+03  0.7546771E-02  0.1166434E+00
         21   -1    0    0  502  501  0.00000000000E+00  0.00000000000E+00  0.63431759636E+03  0.63431759636E+03  0.00000000000E+00 0.  1.
         21   -1    0    0  501  502 -0.00000000000E+00 -0.00000000000E+00 -0.51888958222E+02  0.51888958222E+02  0.00000000000E+00 0.  1.
         25    1    1    2    0    0 -0.98763772886E+01  0.44941599670E+02  0.58269846951E+02  0.14538798187E+03  0.12500000000E+03 0.  0.
         25    1    1    2    0    0  0.98763772886E+01 -0.44941599670E+02  0.52415879118E+03  0.54081857271E+03  0.12500000000E+03 0.  0.
</event>
<event>
 4    0  0.2219362E-002  0.2012945E+03  0.7546771E-02  0.1148651E+00
         21   -1    0    0  502  501  0.00000000000E+00  0.00000000000E+00  0.33338295314E+02  0.33338295314E+02  0.00000000000E+00 0. -1.
         21   -1    0    0  501  502 -0.00000000000E+00 -0.00000000000E+00 -0.12154029602E+04  0.12154029602E+04  0.00000000000E+00 0. -1.
         25    1    1    2    0    0 -0.12221276498E+03  0.30407913314E+02 -0.88584581674E+03  0.90344253395E+03  0.12500000000E+03 0.  0.
         25    1    1    2    0    0  0.12221276498E+03 -0.30407913314E+02 -0.29621884813E+03  0.34529872155E+03  0.12500000000E+03 0.  0.
</event>
<event>
 4    0  0.2219362E-002  0.1900414E+03  0.7546771E-02  0.1158424E+00
         21   -1    0    0  502  501  0.00000000000E+00  0.00000000000E+00  0.10975114263E+03  0.10975114263E+03  0.00000000000E+00 0.  1.
         21   -1    0    0  501  502 -0.00000000000E+00 -0.00000000000E+00 -0.32906923571E+03  0.32906923571E+03  0.00000000000E+00 0.  1.
         25    1    1    2    0    0 -0.54025821178E+02  0.11964866184E+03 -0.17553997219E+03  0.25233682544E+03  0.12500000000E+03 0.  0.
         25    1    1    2    0    0  0.54025821178E+02 -0.11964866184E+03 -0.43778120890E+02  0.18648355290E+03  0.12500000000E+03 0.  0.
</event>
<event>
 4    0  0.2219362E-002  0.2206268E+03  0.7546771E-02  0.1133417E+00
         21   -1    0    0  502  501  0.00000000000E+00  0.00000000000E+00  0.64800448917E+02  0.64800448917E+02  0.00000000000E+00 0. -1.
         21   -1    0    0  501  502 -0.00000000000E+00 -0.00000000000E+00 -0.75117032949E+03  0.75117032949E+03  0.00000000000E+00 0. -1.
         25    1    1    2    0    0  0.81511108052E+02  0.11765959212E+03 -0.55045608550E+03  0.58233559261E+03  0.12500000000E+03 0.  0.
         25    1    1    2    0    0 -0.81511108052E+02 -0.11765959212E+03 -0.13591379507E+03  0.23363518580E+03  0.12500000000E+03 0.  0.
</event>
<event>
 4    0  0.2219362E-002  0.2019951E+03  0.7546771E-02  0.1148067E+00
         21   -1    0    0  502  501  0.00000000000E+00  0.00000000000E+00  0.34240157807E+03  0.34240157807E+03  0.00000000000E+00 0.  1.
         21   -1    0    0  501  502 -0.00000000000E+00 -0.00000000000E+00 -0.11916423737E+03  0.11916423737E+03  0.00000000000E+00 0.  1.
         25    1    1    2    0    0 -0.42773901854E+02 -0.80047934415E+02  0.26032046850E+03  0.30270286554E+03  0.12500000000E+03 0.  0.
         25    1    1    2    0    0  0.42773901854E+02  0.80047934415E+02 -0.37083127801E+02  0.15886294990E+03  0.12500000000E+03 0.  0.
</event>
<event>
 4    0  0.2219362E-002  0.2242222E+03  0.7546771E-02  0.1130774E+00
         21   -1    0    0  502  501  0.00000000000E+00  0.00000000000E+00  0.27884726430E+03  0.27884726430E+03  0.00000000000E+00 0.  1.
         21   -1    0    0  501  502 -0.00000000000E+00 -0.00000000000E+00 -0.18029803448E+03  0.18029803448E+03  0.00000000000E+00 0.  1.
         25    1    1    2    0    0 -0.11883025763E+03  0.12467688754E+03 -0.23019453480E+02  0.21405572091E+03  0.12500000000E+03 0.  0.
         25    1    1    2    0    0  0.11883025763E+03 -0.12467688754E+03  0.12156868330E+03  0.24508957786E+03  0.12500000000E+03 0.  0.
</event>
<event>
 4    0  0.2219362E-002  0.2909845E+03  0.7546771E-02  0.1089836E+00
         21   -1    0    0  502  501  0.00000000000E+00  0.00000000000E+00  0.48595606958E+03  0.48595606958E+03  0.00000000000E+00 0.  1.
         21   -1    0    0  501  502 -0.00000000000E+00 -0.00000000000E+00 -0.17423790106E+03  0.17423790106E+03  0.00000000000E+00 0.  1.
         25    1    1    2    0    0  0.11155864740E+03  0.24417389798E+02 -0.11260536611E+03  0.20333841056E+03  0.12500000000E+03 0.  0.
         25    1    1    2    0    0 -0.11155864740E+03 -0.24417389798E+02  0.42432353463E+03  0.45685556008E+03  0.12500000000E+03 0.  0.
</event>
<event>
 4    0  0.2219362E-002  0.2541262E+03  0.7546771E-02  0.1110725E+00
         21   -1    0    0  502  501  0.00000000000E+00  0.00000000000E+00  0.84624051875E+02  0.84624051875E+02  0.00000000000E+00 0.  1.
         21   -1    0    0  501  502 -0.00000000000E+00 -0.00000000000E+00 -0.76314134445E+03  0.76314134445E+03  0.00000000000E+00 0.  1.
         25    1    1    2    0    0 -0.15583993107E+03  0.41958918388E+02 -0.59171970946E+03  0.62594236916E+03  0.12500000000E+03 0.  0.
         25    1    1    2    0    0  0.15583993107E+03 -0.41958918388E+02 -0.86797583120E+02  0.22182302717E+03  0.12500000000E+03 0.  0.
</event>
<event>
 4    0  0.2219362E-002  0.1856176E+03  0.7546771E-02  0.1162474E+00
         21   -1    0    0  502  501  0.00000000000E+00  0.00000000000E+00  0.18882740456E+03  0.18882740456E+03  0.00000000000E+00 0. -1.
         21   -1    0    0  501  502 -0.00000000000E+00 -0.00000000000E+00 -0.18246230889E+03  0.18246230889E+03  0.00000000000E+00 0. -1.
         25    1    1    2    0    0 -0.41245807325E+02 -0.90956751284E+02 -0.90929831853E+02  0.18403146890E+03  0.12500000000E+03 0.  0.
         25    1    1    2    0    0  0.41245807325E+02  0.90956751284E+02  0.97294927528E+02  0.18725824454E+03  0.12500000000E+03 0.  0.
</event>
<event>
 4    0  0.2219362E-002  0.1837371E+03  0.7546771E-02  0.1164235E+00
         21   -1    0    0  502  501  0.00000000000E+00  0.00000000000E+00  0.14278771074E+04  0.14278771074E+04  0.00000000000E+00 0.  1.
         21   -1    0    0  501  502 -0.00000000000E+00 -0.00000000000E+00 -0.23643009683E+02  0.23643009683E+02  0.00000000000E+00 0.  1.
         25    1    1    2    0    0 -0.43013699525E+02  0.93061534363E+02  0.10470055643E+04  0.10594131768E+04  0.12500000000E+03 0.  0.
         25    1    1    2    0    0  0.43013699525E+02 -0.93061534363E+02  0.35722853345E+03  0.39210694031E+03  0.12500000000E+03 0.  0.
</event>
<event>
 4    0  0.2219362E-002  0.2360875E+03  0.7546771E-02  0.1122427E+00
         21   -1    0    0  502  501  0.00000000000E+00  0.00000000000E+00  0.19545860355E+03  0.19545860355E+03  0.00000000000E+00 0. -1.
         21   -1    0    0  501  502 -0.00000000000E+00 -0.00000000000E+00 -0.28516168916E+03  0.28516168916E+03  0.00000000000E+00 0. -1.
         25    1    1    2    0    0  0.17940794934E+03 -0.69001465140E+02  0.12402991192E+02  0.22962414653E+03  0.12500000000E+03 0.  0.
         25    1    1    2    0    0 -0.17940794934E+03  0.69001465140E+02 -0.10210607680E+03  0.25099614618E+03  0.12500000000E+03 0.  0.
</event>
<event>
 4    0  0.2219362E-002  0.1390886E+03  0.7546771E-02  0.1214561E+00
         21   -1    0    0  502  501  0.00000000000E+00  0.00000000000E+00  0.22726839567E+03  0.22726839567E+03  0.00000000000E+00 0.  1.
         21   -1    0    0  501  502 -0.00000000000E+00 -0.00000000000E+00 -0.85122387268E+02  0.85122387268E+02  0.00000000000E+00 0.  1.
         25    1    1    2    0    0  0.33336848008E+02  0.75734385468E+01  0.14343259090E+02  0.13038186794E+03  0.12500000000E+03 0.  0.
         25    1    1    2    0    0 -0.33336848008E+02 -0.75734385468E+01  0.12780274931E+03  0.18200891499E+03  0.12500000000E+03 0.  0.
</event>
<event>
 4    0  0.2219362E-002  0.2368754E+03  0.7546771E-02  0.1121892E+00
         21   -1    0    0  502  501  0.00000000000E+00  0.00000000000E+00  0.11395527300E+03  0.11395527300E+03  0.00000000000E+00 0.  1.
         21   -1    0    0  501  502 -0.00000000000E+00 -0.00000000000E+00 -0.49238591995E+03  0.49238591995E+03  0.00000000000E+00 0.  1.
         25    1    1    2    0    0 -0.20012806358E+03 -0.20187148350E+02 -0.19576761808E+03  0.30726002519E+03  0.12500000000E+03 0.  0.
         25    1    1    2    0    0  0.20012806358E+03  0.20187148350E+02 -0.18266302887E+03  0.29908116776E+03  0.12500000000E+03 0.  0.
</event>
<event>
 4    0  0.2219362E-002  0.1607079E+03  0.7546771E-02  0.1187900E+00
         21   -1    0    0  502  501  0.00000000000E+00  0.00000000000E+00  0.52392166828E+03  0.52392166828E+03  0.00000000000E+00 0.  1.
         21   -1    0    0  501  502 -0.00000000000E+00 -0.00000000000E+00 -0.49295619299E+02  0.49295619299E+02  0.00000000000E+00 0.  1.
         25    1    1    2    0    0 -0.78360736375E+02  0.55275502741E+02  0.18074039375E+03  0.23976629484E+03  0.12500000000E+03 0.  0.
         25    1    1    2    0    0  0.78360736375E+02 -0.55275502741E+02  0.29388565523E+03  0.33345099274E+03  0.12500000000E+03 0.  0.
</event>
<event>
 4    0  0.2219362E-002  0.2865162E+03  0.7546771E-02  0.1092182E+00
         21   -1    0    0  502  501  0.00000000000E+00  0.00000000000E+00  0.15639386460E+03  0.15639386460E+03  0.00000000000E+00 0. -1.
         21   -1    0    0  501  502 -0.00000000000E+00 -0.00000000000E+00 -0.52490267006E+03  0.52490267006E+03  0.00000000000E+00 0. -1.
         25    1    1    2    0    0 -0.18563225540E+02 -0.11399002811E+03  0.89789182689E+02  0.19241989809E+03  0.12500000000E+03 0.  0.
         25    1    1    2    0    0  0.18563225540E+02  0.11399002811E+03 -0.45829798814E+03  0.48887663657E+03  0.12500000000E+03 0.  0.
</event>
<event>
 4    0  0.2219362E-002  0.1846897E+03  0.7546771E-02  0.1163340E+00
         21   -1    0    0  502  501  0.00000000000E+00  0.00000000000E+00  0.21024843014E+03  0.21024843014E+03  0.00000000000E+00 0.  1.
         21   -1    0    0  501  502 -0.00000000000E+00 -0.00000000000E+00 -0.16223807256E+03  0.16223807256E+03  0.00000000000E+00 0.  1.
         25    1    1    2    0    0  0.10377153769E+03  0.38919994446E+02  0.10342039599E+03  0.19647920070E+03  0.12500000000E+03 0.  0.
         25    1    1    2    0    0 -0.10377153769E+03 -0.38919994446E+02 -0.55410038407E+02  0.17600730200E+03  0.12500000000E+03 0.  0.
</event>
<event>
 4    0  0.2219362E-002  0.2539873E+03  0.7546771E-02  0.1110811E+00
         21   -1    0    0  502  501  0.00000000000E+00  0.00000000000E+00  0.12419012851E+04  0.12419012851E+04  0.00000000000E+00 0. -1.
         21   -1    0    0  501  502 -0.00000000000E+00 -0.00000000000E+00 -0.51944186498E+02  0.51944186498E+02  0.00000000000E+00 0. -1.
         25    1    1    2    0    0  0.20267339474E+03  0.61075506793E+02  0.75762887350E+03  0.79651317154E+03  0.12500000000E+03 0.  0.
         25    1    1    2    0    0 -0.20267339474E+03 -0.61075506793E+02  0.43232822509E+03  0.49733230005E+03  0.12500000000E+03 0.  0.
</event>
<event>
 4    0  0.2219362E-002  0.2102673E+03  0.7546771E-02  0.1141354E+00
         21   -1    0    0  502  501  0.00000000000E+00  0.00000000000E+00  0.67364201641E+03  0.67364201641E+03  0.00000000000E+00 0.  1.
         21   -1    0    0  501  502 -0.00000000000E+00 -0.00000000000E+00 -0.65631794013E+02  0.65631794013E+02  0.00000000000E+00 0.  1.
         25    1    1    2    0    0  0.47376246873E+02  0.15286809698E+03  0.20813427522E+03  0.29078865240E+03  0.12500000000E+03 0.  0.
         25    1    1    2    0    0 -0.47376246873E+02 -0.15286809698E+03  0.39987594717E+03  0.44848515802E+03  0.12500000000E+03 0.  0.
</event>
<event>
 4    0  0.2219362E-002  0.2700079E+03  0.7546771E-02  0.1101275E+00
         21   -1    0    0  502  501  0.00000000000E+00  0.00000000000E+00  0.10503356741E+03  0.10503356741E+03  0.00000000000E+00 0. -1.
         21   -1    0    0  501  502 -0.00000000000E+00 -0.00000000000E+00 -0.69410434706E+03  0.69410434706E+03  0.00000000000E+00 0. -1.
         25    1    1    2    0    0 -0.19028973918E+03  0.83879391783E+02 -0.11922991021E+03  0.27034553574E+03  0.12500000000E+03 0.  0.
         25    1    1    2    0    0  0.19028973918E+03 -0.83879391783E+02 -0.46984086945E+03  0.52879237873E+03  0.12500000000E+03 0.  0.
</event>
<event>
 4    0  0.2219362E-002  0.3921386E+03  0.7546771E-02  0.1046536E+00
         21   -1    0    0  502  501  0.00000000000E+00  0.00000000000E+00  0.18956196948E+03  0.18956196948E+03  0.00000000000E+00 0.  1.
         21   -1    0    0  501  502 -0.00000000000E+00 -0.00000000000E+00 -0.81119987909E+03  0.81119987909E+03  0.00000000000E+00 0.  1.
         25    1    1    2    0    0 -0.27819960189E+03  0.82333996649E+02 -0.14368267536E+02  0.31623622912E+03  0.12500000000E+03 0.  0.
         25    1    1    2    0    0  0.27819960189E+03 -0.82333996649E+02 -0.60726964207E+03  0.68452561945E+03  0.12500000000E+03 0.  0.
</event>
<event>
 4    0  0.2219362E-002  0.2088138E+03  0.7546771E-02  0.1142509E+00
         21   -1    0    0  502  501  0.00000000000E+00  0.00000000000E+00  0.19010899658E+03  0.19010899658E+03  0.00000000000E+00 0. -1.
         21   -1    0    0  501  502 -0.00000000000E+00 -0.00000000000E+00 -0.22935890078E+03  0.22935890078E+03  0.00000000000E+00 0. -1.
         25    1    1    2    0    0  0.10482533990E+03 -0.13029013630E+03 -0.15824234071E+02  0.20937831284E+03  0.12500000000E+03 0.  0.
         25    1    1    2    0    0 -0.10482533990E+03  0.13029013630E+03 -0.23425670135E+02  0.21008958452E+03  0.12500000000E+03 0.  0.
</event>
<event>
 4    0  0.2219362E-002  0.1741265E+03  0.7546771E-02  0.1173612E+00
         21   -1    0    0  502  501  0.00000000000E+00  0.00000000000E+00  0.98870192918E+02  0.98870192918E+02  0.00000000000E+00 0.  1.
         21   -1    0    0  501  502 -0.00000000000E+00 -0.00000000000E+00 -0.30666500860E+03  0.30666500860E+03  0.00000000000E+00 0.  1.
         25    1    1    2    0    0  0.44839823045E+02  0.98862263018E+02 -0.16672210114E+03  0.23495875338E+03  0.12500000000E+03 0.  0.
         25    1    1    2    0    0 -0.44839823045E+02 -0.98862263018E+02 -0.41072714540E+02  0.17057644814E+03  0.12500000000E+03 0.  0.
</event>
<event>
 4    0  0.2219362E-002  0.2188593E+03  0.7546771E-02  0.1134736E+00
         21   -1    0    0  502  501  0.00000000000E+00  0.00000000000E+00  0.87375785296E+03  0.87375785296E+03  0.00000000000E+00 0.  1.
         21   -1    0    0  501  502 -0.00000000000E+00 -0.00000000000E+00 -0.54819979694E+02  0.54819979694E+02  0.00000000000E+00 0.  1.
         25    1    1    2    0    0 -0.75429108934E+02  0.16186985891E+03  0.36795300210E+03  0.42767489224E+03  0.12500000000E+03 0.  0.
         25    1    1    2    0    0  0.75429108934E+02 -0.16186985891E+03  0.45098487117E+03  0.50090294042E+03  0.12500000000E+03 0.  0.
</event>
<event>
 4    0  0.2219362E-002  0.4873821E+03  0.7546771E-02  0.1017126E+00
         21   -1    0    0  502  501  0.00000000000E+00  0.00000000000E+00  0.16325703023E+04  0.16325703023E+04  0.00000000000E+00 0. -1.
         21   -1    0    0  501  502 -0.00000000000E+00 -0.00000000000E+00 -0.14550140398E+03  0.14550140398E+03  0.00000000000E+00 0. -1.
         25    1    1    2    0    0 -0.14313666441E+03  0.27395190814E+03  0.13919991906E+04  0.14313715448E+04  0.12500000000E+03 0.  0.
         25    1    1    2    0    0  0.14313666441E+03 -0.27395190814E+03  0.95069707780E+02  0.34670016153E+03  0.12500000000E+03 0.  0.
</event>
<event>
 4    0  0.2219362E-002  0.2371296E+03  0.7546771E-02  0.1121720E+00
         21   -1    0    0  502  501  0.00000000000E+00  0.00000000000E+00  0.13837108732E+03  0.13837108732E+03  0.00000000000E+00 0.  1.
         21   -1    0    0  501  502 -0.00000000000E+00 -0.00000000000E+00 -0.40637432262E+03  0.40637432262E+03  0.00000000000E+00 0.  1.
         25    1    1    2    0    0 -0.76335955856E+02 -0.16626234303E+03 -0.36977840985E+02  0.22463905624E+03  0.12500000000E+03 0.  0.
         25    1    1    2    0    0  0.76335955856E+02  0.16626234303E+03 -0.23102539431E+03  0.32010635370E+03  0.12500000000E+03 0.  0.
</event>
<event>
 4    0  0.2219362E-002  0.2616470E+03  0.7546771E-02  0.1106158E+00
         21   -1    0    0  502  501  0.00000000000E+00  0.00000000000E+00  0.82760055987E+03  0.82760055987E+03  0.00000000000E+00 0.  1.
         21   -1    0    0  501  502 -0.00000000000E+00 -0.00000000000E+00 -0.82720038169E+02  0.82720038169E+02  0.00000000000E+00 0.  1.
         25    1    1    2    0    0 -0.18089923721E+03  0.14115194055E+03  0.39614896625E+03  0.47456022569E+03  0.12500000000E+03 0.  0.
         25    1    1    2    0    0  0.18089923721E+03 -0.14115194055E+03  0.34873155545E+03  0.43576037235E+03  0.12500000000E+03 0.  0.
</event>
<event>
 4    0  0.2219362E-002  0.1759772E+03  0.7546771E-02  0.1171754E+00
         21   -1    0    0  502  501  0.00000000000E+00  0.00000000000E+00  0.75279615131E+03  0.75279615131E+03  0.00000000000E+00 0. -1.
         21   -1    0    0  501  502 -0.00000000000E+00 -0.00000000000E+00 -0.41137277793E+02  0.41137277793E+02  0.00000000000E+00 0. -1.
         25    1    1    2    0    0  0.22390147088E+02 -0.10182238523E+03  0.50671204598E+03  0.53221350449E+03  0.12500000000E+03 0.  0.
         25    1    1    2    0    0 -0.22390147088E+02  0.10182238523E+03  0.20494682754E+03  0.26171992461E+03  0.12500000000E+03 0.  0.
</event>
<event>
 4    0  0.2219362E-002  0.2295158E+03  0.7546771E-02  0.1126981E+00
         21   -1    0    0  502  501  0.00000000000E+00  0.00000000000E+00  0.84444434192E+03  0.84444434192E+03  0.00000000000E+00 0. -1.
         21   -1    0    0  501  502 -0.00000000000E+00 -0.00000000000E+00 -0.62381241530E+02  0.62381241530E+02  0.00000000000E+00 0. -1.
         25    1    1    2    0    0  0.53040173131E+02  0.12152589056E+03  0.66669034629E+03  0.69114601921E+03  0.12500000000E+03 0.  0.
         25    1    1    2    0    0 -0.53040173131E+02 -0.12152589056E+03  0.11537275411E+03  0.21567956424E+03  0.12500000000E+03 0.  0.
</event>
<event>
 4    0  0.2219362E-002  0.2187951E+03  0.7546771E-02  0.1134785E+00
         21   -1    0    0  502  501  0.00000000000E+00  0.00000000000E+00  0.20322689415E+04  0.20322689415E+04  0.00000000000E+00 0. -1.
         21   -1    0    0  501  502 -0.00000000000E+00 -0.00000000000E+00 -0.23555588334E+02  0.23555588334E+02  0.00000000000E+00 0. -1.
         25    1    1    2    0    0  0.60205602817E+02  0.34750427227E+02  0.17822222585E+04  0.17879523163E+04  0.12500000000E+03 0.  0.
         25    1    1    2    0    0 -0.60205602817E+02 -0.34750427227E+02  0.22649109469E+03  0.26787221352E+03  0.12500000000E+03 0.  0.
</event>
<event>
 4    0  0.2219362E-002  0.2091201E+03  0.7546771E-02  0.1142265E+00
         21   -1    0    0  502  501  0.00000000000E+00  0.00000000000E+00  0.61033979136E+03  0.61033979136E+03  0.00000000000E+00 0. -1.
         21   -1    0    0  501  502 -0.00000000000E+00 -0.00000000000E+00 -0.71650622141E+02  0.71650622141E+02  0.00000000000E+00 0. -1.
         25    1    1    2    0    0 -0.24192560713E+01 -0.15526116596E+03  0.16628814278E+03  0.25959319884E+03  0.12500000000E+03 0.  0.
         25    1    1    2    0    0  0.24192560713E+01  0.15526116596E+03  0.37240102644E+03  0.42239721466E+03  0.12500000000E+03 0.  0.
</event>
<event>
 4    0  0.2219362E-002  0.2051570E+03  0.7546771E-02  0.1145460E+00
         21   -1    0    0  502  501  0.00000000000E+00  0.00000000000E+00  0.23771526812E+03  0.23771526812E+03  0.00000000000E+00 0.  1.
         21   -1    0    0  501  502 -0.00000000000E+00 -0.00000000000E+00 -0.17705794022E+03  0.17705794022E+03  0.00000000000E+00 0.  1.
         25    1    1    2    0    0 -0.13629493497E+03  0.86537656939E+02  0.50528335675E+02  0.21034064770E+03  0.12500000000E+03 0.  0.
         25    1    1    2    0    0  0.13629493497E+03 -0.86537656939E+02  0.10128992222E+02  0.20443256064E+03  0.12500000000E+03 0.  0.
</event>
<event>
 4    0  0.2219362E-002  0.2262195E+03  0.7546771E-02  0.1129329E+00
         21   -1    0    0  502  501  0.00000000000E+00  0.00000000000E+00  0.46724967380E+03  0.46724967380E+03  0.00000000000E+00 0.  1.
         21   -1    0    0  501  502 -0.00000000000E+00 -0.00000000000E+00 -0.10952440236E+03  0.10952440236E+03  0.00000000000E+00 0.  1.
         25    1    1    2    0    0 -0.77307193306E+01 -0.16452076131E+03  0.29586359036E+03  0.36095305653E+03  0.12500000000E+03 0.  0.
         25    1    1    2    0    0  0.77307193306E+01  0.16452076131E+03  0.61861681083E+02  0.21582101962E+03  0.12500000000E+03 0.  0.
</event>
<event>
 4    0  0.2219362E-002  0.2574813E+03  0.7546771E-02  0.1108666E+00
         21   -1    0    0  502  501  0.00000000000E+00  0.00000000000E+00  0.11135199409E+03  0.11135199409E+03  0.00000000000E+00 0.  1.
         21   -1    0    0  501  502 -0.00000000000E+00 -0.00000000000E+00 -0.59537866342E+03  0.59537866342E+03  0.00000000000E+00 0.  1.
         25    1    1    2    0    0 -0.41784312894E+02  0.26496686454E+02  0.59362279754E+02  0.14695878148E+03  0.12500000000E+03 0.  0.
         25    1    1    2    0    0  0.41784312894E+02 -0.26496686454E+02 -0.54338894909E+03  0.55977187602E+03  0.12500000000E+03 0.  0.
</event>
<event>
 4    0  0.2219362E-002  0.1482925E+03  0.7546771E-02  0.1202587E+00
         21   -1    0    0  502  501  0.00000000000E+00  0.00000000000E+00  0.71032935389E+02  0.71032935389E+02  0.00000000000E+00 0.  1.
         21   -1    0    0  501  502 -0.00000000000E+00 -0.00000000000E+00 -0.30958419220E+03  0.30958419220E+03  0.00000000000E+00 0.  1.
         25    1    1    2    0    0 -0.60196830910E+02  0.18543087994E+02 -0.56429433620E+02  0.15091979838E+03  0.12500000000E+03 0.  0.
         25    1    1    2    0    0  0.60196830910E+02 -0.18543087994E+02 -0.18212182319E+03  0.22969732921E+03  0.12500000000E+03 0.  0.
</event>
<event>
 4    0  0.2219362E-002  0.2228152E+03  0.7546771E-02  0.1131801E+00
         21   -1    0    0  502  501  0.00000000000E+00  0.00000000000E+00  0.50434036792E+03  0.50434036792E+03  0.00000000000E+00 0.  1.
         21   -1    0    0  501  502 -0.00000000000E+00 -0.00000000000E+00 -0.98438707174E+02  0.98438707174E+02  0.00000000000E+00 0.  1.
         25    1    1    2    0    0 -0.14091565085E+03 -0.29585305132E+02  0.35888137202E+03  0.40639063734E+03  0.12500000000E+03 0.  0.
         25    1    1    2    0    0  0.14091565085E+03  0.29585305132E+02  0.47020288730E+02  0.19638843776E+03  0.12500000000E+03 0.  0.
</event>
<event>
 4    0  0.2219362E-002  0.7562638E+03  0.7546771E-02  0.9625574E-01
         21   -1    0    0  502  501  0.00000000000E+00  0.00000000000E+00  0.60470768763E+03  0.60470768763E+03  0.00000000000E+00 0.  1.
         21   -1    0    0  501  502 -0.00000000000E+00 -0.00000000000E+00 -0.94580401667E+03  0.94580401667E+03  0.00000000000E+00 0. -1.
         25    1    1    2    0    0  0.29084492996E+03  0.36324906108E+03  0.42698746055E+03  0.64380427548E+03  0.12500000000E+03 0.  0.
         25    1    1    2    0    0 -0.29084492996E+03 -0.36324906108E+03 -0.76808378958E+03  0.90670742882E+03  0.12500000000E+03 0.  0.
</event>
<event>
 4    0  0.2219362E-002  0.3181345E+03  0.7546771E-02  0.1076511E+00
         21   -1    0    0  502  501  0.00000000000E+00  0.00000000000E+00  0.20210118032E+03  0.20210118032E+03  0.00000000000E+00 0. -1.
         21   -1    0    0  501  502 -0.00000000000E+00 -0.00000000000E+00 -0.50078649612E+03  0.50078649612E+03  0.00000000000E+00 0.  1.
         25    1    1    2    0    0  0.58773858429E+02 -0.26877782383E+03 -0.25919614791E+03  0.39812501568E+03  0.12500000000E+03 0.  0.
         25    1    1    2    0    0 -0.58773858429E+02  0.26877782383E+03 -0.39489167889E+02  0.30476266077E+03  0.12500000000E+03 0.  0.
</event>
<event>
 4    0  0.2219362E-002  0.2415414E+03  0.7546771E-02  0.1118770E+00
         21   -1    0    0  502  501  0.00000000000E+00  0.00000000000E+00  0.98929441072E+02  0.98929441072E+02  0.00000000000E+00 0.  1.
         21   -1    0    0  501  502 -0.00000000000E+00 -0.00000000000E+00 -0.58973583900E+03  0.58973583900E+03  0.00000000000E+00 0.  1.
         25    1    1    2    0    0  0.86091201980E+02 -0.16132363105E+03 -0.10807302325E+03  0.24645849011E+03  0.12500000000E+03 0.  0.
         25    1    1    2    0    0 -0.86091201980E+02  0.16132363105E+03 -0.38273337468E+03  0.44220678997E+03  0.12500000000E+03 0.  0.
</event>
<event>
 4    0  0.2219362E-002  0.2346017E+03  0.7546771E-02  0.1123442E+00
         21   -1    0    0  502  501  0.00000000000E+00  0.00000000000E+00  0.21443089622E+03  0.21443089622E+03  0.00000000000E+00 0. -1.
         21   -1    0    0  501  502 -0.00000000000E+00 -0.00000000000E+00 -0.25666979509E+03  0.25666979509E+03  0.00000000000E+00 0. -1.
         25    1    1    2    0    0  0.18305991396E+03  0.74981395050E+02 -0.43248089649E+01  0.23404453781E+03  0.12500000000E+03 0.  0.
         25    1    1    2    0    0 -0.18305991396E+03 -0.74981395050E+02 -0.37914089904E+02  0.23705615351E+03  0.12500000000E+03 0.  0.
</event>
<event>
 4    0  0.2219362E-002  0.1534164E+03  0.7546771E-02  0.1196337E+00
         21   -1    0    0  502  501  0.00000000000E+00  0.00000000000E+00  0.21471344297E+04  0.21471344297E+04  0.00000000000E+00 0.  1.
         21   -1    0    0  501  502 -0.00000000000E+00 -0.00000000000E+00 -0.10961859278E+02  0.10961859278E+02  0.00000000000E+00 0.  1.
         25    1    1    2    0    0 -0.54600749881E+02 -0.16272143577E+02  0.58766634426E+03  0.60350870476E+03  0.12500000000E+03 0.  0.
         25    1    1    2    0    0  0.54600749881E+02  0.16272143577E+02  0.15485062261E+04  0.15545875842E+04  0.12500000000E+03 0.  0.
</event>
<event>
 4    0  0.2219362E-002  0.2240053E+03  0.7546771E-02  0.1130932E+00
         21   -1    0    0  502  501  0.00000000000E+00  0.00000000000E+00  0.25914182493E+02  0.25914182493E+02  0.00000000000E+00 0. -1.
         21   -1    0    0  501  502 -0.00000000000E+00 -0.00000000000E+00 -0.19363286339E+04  0.19363286339E+04  0.00000000000E+00 0. -1.
         25    1    1    2    0    0 -0.16317567240E+03 -0.88159657157E+02 -0.90068695941E+03  0.92804117585E+03  0.12500000000E+03 0.  0.
         25    1    1    2    0    0  0.16317567240E+03  0.88159657157E+02 -0.10097274920E+04  0.10342016405E+04  0.12500000000E+03 0.  0.
</event>
<event>
 4    0  0.2219362E-002  0.2524512E+03  0.7546771E-02  0.1111765E+00
         21   -1    0    0  502  501  0.00000000000E+00  0.00000000000E+00  0.40224858888E+03  0.40224858888E+03  0.00000000000E+00 0.  1.
         21   -1    0    0  501  502 -0.00000000000E+00 -0.00000000000E+00 -0.15843837480E+03  0.15843837480E+03  0.00000000000E+00 0.  1.
         25    1    1    2    0    0 -0.15232291728E+02  0.11256476614E+03 -0.86451633862E+02  0.18974122980E+03  0.12500000000E+03 0.  0.
         25    1    1    2    0    0  0.15232291728E+02 -0.11256476614E+03  0.33026184794E+03  0.37094573389E+03  0.12500000000E+03 0.  0.
</event>
<event>
 4    0  0.2219362E-002  0.2796658E+03  0.7546771E-02  0.1095872E+00
         21   -1    0    0  502  501  0.00000000000E+00  0.00000000000E+00  0.96626401234E+02  0.96626401234E+02  0.00000000000E+00 0. -1.
         21   -1    0    0  501  502 -0.00000000000E+00 -0.00000000000E+00 -0.80943672203E+03  0.80943672203E+03  0.00000000000E+00 0.  1.
         25    1    1    2    0    0  0.20674110633E+03  0.12714107898E+03 -0.25812069016E+03  0.37571003407E+03  0.12500000000E+03 0.  0.
         25    1    1    2    0    0 -0.20674110633E+03 -0.12714107898E+03 -0.45468963064E+03  0.53035308920E+03  0.12500000000E+03 0.  0.
</event>
<event>
 4    0  0.2219362E-002  0.3414456E+03  0.7546771E-02  0.1066182E+00
         21   -1    0    0  502  501  0.00000000000E+00  0.00000000000E+00  0.51389605177E+03  0.51389605177E+03  0.00000000000E+00 0. -1.
         21   -1    0    0  501  502 -0.00000000000E+00 -0.00000000000E+00 -0.22686519275E+03  0.22686519275E+03  0.00000000000E+00 0.  1.
         25    1    1    2    0    0 -0.26957671534E+03 -0.23943117908E+02 -0.37071398861E+02  0.30040666930E+03  0.12500000000E+03 0.  0.
         25    1    1    2    0    0  0.26957671534E+03  0.23943117908E+02  0.32410225788E+03  0.44035457521E+03  0.12500000000E+03 0.  0.
</event>
<event>
 4    0  0.2219362E-002  0.2596135E+03  0.7546771E-02  0.1107376E+00
         21   -1    0    0  502  501  0.00000000000E+00  0.00000000000E+00  0.35039563560E+02  0.35039563560E+02  0.00000000000E+00 0.  1.
         21   -1    0    0  501  502 -0.00000000000E+00 -0.00000000000E+00 -0.19235165492E+04  0.19235165492E+04  0.00000000000E+00 0.  1.
         25    1    1    2    0    0 -0.80387920542E+02  0.18370694591E+03 -0.13498661050E+04  0.13703919005E+04  0.12500000000E+03 0.  0.
         25    1    1    2    0    0  0.80387920542E+02 -0.18370694591E+03 -0.53861088065E+03  0.58816421219E+03  0.12500000000E+03 0.  0.
</event>
<event>
 4    0  0.2219362E-002  0.2158772E+03  0.7546771E-02  0.1136995E+00
         21   -1    0    0  502  501  0.00000000000E+00  0.00000000000E+00  0.23489450416E+02  0.23489450416E+02  0.00000000000E+00 0. -1.
         21   -1    0    0  501  502 -0.00000000000E+00 -0.00000000000E+00 -0.19839963136E+04  0.19839963136E+04  0.00000000000E+00 0. -1.
         25    1    1    2    0    0  0.15587533492E+03 -0.37206681630E+02 -0.64186838128E+03  0.67327667128E+03  0.12500000000E+03 0.  0.
         25    1    1    2    0    0 -0.15587533492E+03  0.37206681630E+02 -0.13186384819E+04  0.13342090927E+04  0.12500000000E+03 0.  0.
</event>
<event>
 4    0  0.2219362E-002  0.2430490E+03  0.7546771E-02  0.1117778E+00
         21   -1    0    0  502  501  0.00000000000E+00  0.00000000000E+00  0.37631473299E+03  0.37631473299E+03  0.00000000000E+00 0.  1.
         21   -1    0    0  501  502 -0.00000000000E+00 -0.00000000000E+00 -0.15697716745E+03  0.15697716745E+03  0.00000000000E+00 0.  1.
         25    1    1    2    0    0 -0.59374220196E+02 -0.60728749558E+01  0.32877234382E+03  0.35676102911E+03  0.12500000000E+03 0.  0.
         25    1    1    2    0    0  0.59374220196E+02  0.60728749558E+01 -0.10943477828E+03  0.17653087133E+03  0.12500000000E+03 0.  0.
</event>
<event>
 4    0  0.2219362E-002  0.2190011E+03  0.7546771E-02  0.1134630E+00
         21   -1    0    0  502  501  0.00000000000E+00  0.00000000000E+00  0.53169133908E+03  0.53169133908E+03  0.00000000000E+00 0.  1.
         21   -1    0    0  501  502 -0.00000000000E+00 -0.00000000000E+00 -0.90205524611E+02  0.90205524611E+02  0.00000000000E+00 0.  1.
         25    1    1    2    0    0  0.11759157878E+02 -0.10435369132E+03  0.42800444155E+03  0.45808380529E+03  0.12500000000E+03 0.  0.
         25    1    1    2    0    0 -0.11759157878E+02  0.10435369132E+03  0.13481372922E+02  0.16381305840E+03  0.12500000000E+03 0.  0.
</event>
<event>
 4    0  0.2219362E-002  0.4019058E+03  0.7546771E-02  0.1043122E+00
         21   -1    0    0  502  501  0.00000000000E+00  0.00000000000E+00  0.23680176355E+03  0.23680176355E+03  0.00000000000E+00 0.  1.
         21   -1    0    0  501  502 -0.00000000000E+00 -0.00000000000E+00 -0.68212429829E+03  0.68212429829E+03  0.00000000000E+00 0.  1.
         25    1    1    2    0    0  0.20271728656E+03 -0.22896994022E+03 -0.48430850990E+03  0.58626040678E+03  0.12500000000E+03 0.  0.
         25    1    1    2    0    0 -0.20271728656E+03  0.22896994022E+03  0.38985975158E+02  0.33266565506E+03  0.12500000000E+03 0.  0.
</event>
<event>
 4    0  0.2219362E-002  0.1927038E+03  0.7546771E-02  0.1156045E+00
         21   -1    0    0  502  501  0.00000000000E+00  0.00000000000E+00  0.93827439860E+02  0.93827439860E+02  0.00000000000E+00 0.  1.
         21   -1    0    0  501  502 -0.00000000000E+00 -0.00000000000E+00 -0.39577700748E+03  0.39577700748E+03  0.00000000000E+00 0.  1.
         25    1    1    2    0    0  0.11000128400E+03 -0.74311499948E+02 -0.23017877078E+03  0.29364902183E+03  0.12500000000E+03 0.  0.
         25    1    1    2    0    0 -0.11000128400E+03  0.74311499948E+02 -0.71770796840E+02  0.19595542551E+03  0.12500000000E+03 0.  0.
</event>
<event>
 4    0  0.2219362E-002  0.2246216E+03  0.7546771E-02  0.1130484E+00
         21   -1    0    0  502  501  0.00000000000E+00  0.00000000000E+00  0.15114020073E+04  0.15114020073E+04  0.00000000000E+00 0. -1.
         21   -1    0    0  501  502 -0.00000000000E+00 -0.00000000000E+00 -0.33382823160E+02  0.33382823160E+02  0.00000000000E+00 0. -1.
         25    1    1    2    0    0  0.16382873502E+03  0.46479198044E+02  0.47646116920E+03  0.52119134301E+03  0.12500000000E+03 0.  0.
         25    1    1    2    0    0 -0.16382873502E+03 -0.46479198044E+02  0.10015580149E+04  0.10235934874E+04  0.12500000000E+03 0.  0.
</event>
<event>
 4    0  0.2219362E-002  0.1818587E+03  0.7546771E-02  0.1166016E+00
         21   -1    0    0  502  501  0.00000000000E+00  0.00000000000E+00  0.69052378540E+03  0.69052378540E+03  0.00000000000E+00 0. -1.
         21   -1    0    0  501  502 -0.00000000000E+00 -0.00000000000E+00 -0.47894923798E+02  0.47894923798E+02  0.00000000000E+00 0. -1.
         25    1    1    2    0    0 -0.63649824070E+02 -0.10202503626E+03  0.43227509146E+03  0.46577587188E+03  0.12500000000E+03 0.  0.
         25    1    1    2    0    0  0.63649824070E+02  0.10202503626E+03  0.21035377015E+03  0.27264283733E+03  0.12500000000E+03 0.  0.
</event>
<event>
 4    0  0.2219362E-002  0.1648189E+03  0.7546771E-02  0.1183361E+00
         21   -1    0    0  502  501  0.00000000000E+00  0.00000000000E+00  0.11451585837E+03  0.11451585837E+03  0.00000000000E+00 0. -1.
         21   -1    0    0  501  502 -0.00000000000E+00 -0.00000000000E+00 -0.23721828435E+03  0.23721828435E+03  0.00000000000E+00 0. -1.
         25    1    1    2    0    0 -0.77933920501E+02  0.56118116989E+02 -0.99858566056E+01  0.15794827112E+03  0.12500000000E+03 0.  0.
         25    1    1    2    0    0  0.77933920501E+02 -0.56118116989E+02 -0.11271656938E+03  0.19378587160E+03  0.12500000000E+03 0.  0.
</event>
<event>
 4    0  0.2219362E-002  0.2602037E+03  0.7546771E-02  0.1107021E+00
         21   -1    0    0  502  501  0.00000000000E+00  0.00000000000E+00  0.10793744542E+03  0.10793744542E+03  0.00000000000E+00 0. -1.
         21   -1    0    0  501  502 -0.00000000000E+00 -0.00000000000E+00 -0.62727053999E+03  0.62727053999E+03  0.00000000000E+00 0. -1.
         25    1    1    2    0    0 -0.58913978209E+02  0.21560483487E+03 -0.32478637904E+03  0.41360306292E+03  0.12500000000E+03 0.  0.
         25    1    1    2    0    0  0.58913978209E+02 -0.21560483487E+03 -0.19454671553E+03  0.32160492249E+03  0.12500000000E+03 0.  0.
</event>
<event>
 4    0  0.2219362E-002  0.2550045E+03  0.7546771E-02  0.1110182E+00
         21   -1    0    0  502  501  0.00000000000E+00  0.00000000000E+00  0.13338648922E+03  0.13338648922E+03  0.00000000000E+00 0. -1.
         21   -1    0    0  501  502 -0.00000000000E+00 -0.00000000000E+00 -0.48751023060E+03  0.48751023060E+03  0.00000000000E+00 0. -1.
         25    1    1    2    0    0 -0.71882323534E+02 -0.15054649759E+03 -0.35586550265E+03  0.41242765711E+03  0.12500000000E+03 0.  0.
         25    1    1    2    0    0  0.71882323534E+02  0.15054649759E+03  0.17417612667E+01  0.20846906271E+03  0.12500000000E+03 0.  0.
</event>
<event>
 4    0  0.2219362E-002  0.2413308E+03  0.7546771E-02  0.1118909E+00
         21   -1    0    0  502  501  0.00000000000E+00  0.00000000000E+00  0.17015213900E+03  0.17015213900E+03  0.00000000000E+00 0. -1.
         21   -1    0    0  501  502 -0.00000000000E+00 -0.00000000000E+00 -0.34228520269E+03  0.34228520269E+03  0.00000000000E+00 0. -1.
         25    1    1    2    0    0 -0.18740713845E+03  0.79879651148E+02 -0.12149209981E+03  0.26811848971E+03  0.12500000000E+03 0.  0.
         25    1    1    2    0    0  0.18740713845E+03 -0.79879651148E+02 -0.50640963884E+02  0.24431885198E+03  0.12500000000E+03 0.  0.
</event>
<event>
 4    0  0.2219362E-002  0.4384683E+03  0.7546771E-02  0.1031218E+00
         21   -1    0    0  502  501  0.00000000000E+00  0.00000000000E+00  0.16595522158E+03  0.16595522158E+03  0.00000000000E+00 0.  1.
         21   -1    0    0  501  502 -0.00000000000E+00 -0.00000000000E+00 -0.11584720751E+04  0.11584720751E+04  0.00000000000E+00 0. -1.
         25    1    1    2    0    0  0.25470683097E+03 -0.33386668393E+03 -0.52184244185E+03  0.68138613612E+03  0.12500000000E+03 0.  0.
         25    1    1    2    0    0 -0.25470683097E+03  0.33386668393E+03 -0.47067441170E+03  0.64304116058E+03  0.12500000000E+03 0.  0.
</event>
<event>
 4    0  0.2219362E-002  0.2143995E+03  0.7546771E-02  0.1138129E+00
         21   -1    0    0  502  501  0.00000000000E+00  0.00000000000E+00  0.31737847363E+02  0.31737847363E+02  0.00000000000E+00 0.  1.
         21   -1    0    0  501  502 -0.00000000000E+00 -0.00000000000E+00 -0.14483390332E+04  0.14483390332E+04  0.00000000000E+00 0.  1.
         25    1    1    2    0    0 -0.11589071379E+03  0.12936793335E+03 -0.66258135320E+03  0.69627995040E+03  0.12500000000E+03 0.  0.
         25    1    1    2    0    0  0.11589071379E+03 -0.12936793335E+03 -0.75401983267E+03  0.78379693020E+03  0.12500000000E+03 0.  0.
</event>
<event>
 4    0  0.2219362E-002  0.2174468E+03  0.7546771E-02  0.1135801E+00
         21   -1    0    0  502  501  0.00000000000E+00  0.00000000000E+00  0.34624143593E+03  0.34624143593E+03  0.00000000000E+00 0.  1.
         21   -1    0    0  501  502 -0.00000000000E+00 -0.00000000000E+00 -0.13656108435E+03  0.13656108435E+03  0.00000000000E+00 0.  1.
         25    1    1    2    0    0 -0.13174854247E+02 -0.13625726455E+03 -0.21340358173E+02  0.18660125887E+03  0.12500000000E+03 0.  0.
         25    1    1    2    0    0  0.13174854247E+02  0.13625726455E+03  0.23102070976E+03  0.29620126141E+03  0.12500000000E+03 0.  0.
</event>
<event>
 4    0  0.2219362E-002  0.2928872E+03  0.7546771E-02  0.1088851E+00
         21   -1    0    0  502  501  0.00000000000E+00  0.00000000000E+00  0.26427312911E+03  0.26427312911E+03  0.00000000000E+00 0. -1.
         21   -1    0    0  501  502 -0.00000000000E+00 -0.00000000000E+00 -0.32459942669E+03  0.32459942669E+03  0.00000000000E+00 0. -1.
         25    1    1    2    0    0 -0.13620377191E+03 -0.82465210129E+02  0.18263050847E+03  0.27263690320E+03  0.12500000000E+03 0.  0.
         25    1    1    2    0    0  0.13620377191E+03  0.82465210129E+02 -0.24295680606E+03  0.31623565260E+03  0.12500000000E+03 0.  0.
</event>
<event>
 4    0  0.2219362E-002  0.1869031E+03  0.7546771E-02  0.1161285E+00
         21   -1    0    0  502  501  0.00000000000E+00  0.00000000000E+00  0.23495535733E+03  0.23495535733E+03  0.00000000000E+00 0.  1.
         21   -1    0    0  501  502 -0.00000000000E+00 -0.00000000000E+00 -0.14867834408E+03  0.14867834408E+03  0.00000000000E+00 0.  1.
         25    1    1    2    0    0  0.91395237783E+01  0.21054926573E+01  0.18541880316E+03  0.22381487117E+03  0.12500000000E+03 0.  0.
         25    1    1    2    0    0 -0.91395237783E+01 -0.21054926573E+01 -0.99141789909E+02  0.15981883024E+03  0.12500000000E+03 0.  0.
</event>
<event>
 4    0  0.2219362E-002  0.1759555E+03  0.7546771E-02  0.1171776E+00
         21   -1    0    0  502  501  0.00000000000E+00  0.00000000000E+00  0.37438454011E+03  0.37438454011E+03  0.00000000000E+00 0. -1.
         21   -1    0    0  501  502 -0.00000000000E+00 -0.00000000000E+00 -0.82696611059E+02  0.82696611059E+02  0.00000000000E+00 0. -1.
         25    1    1    2    0    0 -0.96359285737E+02  0.70072586705E+02  0.10198856277E+03  0.20055409817E+03  0.12500000000E+03 0.  0.
         25    1    1    2    0    0  0.96359285737E+02 -0.70072586705E+02  0.18969936628E+03  0.25652705300E+03  0.12500000000E+03 0.  0.
</event>
<event>
 4    0  0.2219362E-002  0.2605228E+03  0.7546771E-02  0.1106830E+00
         21   -1    0    0  502  501  0.00000000000E+00  0.00000000000E+00  0.29098203969E+02  0.29098203969E+02  0.00000000000E+00 0.  1.
         21   -1    0    0  501  502 -0.00000000000E+00 -0.00000000000E+00 -0.23325188829E+04  0.23325188829E+04  0.00000000000E+00 0.  1.
         25    1    1    2    0    0  0.15729292096E+01 -0.72181641792E+02 -0.21346838860E+04  0.21395590566E+04  0.12500000000E+03 0.  0.
         25    1    1    2    0    0 -0.15729292096E+01  0.72181641792E+02 -0.16873679292E+03  0.22205803026E+03  0.12500000000E+03 0.  0.
</event>
<event>
 4    0  0.2219362E-002  0.2080382E+03  0.7546771E-02  0.1143129E+00
         21   -1    0    0  502  501  0.00000000000E+00  0.00000000000E+00  0.44608627278E+03  0.44608627278E+03  0.00000000000E+00 0.  1.
         21   -1    0    0  501  502 -0.00000000000E+00 -0.00000000000E+00 -0.97021329659E+02  0.97021329659E+02  0.00000000000E+00 0.  1.
         25    1    1    2    0    0 -0.99490915942E+02 -0.83081052350E+02  0.38542354215E+02  0.18415052724E+03  0.12500000000E+03 0.  0.
         25    1    1    2    0    0  0.99490915942E+02  0.83081052350E+02  0.31052258891E+03  0.35895707520E+03  0.12500000000E+03 0.  0.
</event>
<event>
 4    0  0.2219362E-002  0.2124081E+03  0.7546771E-02  0.1139673E+00
         21   -1    0    0  502  501  0.00000000000E+00  0.00000000000E+00  0.18227103762E+03  0.18227103762E+03  0.00000000000E+00 0. -1.
         21   -1    0    0  501  502 -0.00000000000E+00 -0.00000000000E+00 -0.24752797650E+03  0.24752797650E+03  0.00000000000E+00 0. -1.
         25    1    1    2    0    0 -0.65010765095E+01 -0.44325947423E+02  0.13510252375E+03  0.18943269394E+03  0.12500000000E+03 0.  0.
         25    1    1    2    0    0  0.65010765095E+01  0.44325947423E+02 -0.20035946263E+03  0.24036632018E+03  0.12500000000E+03 0.  0.
</event>
<event>
 4    0  0.2219362E-002  0.2230024E+03  0.7546771E-02  0.1131664E+00
         21   -1    0    0  502  501  0.00000000000E+00  0.00000000000E+00  0.45083902115E+02  0.45083902115E+02  0.00000000000E+00 0.  1.
         21   -1    0    0  501  502 -0.00000000000E+00 -0.00000000000E+00 -0.11030561669E+04  0.11030561669E+04  0.00000000000E+00 0.  1.
         25    1    1    2    0    0 -0.75569456146E+02  0.18684249382E+02 -0.97879368453E+02  0.17681972358E+03  0.12500000000E+03 0.  0.
         25    1    1    2    0    0  0.75569456146E+02 -0.18684249382E+02 -0.96009289638E+03  0.97132034548E+03  0.12500000000E+03 0.  0.
</event>
<event>
 4    0  0.2219362E-002  0.1795503E+03  0.7546771E-02  0.1168239E+00
         21   -1    0    0  502  501  0.00000000000E+00  0.00000000000E+00  0.33180306731E+03  0.33180306731E+03  0.00000000000E+00 0. -1.
         21   -1    0    0  501  502 -0.00000000000E+00 -0.00000000000E+00 -0.97160963395E+02  0.97160963395E+02  0.00000000000E+00 0. -1.
         25    1    1    2    0    0  0.30015818634E+02 -0.95540249980E+01 -0.31979104467E+02  0.13281525471E+03  0.12500000000E+03 0.  0.
         25    1    1    2    0    0 -0.30015818634E+02  0.95540249980E+01  0.26662120838E+03  0.29614877599E+03  0.12500000000E+03 0.  0.
</event>
<event>
 4    0  0.2219362E-002  0.1370576E+03  0.7546771E-02  0.1217344E+00
         21   -1    0    0  502  501  0.00000000000E+00  0.00000000000E+00  0.75754222587E+02  0.75754222587E+02  0.00000000000E+00 0. -1.
         21   -1    0    0  501  502 -0.00000000000E+00 -0.00000000000E+00 -0.24797008731E+03  0.24797008731E+03  0.00000000000E+00 0. -1.
         25    1    1    2    0    0  0.87819372000E+01 -0.22643465544E+02 -0.14597708120E+03  0.19371153086E+03  0.12500000000E+03 0.  0.
         25    1    1    2    0    0 -0.87819372000E+01  0.22643465544E+02 -0.26238783526E+02  0.13001277904E+03  0.12500000000E+03 0.  0.
</event>
<event>
 4    0  0.2219362E-002  0.3402196E+03  0.7546771E-02  0.1066702E+00
         21   -1    0    0  502  501  0.00000000000E+00  0.00000000000E+00  0.83237024951E+02  0.83237024951E+02  0.00000000000E+00 0.  1.
         21   -1    0    0  501  502 -0.00000000000E+00 -0.00000000000E+00 -0.13905994613E+04  0.13905994613E+04  0.00000000000E+00 0. -1.
         25    1    1    2    0    0  0.14750564654E+03 -0.24697764757E+03 -0.36822401252E+03  0.48370424595E+03  0.12500000000E+03 0.  0.
         25    1    1    2    0    0 -0.14750564654E+03  0.24697764757E+03 -0.93913842381E+03  0.99013224028E+03  0.12500000000E+03 0.  0.
</event>
<event>
 4    0  0.2219362E-002  0.1527887E+03  0.7546771E-02  0.1197088E+00
         21   -1    0    0  502  501  0.00000000000E+00  0.00000000000E+00  0.16464805735E+03  0.16464805735E+03  0.00000000000E+00 0. -1.
         21   -1    0    0  501  502 -0.00000000000E+00 -0.00000000000E+00 -0.14178360914E+03  0.14178360914E+03  0.00000000000E+00 0. -1.
         25    1    1    2    0    0  0.58132234691E+01  0.60505305507E+02 -0.52185721148E+02  0.14846897000E+03  0.12500000000E+03 0.  0.
         25    1    1    2    0    0 -0.58132234691E+01 -0.60505305507E+02  0.75050169360E+02  0.15796269649E+03  0.12500000000E+03 0.  0.
</event>
<event>
 4    0  0.2219362E-002  0.2652586E+03  0.7546771E-02  0.1104024E+00
         21   -1    0    0  502  501  0.00000000000E+00  0.00000000000E+00  0.13648074116E+04  0.13648074116E+04  0.00000000000E+00 0.  1.
         21   -1    0    0  501  502 -0.00000000000E+00 -0.00000000000E+00 -0.51554610736E+02  0.51554610736E+02  0.00000000000E+00 0.  1.
         25    1    1    2    0    0  0.17102698208E+03  0.75554180216E+02  0.10320927197E+04  0.10563138950E+04  0.12500000000E+03 0.  0.
         25    1    1    2    0    0 -0.17102698208E+03 -0.75554180216E+02  0.28116008117E+03  0.36004812732E+03  0.12500000000E+03 0.  0.
</event>
<event>
 4    0  0.2219362E-002  0.2074972E+03  0.7546771E-02  0.1143563E+00
         21   -1    0    0  502  501  0.00000000000E+00  0.00000000000E+00  0.85048544034E+02  0.85048544034E+02  0.00000000000E+00 0. -1.
         21   -1    0    0  501  502 -0.00000000000E+00 -0.00000000000E+00 -0.50624157116E+03  0.50624157116E+03  0.00000000000E+00 0. -1.
         25    1    1    2    0    0 -0.16259033183E+03 -0.15510634474E+02 -0.17147471353E+03  0.26777746949E+03  0.12500000000E+03 0.  0.
         25    1    1    2    0    0  0.16259033183E+03  0.15510634474E+02 -0.24971831360E+03  0.32351264571E+03  0.12500000000E+03 0.  0.
</event>
<event>
 4    0  0.2219362E-002  0.2750477E+03  0.7546771E-02  0.1098425E+00
         21   -1    0    0  502  501  0.00000000000E+00  0.00000000000E+00  0.88931939416E+02  0.88931939416E+02  0.00000000000E+00 0. -1.
         21   -1    0    0  501  502 -0.00000000000E+00 -0.00000000000E+00 -0.85066458260E+03  0.85066458260E+03  0.00000000000E+00 0. -1.
         25    1    1    2    0    0 -0.18601998467E+03 -0.13221317931E+03 -0.22864281196E+03  0.34639037941E+03  0.12500000000E+03 0.  0.
         25    1    1    2    0    0  0.18601998467E+03  0.13221317931E+03 -0.53308983122E+03  0.59320614261E+03  0.12500000000E+03 0.  0.
</event>
<event>
 4    0  0.2219362E-002  0.2931058E+03  0.7546771E-02  0.1088739E+00
         21   -1    0    0  502  501  0.00000000000E+00  0.00000000000E+00  0.26341462276E+04  0.26341462276E+04  0.00000000000E+00 0.  1.
         21   -1    0    0  501  502 -0.00000000000E+00 -0.00000000000E+00 -0.32614357926E+02  0.32614357926E+02  0.00000000000E+00 0.  1.
         25    1    1    2    0    0  0.24936434943E+03  0.60619649967E+02  0.99802845122E+03  0.10380477398E+04  0.12500000000E+03 0.  0.
         25    1    1    2    0    0 -0.24936434943E+03 -0.60619649967E+02  0.16035034185E+04  0.16287128457E+04  0.12500000000E+03 0.  0.
</event>
<event>
 4    0  0.2219362E-002  0.2914438E+03  0.7546771E-02  0.1089598E+00
         21   -1    0    0  502  501  0.00000000000E+00  0.00000000000E+00  0.37723955461E+03  0.37723955461E+03  0.00000000000E+00 0. -1.
         21   -1    0    0  501  502 -0.00000000000E+00 -0.00000000000E+00 -0.22516054439E+03  0.22516054439E+03  0.00000000000E+00 0. -1.
         25    1    1    2    0    0  0.14037653776E+03 -0.14861746163E+03 -0.95410789492E+02  0.25791653884E+03  0.12500000000E+03 0.  0.
         25    1    1    2    0    0 -0.14037653776E+03  0.14861746163E+03  0.24748979971E+03  0.34448356015E+03  0.12500000000E+03 0.  0.
</event>
<event>
 4    0  0.2219362E-002  0.2463104E+03  0.7546771E-02  0.1115659E+00
         21   -1    0    0  502  501  0.00000000000E+00  0.00000000000E+00  0.17478979931E+04  0.17478979931E+04  0.00000000000E+00 0.  1.
         21   -1    0    0  501  502 -0.00000000000E+00 -0.00000000000E+00 -0.34709595984E+02  0.34709595984E+02  0.00000000000E+00 0.  1.
         25    1    1    2    0    0 -0.19584706031E+03  0.60422450618E+02  0.10560090209E+04  0.10829529056E+04  0.12500000000E+03 0.  0.
         25    1    1    2    0    0  0.19584706031E+03 -0.60422450618E+02  0.65717937627E+03  0.69965468352E+03  0.12500000000E+03 0.  0.
</event>
<event>
 4    0  0.2219362E-002  0.2110067E+03  0.7546771E-02  0.1140771E+00
         21   -1    0    0  502  501  0.00000000000E+00  0.00000000000E+00  0.16685087435E+04  0.16685087435E+04  0.00000000000E+00 0.  1.
         21   -1    0    0  501  502 -0.00000000000E+00 -0.00000000000E+00 -0.26684810115E+02  0.26684810115E+02  0.00000000000E+00 0.  1.
         25    1    1    2    0    0 -0.13941993376E+03 -0.71536368265E+02  0.10856469665E+04  0.11039971494E+04  0.12500000000E+03 0.  0.
         25    1    1    2    0    0  0.13941993376E+03  0.71536368265E+02  0.55617696683E+03  0.59119640420E+03  0.12500000000E+03 0.  0.
</event>
<event>
 4    0  0.2219362E-002  0.4565091E+03  0.7546771E-02  0.1025799E+00
         21   -1    0    0  502  501  0.00000000000E+00  0.00000000000E+00  0.15139350446E+03  0.15139350446E+03  0.00000000000E+00 0. -1.
         21   -1    0    0  501  502 -0.00000000000E+00 -0.00000000000E+00 -0.13765486076E+04  0.13765486076E+04  0.00000000000E+00 0. -1.
         25    1    1    2    0    0 -0.22756145951E+03 -0.35017266660E+03 -0.38575467403E+03  0.58209688439E+03  0.12500000000E+03 0.  0.
         25    1    1    2    0    0  0.22756145951E+03  0.35017266660E+03 -0.83940042912E+03  0.94584522766E+03  0.12500000000E+03 0.  0.
</event>
<event>
 4    0  0.2219362E-002  0.2372441E+03  0.7546771E-02  0.1121642E+00
         21   -1    0    0  502  501  0.00000000000E+00  0.00000000000E+00  0.32260734663E+03  0.32260734663E+03  0.00000000000E+00 0.  1.
         21   -1    0    0  501  502 -0.00000000000E+00 -0.00000000000E+00 -0.17446831316E+03  0.17446831316E+03  0.00000000000E+00 0.  1.
         25    1    1    2    0    0  0.96766784141E+02 -0.64644604965E+02  0.24658103921E+03  0.29994990308E+03  0.12500000000E+03 0.  0.
         25    1    1    2    0    0 -0.96766784141E+02  0.64644604965E+02 -0.98442005732E+02  0.19712575671E+03  0.12500000000E+03 0.  0.
</event>
<event>
 4    0  0.2219362E-002  0.2511807E+03  0.7546771E-02  0.1112561E+00
         21   -1    0    0  502  501  0.00000000000E+00  0.00000000000E+00  0.92149361493E+02  0.92149361493E+02  0.00000000000E+00 0.  1.
         21   -1    0    0  501  502 -0.00000000000E+00 -0.00000000000E+00 -0.68466808614E+03  0.68466808614E+03  0.00000000000E+00 0.  1.
         25    1    1    2    0    0 -0.17528358889E+03 -0.12865210517E+03 -0.27488715788E+03  0.37210704141E+03  0.12500000000E+03 0.  0.
         25    1    1    2    0    0  0.17528358889E+03  0.12865210517E+03 -0.31763156677E+03  0.40471040623E+03  0.12500000000E+03 0.  0.
</event>
<event>
 4    0  0.2219362E-002  0.1790156E+03  0.7546771E-02  0.1168759E+00
         21   -1    0    0  502  501  0.00000000000E+00  0.00000000000E+00  0.62464812303E+02  0.62464812303E+02  0.00000000000E+00 0. -1.
         21   -1    0    0  501  502 -0.00000000000E+00 -0.00000000000E+00 -0.51303444612E+03  0.51303444612E+03  0.00000000000E+00 0. -1.
         25    1    1    2    0    0  0.27896314951E+02 -0.43655453984E+02 -0.41368407209E+03  0.43525109368E+03  0.12500000000E+03 0.  0.
         25    1    1    2    0    0 -0.27896314951E+02  0.43655453984E+02 -0.36885561732E+02  0.14024816475E+03  0.12500000000E+03 0.  0.
</event>
<event>
 4    0  0.2219362E-002  0.2738641E+03  0.7546771E-02  0.1099088E+00
         21   -1    0    0  502  501  0.00000000000E+00  0.00000000000E+00  0.42343211338E+02  0.42343211338E+02  0.00000000000E+00 0.  1.
         21   -1    0    0  501  502 -0.00000000000E+00 -0.00000000000E+00 -0.17712767593E+04  0.17712767593E+04  0.00000000000E+00 0.  1.
         25    1    1    2    0    0 -0.47322036914E+02  0.20085333893E+03 -0.43535288064E+03  0.49773343229E+03  0.12500000000E+03 0.  0.
         25    1    1    2    0    0  0.47322036914E+02 -0.20085333893E+03 -0.12935806674E+04  0.13158865384E+04  0.12500000000E+03 0.  0.
</event>
<event>
 4    0  0.2219362E-002  0.1944650E+03  0.7546771E-02  0.1154495E+00
         21   -1    0    0  502  501  0.00000000000E+00  0.00000000000E+00  0.31527590490E+03  0.31527590490E+03  0.00000000000E+00 0. -1.
         21   -1    0    0  501  502 -0.00000000000E+00 -0.00000000000E+00 -0.11994780368E+03  0.11994780368E+03  0.00000000000E+00 0. -1.
         25    1    1    2    0    0  0.10094049413E+01 -0.13962499883E+03  0.15576190922E+03  0.24368613330E+03  0.12500000000E+03 0.  0.
         25    1    1    2    0    0 -0.10094049413E+01  0.13962499883E+03  0.39566192000E+02  0.19153757529E+03  0.12500000000E+03 0.  0.
</event>
<event>
 4    0  0.2219362E-002  0.3293617E+03  0.7546771E-02  0.1071420E+00
         21   -1    0    0  502  501  0.00000000000E+00  0.00000000000E+00  0.13570681239E+03  0.13570681239E+03  0.00000000000E+00 0. -1.
         21   -1    0    0  501  502 -0.00000000000E+00 -0.00000000000E+00 -0.79936368977E+03  0.79936368977E+03  0.00000000000E+00 0. -1.
         25    1    1    2    0    0  0.72625109793E+02 -0.29593183748E+03 -0.32897549686E+03  0.46551040434E+03  0.12500000000E+03 0.  0.
         25    1    1    2    0    0 -0.72625109793E+02  0.29593183748E+03 -0.33468138052E+03  0.46956009783E+03  0.12500000000E+03 0.  0.
</event>
<event>
 4    0  0.2219362E-002  0.2007949E+03  0.7546771E-02  0.1149070E+00
         21   -1    0    0  502  501  0.00000000000E+00  0.00000000000E+00  0.83927972438E+02  0.83927972438E+02  0.00000000000E+00 0. -1.
         21   -1    0    0  501  502 -0.00000000000E+00 -0.00000000000E+00 -0.48039507610E+03  0.48039507610E+03  0.00000000000E+00 0. -1.
         25    1    1    2    0    0  0.14706501236E+03 -0.55312718577E+02 -0.19480008646E+03  0.27974933134E+03  0.12500000000E+03 0.  0.
         25    1    1    2    0    0 -0.14706501236E+03  0.55312718577E+02 -0.20166701720E+03  0.28457371720E+03  0.12500000000E+03 0.  0.
</event>
<event>
 4    0  0.2219362E-002  0.2847222E+03  0.7546771E-02  0.1093137E+00
         21   -1    0    0  502  501  0.00000000000E+00  0.00000000000E+00  0.51563998449E+03  0.51563998449E+03  0.00000000000E+00 0.  1.
         21   -1    0    0  501  502 -0.00000000000E+00 -0.00000000000E+00 -0.15721574719E+03  0.15721574719E+03  0.00000000000E+00 0.  1.
         25    1    1    2    0    0  0.47926947697E+01 -0.48353048124E+02  0.47598145734E+03  0.49451424137E+03  0.12500000000E+03 0.  0.
         25    1    1    2    0    0 -0.47926947697E+01  0.48353048124E+02 -0.11755722003E+03  0.17834149031E+03  0.12500000000E+03 0.  0.
</event>
<event>
 4    0  0.2219362E-002  0.2177131E+03  0.7546771E-02  0.1135600E+00
         21   -1    0    0  502  501  0.00000000000E+00  0.00000000000E+00  0.51086839744E+02  0.51086839744E+02  0.00000000000E+00 0.  1.
         21   -1    0    0  501  502 -0.00000000000E+00 -0.00000000000E+00 -0.92781219246E+03  0.92781219246E+03  0.00000000000E+00 0.  1.
         25    1    1    2    0    0 -0.66963108020E+02  0.35997570303E+02 -0.80082329065E+03  0.81407789906E+03  0.12500000000E+03 0.  0.
         25    1    1    2    0    0  0.66963108020E+02 -0.35997570303E+02 -0.75902062070E+02  0.16482113314E+03  0.12500000000E+03 0.  0.
</event>
<event>
 4    0  0.2219362E-002  0.2877399E+03  0.7546771E-02  0.1091535E+00
         21   -1    0    0  502  501  0.00000000000E+00  0.00000000000E+00  0.17435187454E+03  0.17435187454E+03  0.00000000000E+00 0.  1.
         21   -1    0    0  501  502 -0.00000000000E+00 -0.00000000000E+00 -0.47486867074E+03  0.47486867074E+03  0.00000000000E+00 0.  1.
         25    1    1    2    0    0  0.53025155266E+02 -0.44268266449E+01 -0.43640981271E+03  0.45706650338E+03  0.12500000000E+03 0.  0.
         25    1    1    2    0    0 -0.53025155266E+02  0.44268266449E+01  0.13589301651E+03  0.19215404190E+03  0.12500000000E+03 0.  0.
</event>
<event>
 4    0  0.2219362E-002  0.2137654E+03  0.7546771E-02  0.1138618E+00
         21   -1    0    0  502  501  0.00000000000E+00  0.00000000000E+00  0.47633269479E+03  0.47633269479E+03  0.00000000000E+00 0. -1.
         21   -1    0    0  501  502 -0.00000000000E+00 -0.00000000000E+00 -0.95932202367E+02  0.95932202367E+02  0.00000000000E+00 0. -1.
         25    1    1    2    0    0  0.58160076128E+02  0.10033459629E+03  0.17632936596E+02  0.17142212844E+03  0.12500000000E+03 0.  0.
         25    1    1    2    0    0 -0.58160076128E+02 -0.10033459629E+03  0.36276755583E+03  0.40084276871E+03  0.12500000000E+03 0.  0.
</event>
<event>
 4    0  0.2219362E-002  0.3014106E+03  0.7546771E-02  0.1084538E+00
         21   -1    0    0  502  501  0.00000000000E+00  0.00000000000E+00  0.11770250965E+03  0.11770250965E+03  0.00000000000E+00 0. -1.
         21   -1    0    0  501  502 -0.00000000000E+00 -0.00000000000E+00 -0.77184727589E+03  0.77184727589E+03  0.00000000000E+00 0. -1.
         25    1    1    2    0    0 -0.11219332691E+03  0.41665812756E+02 -0.69123074380E+03  0.71256461021E+03  0.12500000000E+03 0.  0.
         25    1    1    2    0    0  0.11219332691E+03 -0.41665812756E+02  0.37085977560E+02  0.17698517533E+03  0.12500000000E+03 0.  0.
</event>
<event>
 4    0  0.2219362E-002  0.1442124E+03  0.7546771E-02  0.1207771E+00
         21   -1    0    0  502  501  0.00000000000E+00  0.00000000000E+00  0.52744449446E+03  0.52744449446E+03  0.00000000000E+00 0. -1.
         21   -1    0    0  501  502 -0.00000000000E+00 -0.00000000000E+00 -0.39430138669E+02  0.39430138669E+02  0.00000000000E+00 0. -1.
         25    1    1    2    0    0 -0.39126280875E+02  0.48370974793E+02  0.17309970424E+03  0.22239407516E+03  0.12500000000E+03 0.  0.
         25    1    1    2    0    0  0.39126280875E+02 -0.48370974793E+02  0.31491465155E+03  0.34448055797E+03  0.12500000000E+03 0.  0.
</event>
<event>
 4    0  0.2219362E-002  0.1920394E+03  0.7546771E-02  0.1156635E+00
         21   -1    0    0  502  501  0.00000000000E+00  0.00000000000E+00  0.57680717725E+02  0.57680717725E+02  0.00000000000E+00 0. -1.
         21   -1    0    0  501  502 -0.00000000000E+00 -0.00000000000E+00 -0.63936664707E+03  0.63936664707E+03  0.00000000000E+00 0. -1.
         25    1    1    2    0    0 -0.11561527001E+03  0.87541272239E+02 -0.31799080150E+03  0.37117854847E+03  0.12500000000E+03 0.  0.
         25    1    1    2    0    0  0.11561527001E+03 -0.87541272239E+02 -0.26369512784E+03  0.32586881632E+03  0.12500000000E+03 0.  0.
</event>
<event>
 4    0  0.2219362E-002  0.3399654E+03  0.7546771E-02  0.1066811E+00
         21   -1    0    0  502  501  0.00000000000E+00  0.00000000000E+00  0.84413053827E+03  0.84413053827E+03  0.00000000000E+00 0.  1.
         21   -1    0    0  501  502 -0.00000000000E+00 -0.00000000000E+00 -0.13691777949E+03  0.13691777949E+03  0.00000000000E+00 0.  1.
         25    1    1    2    0    0 -0.28059601178E+03 -0.53659890387E+02  0.54899593240E+03  0.63137551382E+03  0.12500000000E+03 0.  0.
         25    1    1    2    0    0  0.28059601178E+03  0.53659890387E+02  0.15821682638E+03  0.34967280394E+03  0.12500000000E+03 0.  0.
</event>
<event>
 4    0  0.2219362E-002  0.1712184E+03  0.7546771E-02  0.1176583E+00
         21   -1    0    0  502  501  0.00000000000E+00  0.00000000000E+00  0.71495994704E+02  0.71495994704E+02  0.00000000000E+00 0.  1.
         21   -1    0    0  501  502 -0.00000000000E+00 -0.00000000000E+00 -0.41003356311E+03  0.41003356311E+03  0.00000000000E+00 0.  1.
         25    1    1    2    0    0  0.58089555602E+02 -0.94912427982E+02 -0.11841246327E+03  0.20501043123E+03  0.12500000000E+03 0.  0.
         25    1    1    2    0    0 -0.58089555602E+02  0.94912427982E+02 -0.22012510513E+03  0.27651912658E+03  0.12500000000E+03 0.  0.
</event>
<event>
 4    0  0.2219362E-002  0.2335152E+03  0.7546771E-02  0.1124190E+00
         21   -1    0    0  502  501  0.00000000000E+00  0.00000000000E+00  0.11242657579E+04  0.11242657579E+04  0.00000000000E+00 0.  1.
         21   -1    0    0  501  502 -0.00000000000E+00 -0.00000000000E+00 -0.48502183676E+02  0.48502183676E+02  0.00000000000E+00 0.  1.
         25    1    1    2    0    0 -0.10109700340E+03  0.14361899495E+02  0.96163958191E+03  0.97509104896E+03  0.12500000000E+03 0.  0.
         25    1    1    2    0    0  0.10109700340E+03 -0.14361899495E+02  0.11412399231E+03  0.19767689262E+03  0.12500000000E+03 0.  0.
</event>
<event>
 4    0  0.2219362E-002  0.2416272E+03  0.7546771E-02  0.1118714E+00
         21   -1    0    0  502  501  0.00000000000E+00  0.00000000000E+00  0.32283221037E+03  0.32283221037E+03  0.00000000000E+00 0.  1.
         21   -1    0    0  501  502 -0.00000000000E+00 -0.00000000000E+00 -0.18084843698E+03  0.18084843698E+03  0.00000000000E+00 0.  1.
         25    1    1    2    0    0  0.75780794706E+01 -0.20562829808E+03  0.92308152936E+02  0.25784921826E+03  0.12500000000E+03 0.  0.
         25    1    1    2    0    0 -0.75780794706E+01  0.20562829808E+03  0.49675620454E+02  0.24583142909E+03  0.12500000000E+03 0.  0.
</event>
<event>
 4    0  0.2219362E-002  0.2854485E+03  0.7546771E-02  0.1092750E+00
         21   -1    0    0  502  501  0.00000000000E+00  0.00000000000E+00  0.23478922329E+03  0.23478922329E+03  0.00000000000E+00 0. -1.
         21   -1    0    0  501  502 -0.00000000000E+00 -0.00000000000E+00 -0.34703836922E+03  0.34703836922E+03  0.00000000000E+00 0. -1.
         25    1    1    2    0    0 -0.11026084694E+03 -0.11677174884E+03 -0.26011368939E+03  0.33026841675E+03  0.12500000000E+03 0.  0.
         25    1    1    2    0    0  0.11026084694E+03  0.11677174884E+03  0.14786454346E+03  0.25155917576E+03  0.12500000000E+03 0.  0.
</event>
<event>
 4    0  0.2219362E-002  0.2443492E+03  0.7546771E-02  0.1116929E+00
         21   -1    0    0  502  501  0.00000000000E+00  0.00000000000E+00  0.63537566052E+03  0.63537566052E+03  0.00000000000E+00 0. -1.
         21   -1    0    0  501  502 -0.00000000000E+00 -0.00000000000E+00 -0.93970466275E+02  0.93970466275E+02  0.00000000000E+00 0. -1.
         25    1    1    2    0    0 -0.15568065667E+03  0.57934518637E+02  0.79062870029E+02  0.22241585539E+03  0.12500000000E+03 0.  0.
         25    1    1    2    0    0  0.15568065667E+03 -0.57934518637E+02  0.46234232422E+03  0.50693027141E+03  0.12500000000E+03 0.  0.
</event>
<event>
 4    0  0.2219362E-002  0.3430711E+03  0.7546771E-02  0.1065495E+00
         21   -1    0    0  502  501  0.00000000000E+00  0.00000000000E+00  0.62199142048E+03  0.62199142048E+03  0.00000000000E+00 0. -1.
         21   -1    0    0  501  502 -0.00000000000E+00 -0.00000000000E+00 -0.18922730521E+03  0.18922730521E+03  0.00000000000E+00 0. -1.
         25    1    1    2    0    0  0.75002072809E+02  0.93835582832E+02 -0.13362825176E+03  0.21888795581E+03  0.12500000000E+03 0.  0.
         25    1    1    2    0    0 -0.75002072809E+02 -0.93835582832E+02  0.56639236703E+03  0.59233076989E+03  0.12500000000E+03 0.  0.
</event>
<event>
 4    0  0.2219362E-002  0.2842620E+03  0.7546771E-02  0.1093384E+00
         21   -1    0    0  502  501  0.00000000000E+00  0.00000000000E+00  0.85230812060E+02  0.85230812060E+02  0.00000000000E+00 0. -1.
         21   -1    0    0  501  502 -0.00000000000E+00 -0.00000000000E+00 -0.94807158532E+03  0.94807158532E+03  0.00000000000E+00 0. -1.
         25    1    1    2    0    0 -0.51742261446E+02  0.22354522442E+03 -0.22797059250E+03  0.34676406969E+03  0.12500000000E+03 0.  0.
         25    1    1    2    0    0  0.51742261446E+02 -0.22354522442E+03 -0.63487018076E+03  0.68653832770E+03  0.12500000000E+03 0.  0.
</event>
<event>
 4    0  0.2219362E-002  0.1924405E+03  0.7546771E-02  0.1156278E+00
         21   -1    0    0  502  501  0.00000000000E+00  0.00000000000E+00  0.19022260113E+03  0.19022260113E+03  0.00000000000E+00 0. -1.
         21   -1    0    0  501  502 -0.00000000000E+00 -0.00000000000E+00 -0.19468434159E+03  0.19468434159E+03  0.00000000000E+00 0. -1.
         25    1    1    2    0    0  0.13979460608E+03  0.14620895628E+02  0.38417394094E+02  0.19198228733E+03  0.12500000000E+03 0.  0.
         25    1    1    2    0    0 -0.13979460608E+03 -0.14620895628E+02 -0.42879134546E+02  0.19292465539E+03  0.12500000000E+03 0.  0.
</event>
<event>
 4    0  0.2219362E-002  0.4667254E+03  0.7546771E-02  0.1022849E+00
         21   -1    0    0  502  501  0.00000000000E+00  0.00000000000E+00  0.94813180399E+02  0.94813180399E+02  0.00000000000E+00 0.  1.
         21   -1    0    0  501  502 -0.00000000000E+00 -0.00000000000E+00 -0.22974930189E+04  0.22974930189E+04  0.00000000000E+00 0.  1.
         25    1    1    2    0    0  0.35230066535E+03  0.27870289240E+03 -0.11536473741E+04  0.12443143995E+04  0.12500000000E+03 0.  0.
         25    1    1    2    0    0 -0.35230066535E+03 -0.27870289240E+03 -0.10490324644E+04  0.11479917998E+04  0.12500000000E+03 0.  0.
</event>
<event>
 4    0  0.2219362E-002  0.2137511E+03  0.7546771E-02  0.1138630E+00
         21   -1    0    0  502  501  0.00000000000E+00  0.00000000000E+00  0.21259125403E+04  0.21259125403E+04  0.00000000000E+00 0.  1.
         21   -1    0    0  501  502 -0.00000000000E+00 -0.00000000000E+00 -0.21491723238E+02  0.21491723238E+02  0.00000000000E+00 0.  1.
         25    1    1    2    0    0 -0.10820936596E+03  0.10675695475E+03  0.63320053712E+03  0.66307935760E+03  0.12500000000E+03 0.  0.
         25    1    1    2    0    0  0.10820936596E+03 -0.10675695475E+03  0.14712202799E+04  0.14843249059E+04  0.12500000000E+03 0.  0.
</event>
<event>
 4    0  0.2219362E-002  0.2457823E+03  0.7546771E-02  0.1116000E+00
         21   -1    0    0  502  501  0.00000000000E+00  0.00000000000E+00  0.25433726323E+03  0.25433726323E+03  0.00000000000E+00 0.  1.
         21   -1    0    0  501  502 -0.00000000000E+00 -0.00000000000E+00 -0.23751507621E+03  0.23751507621E+03  0.00000000000E+00 0.  1.
         25    1    1    2    0    0  0.75677808332E+02  0.55141547326E+02 -0.18147938303E+03  0.23943159228E+03  0.12500000000E+03 0.  0.
         25    1    1    2    0    0 -0.75677808332E+02 -0.55141547326E+02  0.19830157005E+03  0.25242074717E+03  0.12500000000E+03 0.  0.
</event>
<event>
 4    0  0.2219362E-002  0.1873275E+03  0.7546771E-02  0.1160894E+00
         21   -1    0    0  502  501  0.00000000000E+00  0.00000000000E+00  0.14086037782E+03  0.14086037782E+03  0.00000000000E+00 0.  1.
         21   -1    0    0  501  502 -0.00000000000E+00 -0.00000000000E+00 -0.24912325535E+03  0.24912325535E+03  0.00000000000E+00 0.  1.
         25    1    1    2    0    0 -0.54244387122E+02  0.19634908948E+02  0.78104019672E+02  0.15828209334E+03  0.12500000000E+03 0.  0.
         25    1    1    2    0    0  0.54244387122E+02 -0.19634908948E+02 -0.18636689721E+03  0.23170153983E+03  0.12500000000E+03 0.  0.
</event>
<event>
 4    0  0.2219362E-002  0.2772963E+03  0.7546771E-02  0.1097175E+00
         21   -1    0    0  502  501  0.00000000000E+00  0.00000000000E+00  0.16266615219E+03  0.16266615219E+03  0.00000000000E+00 0. -1.
         21   -1    0    0  501  502 -0.00000000000E+00 -0.00000000000E+00 -0.47270579183E+03  0.47270579183E+03  0.00000000000E+00 0. -1.
         25    1    1    2    0    0  0.17180863331E+03 -0.85988878779E+02 -0.33381524986E+03  0.40493198786E+03  0.12500000000E+03 0.  0.
         25    1    1    2    0    0 -0.17180863331E+03  0.85988878779E+02  0.23775610219E+02  0.23043995616E+03  0.12500000000E+03 0.  0.
</event>
<event>
 4    0  0.2219362E-002  0.2426005E+03  0.7546771E-02  0.1118072E+00
         21   -1    0    0  502  501  0.00000000000E+00  0.00000000000E+00  0.14242038835E+04  0.14242038835E+04  0.00000000000E+00 0. -1.
         21   -1    0    0  501  502 -0.00000000000E+00 -0.00000000000E+00 -0.41324844023E+02  0.41324844023E+02  0.00000000000E+00 0. -1.
         25    1    1    2    0    0  0.29866821524E+02  0.62768341429E+02  0.12833112258E+04  0.12912569822E+04  0.12500000000E+03 0.  0.
         25    1    1    2    0    0 -0.29866821524E+02 -0.62768341429E+02  0.99567813691E+02  0.17427174538E+03  0.12500000000E+03 0.  0.
</event>
<event>
 4    0  0.2219362E-002  0.1519385E+03  0.7546771E-02  0.1198111E+00
         21   -1    0    0  502  501  0.00000000000E+00  0.00000000000E+00  0.31786706258E+03  0.31786706258E+03  0.00000000000E+00 0.  1.
         21   -1    0    0  501  502 -0.00000000000E+00 -0.00000000000E+00 -0.72625660212E+02  0.72625660212E+02  0.00000000000E+00 0.  1.
         25    1    1    2    0    0  0.70852625980E+02 -0.33746198101E+02  0.16897834322E+03  0.22436038192E+03  0.12500000000E+03 0.  0.
         25    1    1    2    0    0 -0.70852625980E+02  0.33746198101E+02  0.76263059143E+02  0.16613234087E+03  0.12500000000E+03 0.  0.
</event>
<event>
 4    0  0.2219362E-002  0.2695752E+03  0.7546771E-02  0.1101523E+00
         21   -1    0    0  502  501  0.00000000000E+00  0.00000000000E+00  0.65832500773E+02  0.65832500773E+02  0.00000000000E+00 0.  1.
         21   -1    0    0  501  502 -0.00000000000E+00 -0.00000000000E+00 -0.11038737846E+04  0.11038737846E+04  0.00000000000E+00 0.  1.
         25    1    1    2    0    0 -0.69390024301E+01 -0.14048052186E+03 -0.93781897722E+03  0.95651051265E+03  0.12500000000E+03 0.  0.
         25    1    1    2    0    0  0.69390024301E+01  0.14048052186E+03 -0.10022230666E+03  0.21319577277E+03  0.12500000000E+03 0.  0.
</event>
<event>
 4    0  0.2219362E-002  0.1830164E+03  0.7546771E-02  0.1164915E+00
         21   -1    0    0  502  501  0.00000000000E+00  0.00000000000E+00  0.10385967240E+03  0.10385967240E+03  0.00000000000E+00 0. -1.
         21   -1    0    0  501  502 -0.00000000000E+00 -0.00000000000E+00 -0.32250247899E+03  0.32250247899E+03  0.00000000000E+00 0. -1.
         25    1    1    2    0    0 -0.12382963025E+03 -0.23746234601E+02 -0.16105225504E+03  0.23970917763E+03  0.12500000000E+03 0.  0.
         25    1    1    2    0    0  0.12382963025E+03  0.23746234601E+02 -0.57590551549E+02  0.18665297376E+03  0.12500000000E+03 0.  0.
</event>
<event>
 4    0  0.2219362E-002  0.2312442E+03  0.7546771E-02  0.1125767E+00
         21   -1    0    0  502  501  0.00000000000E+00  0.00000000000E+00  0.99213494280E+02  0.99213494280E+02  0.00000000000E+00 0.  1.
         21   -1    0    0  501  502 -0.00000000000E+00 -0.00000000000E+00 -0.53897808563E+03  0.53897808563E+03  0.00000000000E+00 0.  1.
         25    1    1    2    0    0 -0.19298067791E+03  0.20339249890E+02 -0.23908594030E+03  0.33232862348E+03  0.12500000000E+03 0.  0.
         25    1    1    2    0    0  0.19298067791E+03 -0.20339249890E+02 -0.20067865104E+03  0.30586295643E+03  0.12500000000E+03 0.  0.
</event>
<event>
 4    0  0.2219362E-002  0.1818934E+03  0.7546771E-02  0.1165983E+00
         21   -1    0    0  502  501  0.00000000000E+00  0.00000000000E+00  0.14024773579E+02  0.14024773579E+02  0.00000000000E+00 0. -1.
         21   -1    0    0  501  502 -0.00000000000E+00 -0.00000000000E+00 -0.23590544929E+04  0.23590544929E+04  0.00000000000E+00 0. -1.
         25    1    1    2    0    0 -0.66381511806E+02  0.89408031137E+02 -0.16365346156E+04  0.16450747245E+04  0.12500000000E+03 0.  0.
         25    1    1    2    0    0  0.66381511806E+02 -0.89408031137E+02 -0.70849510373E+03  0.72800454198E+03  0.12500000000E+03 0.  0.
</event>
<event>
 4    0  0.2219362E-002  0.2615736E+03  0.7546771E-02  0.1106201E+00
         21   -1    0    0  502  501  0.00000000000E+00  0.00000000000E+00  0.11292131907E+03  0.11292131907E+03  0.00000000000E+00 0.  1.
         21   -1    0    0  501  502 -0.00000000000E+00 -0.00000000000E+00 -0.60591547208E+03  0.60591547208E+03  0.00000000000E+00 0.  1.
         25    1    1    2    0    0  0.11743778566E+03 -0.19609325384E+03 -0.27876784037E+03  0.38155039841E+03  0.12500000000E+03 0.  0.
         25    1    1    2    0    0 -0.11743778566E+03  0.19609325384E+03 -0.21422631264E+03  0.33728639274E+03  0.12500000000E+03 0.  0.
</event>
<event>
 4    0  0.2219362E-002  0.5047934E+03  0.7546771E-02  0.1012535E+00
         21   -1    0    0  502  501  0.00000000000E+00  0.00000000000E+00  0.69867533025E+03  0.69867533025E+03  0.00000000000E+00 0.  1.
         21   -1    0    0  501  502 -0.00000000000E+00 -0.00000000000E+00 -0.36471355812E+03  0.36471355812E+03  0.00000000000E+00 0.  1.
         25    1    1    2    0    0  0.31591734321E+03 -0.76095636700E+01 -0.22617999796E+03  0.40822060786E+03  0.12500000000E+03 0.  0.
         25    1    1    2    0    0 -0.31591734321E+03  0.76095636700E+01  0.56014177009E+03  0.65516828052E+03  0.12500000000E+03 0.  0.
</event>
<event>
 4    0  0.2219362E-002  0.3609218E+03  0.7546771E-02  0.1058219E+00
         21   -1    0    0  502  501  0.00000000000E+00  0.00000000000E+00  0.54767493654E+03  0.54767493654E+03  0.00000000000E+00 0. -1.
         21   -1    0    0  501  502 -0.00000000000E+00 -0.00000000000E+00 -0.23785017546E+03  0.23785017546E+03  0.00000000000E+00 0. -1.
         25    1    1    2    0    0 -0.14265962981E+03  0.13431788997E+03 -0.14557546032E+03  0.27424492737E+03  0.12500000000E+03 0.  0.
         25    1    1    2    0    0  0.14265962981E+03 -0.13431788997E+03  0.45540022140E+03  0.51128018463E+03  0.12500000000E+03 0.  0.
</event>
<event>
 4    0  0.2219362E-002  0.2296929E+03  0.7546771E-02  0.1126856E+00
         21   -1    0    0  502  501  0.00000000000E+00  0.00000000000E+00  0.54656183897E+02  0.54656183897E+02  0.00000000000E+00 0. -1.
         21   -1    0    0  501  502 -0.00000000000E+00 -0.00000000000E+00 -0.96528597392E+03  0.96528597392E+03  0.00000000000E+00 0. -1.
         25    1    1    2    0    0 -0.26570160082E+02 -0.18498171028E+03 -0.55968083088E+03  0.60315158874E+03  0.12500000000E+03 0.  0.
         25    1    1    2    0    0  0.26570160082E+02  0.18498171028E+03 -0.35094895914E+03  0.41679056908E+03  0.12500000000E+03 0.  0.
</event>
<event>
 4    0  0.2219362E-002  0.3088920E+03  0.7546771E-02  0.1080878E+00
         21   -1    0    0  502  501  0.00000000000E+00  0.00000000000E+00  0.16660091706E+03  0.16660091706E+03  0.00000000000E+00 0. -1.
         21   -1    0    0  501  502 -0.00000000000E+00 -0.00000000000E+00 -0.57271169390E+03  0.57271169390E+03  0.00000000000E+00 0. -1.
         25    1    1    2    0    0  0.81461057535E+02 -0.14952409407E+03 -0.47277087153E+03  0.51781334047E+03  0.12500000000E+03 0.  0.
         25    1    1    2    0    0 -0.81461057535E+02  0.14952409407E+03  0.66660094693E+02  0.22149927049E+03  0.12500000000E+03 0.  0.
</event>
<event>
 4    0  0.2219362E-002  0.2523729E+03  0.7546771E-02  0.1111814E+00
         21   -1    0    0  502  501  0.00000000000E+00  0.00000000000E+00  0.34394972615E+03  0.34394972615E+03  0.00000000000E+00 0. -1.
         21   -1    0    0  501  502 -0.00000000000E+00 -0.00000000000E+00 -0.18517846303E+03  0.18517846303E+03  0.00000000000E+00 0. -1.
         25    1    1    2    0    0 -0.19865484717E+03  0.90528524921E+02  0.58212971410E+02  0.25821098382E+03  0.12500000000E+03 0.  0.
         25    1    1    2    0    0  0.19865484717E+03 -0.90528524921E+02  0.10055829171E+03  0.27091720536E+03  0.12500000000E+03 0.  0.
</event>
<event>
 4    0  0.2219362E-002  0.2318865E+03  0.7546771E-02  0.1125319E+00
         21   -1    0    0  502  501  0.00000000000E+00  0.00000000000E+00  0.21421502540E+03  0.21421502540E+03  0.00000000000E+00 0.  1.
         21   -1    0    0  501  502 -0.00000000000E+00 -0.00000000000E+00 -0.25101580790E+03  0.25101580790E+03  0.00000000000E+00 0.  1.
         25    1    1    2    0    0 -0.10637828456E+03 -0.11388674518E+03  0.99697435567E+02  0.22327361871E+03  0.12500000000E+03 0.  0.
         25    1    1    2    0    0  0.10637828456E+03  0.11388674518E+03 -0.13649821807E+03  0.24195721459E+03  0.12500000000E+03 0.  0.
</event>
<event>
 4    0  0.2219362E-002  0.1993733E+03  0.7546771E-02  0.1150269E+00
         21   -1    0    0  502  501  0.00000000000E+00  0.00000000000E+00  0.23938270931E+03  0.23938270931E+03  0.00000000000E+00 0.  1.
         21   -1    0    0  501  502 -0.00000000000E+00 -0.00000000000E+00 -0.16605081841E+03  0.16605081841E+03  0.00000000000E+00 0.  1.
         25    1    1    2    0    0  0.52358061121E+02  0.67950411169E+02  0.16832126180E+03  0.22652962746E+03  0.12500000000E+03 0.  0.
         25    1    1    2    0    0 -0.52358061121E+02 -0.67950411169E+02 -0.94989370901E+02  0.17890390026E+03  0.12500000000E+03 0.  0.
</event>
<event>
 4    0  0.2219362E-002  0.1359374E+03  0.7546771E-02  0.1218902E+00
         21   -1    0    0  502  501  0.00000000000E+00  0.00000000000E+00  0.24512376910E+02  0.24512376910E+02  0.00000000000E+00 0.  1.
         21   -1    0    0  501  502 -0.00000000000E+00 -0.00000000000E+00 -0.75386257113E+03  0.75386257113E+03  0.00000000000E+00 0.  1.
         25    1    1    2    0    0  0.53192655387E+01  0.47562551944E+02 -0.29671461800E+03  0.32550738159E+03  0.12500000000E+03 0.  0.
         25    1    1    2    0    0 -0.53192655387E+01 -0.47562551944E+02 -0.43263557622E+03  0.45286756646E+03  0.12500000000E+03 0.  0.
</event>
<event>
 4    0  0.2219362E-002  0.4328963E+03  0.7546771E-02  0.1032949E+00
         21   -1    0    0  502  501  0.00000000000E+00  0.00000000000E+00  0.70844048252E+03  0.70844048252E+03  0.00000000000E+00 0.  1.
         21   -1    0    0  501  502 -0.00000000000E+00 -0.00000000000E+00 -0.26452354027E+03  0.26452354027E+03  0.00000000000E+00 0.  1.
         25    1    1    2    0    0 -0.18683313146E+03 -0.25361085980E+03 -0.80732135818E+02  0.34837876654E+03  0.12500000000E+03 0.  0.
         25    1    1    2    0    0  0.18683313146E+03  0.25361085980E+03  0.52464907807E+03  0.62458525626E+03  0.12500000000E+03 0.  0.
</event>
<event>
 4    0  0.2219362E-002  0.1828779E+03  0.7546771E-02  0.1165046E+00
         21   -1    0    0  502  501  0.00000000000E+00  0.00000000000E+00  0.19632820169E+03  0.19632820169E+03  0.00000000000E+00 0. -1.
         21   -1    0    0  501  502 -0.00000000000E+00 -0.00000000000E+00 -0.17034913181E+03  0.17034913181E+03  0.00000000000E+00 0. -1.
         25    1    1    2    0    0 -0.41686161848E+01  0.13090374881E+03 -0.12885757276E+02  0.18150540365E+03  0.12500000000E+03 0.  0.
         25    1    1    2    0    0  0.41686161848E+01 -0.13090374881E+03  0.38864827155E+02  0.18517192984E+03  0.12500000000E+03 0.  0.
</event>
<event>
 4    0  0.2219362E-002  0.3086775E+03  0.7546771E-02  0.1080982E+00
         21   -1    0    0  502  501  0.00000000000E+00  0.00000000000E+00  0.95741237661E+02  0.95741237661E+02  0.00000000000E+00 0.  1.
         21   -1    0    0  501  502 -0.00000000000E+00 -0.00000000000E+00 -0.99520136049E+03  0.99520136049E+03  0.00000000000E+00 0.  1.
         25    1    1    2    0    0  0.19138437793E+02 -0.25547126461E+03 -0.65900526318E+03  0.71801447322E+03  0.12500000000E+03 0.  0.
         25    1    1    2    0    0 -0.19138437793E+02  0.25547126461E+03 -0.24045485964E+03  0.37292812494E+03  0.12500000000E+03 0.  0.
</event>
<event>
 4    0  0.2219362E-002  0.3478159E+03  0.7546771E-02  0.1063515E+00
         21   -1    0    0  502  501  0.00000000000E+00  0.00000000000E+00  0.27989315551E+03  0.27989315551E+03  0.00000000000E+00 0.  1.
         21   -1    0    0  501  502 -0.00000000000E+00 -0.00000000000E+00 -0.43222172450E+03  0.43222172450E+03  0.00000000000E+00 0.  1.
         25    1    1    2    0    0  0.17714219210E+03  0.25738025304E+03 -0.16615023787E+03  0.37530634477E+03  0.12500000000E+03 0.  0.
         25    1    1    2    0    0 -0.17714219210E+03 -0.25738025304E+03  0.13821668886E+02  0.33680853524E+03  0.12500000000E+03 0.  0.
</event>
<event>
 4    0  0.2219362E-002  0.3694423E+03  0.7546771E-02  0.1054906E+00
         21   -1    0    0  502  501  0.00000000000E+00  0.00000000000E+00  0.78126623233E+03  0.78126623233E+03  0.00000000000E+00 0.  1.
         21   -1    0    0  501  502 -0.00000000000E+00 -0.00000000000E+00 -0.17470049294E+03  0.17470049294E+03  0.00000000000E+00 0.  1.
         25    1    1    2    0    0 -0.92899701298E+02 -0.17485180198E+03  0.67299904594E+03  0.71257015303E+03  0.12500000000E+03 0.  0.
         25    1    1    2    0    0  0.92899701298E+02  0.17485180198E+03 -0.66433306548E+02  0.24339657224E+03  0.12500000000E+03 0.  0.
</event>
<event>
 4    0  0.2219362E-002  0.2204271E+03  0.7546771E-02  0.1133565E+00
         21   -1    0    0  502  501  0.00000000000E+00  0.00000000000E+00  0.38225791148E+03  0.38225791148E+03  0.00000000000E+00 0. -1.
         21   -1    0    0  501  502 -0.00000000000E+00 -0.00000000000E+00 -0.12710812929E+03  0.12710812929E+03  0.00000000000E+00 0. -1.
         25    1    1    2    0    0  0.15660842718E+03  0.86839590516E+02  0.92994146906E+02  0.23736095994E+03  0.12500000000E+03 0.  0.
         25    1    1    2    0    0 -0.15660842718E+03 -0.86839590516E+02  0.16215563528E+03  0.27200508083E+03  0.12500000000E+03 0.  0.
</event>
<event>
 4    0  0.2219362E-002  0.3466991E+03  0.7546771E-02  0.1063978E+00
         21   -1    0    0  502  501  0.00000000000E+00  0.00000000000E+00  0.19923981925E+03  0.19923981925E+03  0.00000000000E+00 0.  1.
         21   -1    0    0  501  502 -0.00000000000E+00 -0.00000000000E+00 -0.60329436198E+03  0.60329436198E+03  0.00000000000E+00 0.  1.
         25    1    1    2    0    0 -0.29207173461E+03  0.12397892053E+03 -0.12976118225E+03  0.36488304334E+03  0.12500000000E+03 0.  0.
         25    1    1    2    0    0  0.29207173461E+03 -0.12397892053E+03 -0.27429336047E+03  0.43765113789E+03  0.12500000000E+03 0.  0.
</event>
<event>
 4    0  0.2219362E-002  0.2854179E+03  0.7546771E-02  0.1092766E+00
         21   -1    0    0  502  501  0.00000000000E+00  0.00000000000E+00  0.62738756938E+03  0.62738756938E+03  0.00000000000E+00 0. -1.
         21   -1    0    0  501  502 -0.00000000000E+00 -0.00000000000E+00 -0.12984539670E+03  0.12984539670E+03  0.00000000000E+00 0. -1.
         25    1    1    2    0    0 -0.11787628856E+03  0.16266643487E+03  0.37010437201E+02  0.23947851866E+03  0.12500000000E+03 0.  0.
         25    1    1    2    0    0  0.11787628856E+03 -0.16266643487E+03  0.46053173548E+03  0.51775444742E+03  0.12500000000E+03 0.  0.
</event>
<event>
 4    0  0.2219362E-002  0.1700648E+03  0.7546771E-02  0.1177780E+00
         21   -1    0    0  502  501  0.00000000000E+00  0.00000000000E+00  0.11938912203E+03  0.11938912203E+03  0.00000000000E+00 0.  1.
         21   -1    0    0  501  502 -0.00000000000E+00 -0.00000000000E+00 -0.24225020800E+03  0.24225020800E+03  0.00000000000E+00 0.  1.
         25    1    1    2    0    0 -0.30056409028E+02 -0.36237201449E+02 -0.17335144895E+03  0.21884297417E+03  0.12500000000E+03 0.  0.
         25    1    1    2    0    0  0.30056409028E+02  0.36237201449E+02  0.50490362977E+02  0.14279635586E+03  0.12500000000E+03 0.  0.
</event>
<event>
 4    0  0.2219362E-002  0.2163236E+03  0.7546771E-02  0.1136654E+00
         21   -1    0    0  502  501  0.00000000000E+00  0.00000000000E+00  0.15808127117E+02  0.15808127117E+02  0.00000000000E+00 0. -1.
         21   -1    0    0  501  502 -0.00000000000E+00 -0.00000000000E+00 -0.29602419735E+04  0.29602419735E+04  0.00000000000E+00 0. -1.
         25    1    1    2    0    0 -0.11976617163E+03  0.40097757108E+02 -0.62362062692E+03  0.64844386982E+03  0.12500000000E+03 0.  0.
         25    1    1    2    0    0  0.11976617163E+03 -0.40097757108E+02 -0.23208132195E+04  0.23276062308E+04  0.12500000000E+03 0.  0.
</event>
<event>
 4    0  0.2219362E-002  0.1551094E+03  0.7546771E-02  0.1194332E+00
         21   -1    0    0  502  501  0.00000000000E+00  0.00000000000E+00  0.76934528875E+02  0.76934528875E+02  0.00000000000E+00 0.  1.
         21   -1    0    0  501  502 -0.00000000000E+00 -0.00000000000E+00 -0.31271928187E+03  0.31271928187E+03  0.00000000000E+00 0.  1.
         25    1    1    2    0    0  0.31549182941E+02 -0.43795693778E+02 -0.21121781462E+03  0.25129938112E+03  0.12500000000E+03 0.  0.
         25    1    1    2    0    0 -0.31549182941E+02  0.43795693778E+02 -0.24566938383E+02  0.13835442963E+03  0.12500000000E+03 0.  0.
</event>
<event>
 4    0  0.2219362E-002  0.1703634E+03  0.7546771E-02  0.1177469E+00
         21   -1    0    0  502  501  0.00000000000E+00  0.00000000000E+00  0.12686738523E+04  0.12686738523E+04  0.00000000000E+00 0.  1.
         21   -1    0    0  501  502 -0.00000000000E+00 -0.00000000000E+00 -0.22877193441E+02  0.22877193441E+02  0.00000000000E+00 0.  1.
         25    1    1    2    0    0  0.52590334163E+02 -0.45330677355E+02  0.27182296962E+03  0.30713733145E+03  0.12500000000E+03 0.  0.
         25    1    1    2    0    0 -0.52590334163E+02  0.45330677355E+02  0.97397368924E+03  0.98441371429E+03  0.12500000000E+03 0.  0.
</event>
<event>
 4    0  0.2219362E-002  0.3170103E+03  0.7546771E-02  0.1077034E+00
         21   -1    0    0  502  501  0.00000000000E+00  0.00000000000E+00  0.32219474781E+03  0.32219474781E+03  0.00000000000E+00 0. -1.
         21   -1    0    0  501  502 -0.00000000000E+00 -0.00000000000E+00 -0.31190933563E+03  0.31190933563E+03  0.00000000000E+00 0. -1.
         25    1    1    2    0    0  0.20004510260E+03  0.18385268284E+03 -0.99993424157E+02  0.31534669324E+03  0.12500000000E+03 0.  0.
         25    1    1    2    0    0 -0.20004510260E+03 -0.18385268284E+03  0.11027883633E+03  0.31875739020E+03  0.12500000000E+03 0.  0.
</event>
<event>
 4    0  0.2219362E-002  0.2765380E+03  0.7546771E-02  0.1097595E+00
         21   -1    0    0  502  501  0.00000000000E+00  0.00000000000E+00  0.19074397837E+03  0.19074397837E+03  0.00000000000E+00 0.  1.
         21   -1    0    0  501  502 -0.00000000000E+00 -0.00000000000E+00 -0.40092110218E+03  0.40092110218E+03  0.00000000000E+00 0. -1.
         25    1    1    2    0    0  0.14204723792E+03 -0.20165220612E+03 -0.10797020344E+03  0.29685618549E+03  0.12500000000E+03 0.  0.
         25    1    1    2    0    0 -0.14204723792E+03  0.20165220612E+03 -0.10220692037E+03  0.29480889506E+03  0.12500000000E+03 0.  0.
</event>
<event>
 4    0  0.2219362E-002  0.2091371E+03  0.7546771E-02  0.1142251E+00
         21   -1    0    0  502  501  0.00000000000E+00  0.00000000000E+00  0.12073383025E+03  0.12073383025E+03  0.00000000000E+00 0. -1.
         21   -1    0    0  501  502 -0.00000000000E+00 -0.00000000000E+00 -0.36227080721E+03  0.36227080721E+03  0.00000000000E+00 0. -1.
         25    1    1    2    0    0  0.80670612713E+02 -0.14431785519E+03 -0.88560301094E+02  0.22539591392E+03  0.12500000000E+03 0.  0.
         25    1    1    2    0    0 -0.80670612713E+02  0.14431785519E+03 -0.15297667587E+03  0.25760872354E+03  0.12500000000E+03 0.  0.
</event>
<event>
 4    0  0.2219362E-002  0.1878612E+03  0.7546771E-02  0.1160405E+00
         21   -1    0    0  502  501  0.00000000000E+00  0.00000000000E+00  0.24649323635E+03  0.24649323635E+03  0.00000000000E+00 0.  1.
         21   -1    0    0  501  502 -0.00000000000E+00 -0.00000000000E+00 -0.14317568665E+03  0.14317568665E+03  0.00000000000E+00 0.  1.
         25    1    1    2    0    0 -0.13368513843E+03 -0.25794016158E+02  0.16798752279E+02  0.18559160968E+03  0.12500000000E+03 0.  0.
         25    1    1    2    0    0  0.13368513843E+03  0.25794016158E+02  0.86518797422E+02  0.20407731332E+03  0.12500000000E+03 0.  0.
</event>
<event>
 4    0  0.2219362E-002  0.2621295E+03  0.7546771E-02  0.1105870E+00
         21   -1    0    0  502  501  0.00000000000E+00  0.00000000000E+00  0.38777317241E+04  0.38777317241E+04  0.00000000000E+00 0.  1.
         21   -1    0    0  501  502 -0.00000000000E+00 -0.00000000000E+00 -0.17719610283E+02  0.17719610283E+02  0.00000000000E+00 0.  1.
         25    1    1    2    0    0 -0.18493486921E+03  0.94274247295E+02  0.26729843221E+04  0.26839446205E+04  0.12500000000E+03 0.  0.
         25    1    1    2    0    0  0.18493486921E+03 -0.94274247295E+02  0.11870277918E+04  0.12115067139E+04  0.12500000000E+03 0.  0.
</event>
<event>
 4    0  0.2219362E-002  0.2370975E+03  0.7546771E-02  0.1121742E+00
         21   -1    0    0  502  501  0.00000000000E+00  0.00000000000E+00  0.31516286380E+03  0.31516286380E+03  0.00000000000E+00 0.  1.
         21   -1    0    0  501  502 -0.00000000000E+00 -0.00000000000E+00 -0.17836884739E+03  0.17836884739E+03  0.00000000000E+00 0.  1.
         25    1    1    2    0    0 -0.74506510574E+01  0.20750391851E+02 -0.14002936926E+03  0.18899554286E+03  0.12500000000E+03 0.  0.
         25    1    1    2    0    0  0.74506510574E+01 -0.20750391851E+02  0.27682338567E+03  0.30453616833E+03  0.12500000000E+03 0.  0.
</event>
<event>
 4    0  0.2219362E-002  0.2484104E+03  0.7546771E-02  0.1114314E+00
         21   -1    0    0  502  501  0.00000000000E+00  0.00000000000E+00  0.29613111298E+03  0.29613111298E+03  0.00000000000E+00 0.  1.
         21   -1    0    0  501  502 -0.00000000000E+00 -0.00000000000E+00 -0.20837975566E+03  0.20837975566E+03  0.00000000000E+00 0.  1.
         25    1    1    2    0    0 -0.19137349586E+03 -0.78990084564E+02 -0.13743047783E+02  0.24223360572E+03  0.12500000000E+03 0.  0.
         25    1    1    2    0    0  0.19137349586E+03  0.78990084564E+02  0.10149440511E+03  0.26227726292E+03  0.12500000000E+03 0.  0.
</event>
<event>
 4    0  0.2219362E-002  0.2365081E+03  0.7546771E-02  0.1122141E+00
         21   -1    0    0  502  501  0.00000000000E+00  0.00000000000E+00  0.79669114253E+02  0.79669114253E+02  0.00000000000E+00 0.  1.
         21   -1    0    0  501  502 -0.00000000000E+00 -0.00000000000E+00 -0.70210485958E+03  0.70210485958E+03  0.00000000000E+00 0.  1.
         25    1    1    2    0    0 -0.15560988082E+03  0.12480279545E+03 -0.34893878647E+03  0.42091976606E+03  0.12500000000E+03 0.  0.
         25    1    1    2    0    0  0.15560988082E+03 -0.12480279545E+03 -0.27349695886E+03  0.36085420777E+03  0.12500000000E+03 0.  0.
</event>
<event>
 4    0  0.2219362E-002  0.3189924E+03  0.7546771E-02  0.1076114E+00
         21   -1    0    0  502  501  0.00000000000E+00  0.00000000000E+00  0.11237924580E+04  0.11237924580E+04  0.00000000000E+00 0.  1.
         21   -1    0    0  501  502 -0.00000000000E+00 -0.00000000000E+00 -0.90547106877E+02  0.90547106877E+02  0.00000000000E+00 0. -1.
         25    1    1    2    0    0  0.10167504412E+03  0.24502722668E+03  0.75553524502E+03  0.81045336873E+03  0.12500000000E+03 0.  0.
         25    1    1    2    0    0 -0.10167504412E+03 -0.24502722668E+03  0.27771010613E+03  0.40388619617E+03  0.12500000000E+03 0.  0.
</event>
<event>
 4    0  0.2219362E-002  0.1875134E+03  0.7546771E-02  0.1160723E+00
         21   -1    0    0  502  501  0.00000000000E+00  0.00000000000E+00  0.36175582225E+03  0.36175582225E+03  0.00000000000E+00 0. -1.
         21   -1    0    0  501  502 -0.00000000000E+00 -0.00000000000E+00 -0.97196189471E+02  0.97196189471E+02  0.00000000000E+00 0. -1.
         25    1    1    2    0    0 -0.11720173364E+03  0.56968795837E+02  0.70426053009E+02  0.19382084256E+03  0.12500000000E+03 0.  0.
         25    1    1    2    0    0  0.11720173364E+03 -0.56968795837E+02  0.19413357977E+03  0.26513116916E+03  0.12500000000E+03 0.  0.
</event>
<event>
 4    0  0.2219362E-002  0.2352377E+03  0.7546771E-02  0.1123007E+00
         21   -1    0    0  502  501  0.00000000000E+00  0.00000000000E+00  0.16154542418E+03  0.16154542418E+03  0.00000000000E+00 0. -1.
         21   -1    0    0  501  502 -0.00000000000E+00 -0.00000000000E+00 -0.34254621750E+03  0.34254621750E+03  0.00000000000E+00 0. -1.
         25    1    1    2    0    0 -0.10792765819E+03 -0.16419531577E+03 -0.12608957739E+03  0.26482458846E+03  0.12500000000E+03 0.  0.
         25    1    1    2    0    0  0.10792765819E+03  0.16419531577E+03 -0.54911215934E+02  0.23926705322E+03  0.12500000000E+03 0.  0.
</event>
<event>
 4    0  0.2219362E-002  0.3120581E+03  0.7546771E-02  0.1079364E+00
         21   -1    0    0  502  501  0.00000000000E+00  0.00000000000E+00  0.87025840353E+02  0.87025840353E+02  0.00000000000E+00 0. -1.
         21   -1    0    0  501  502 -0.00000000000E+00 -0.00000000000E+00 -0.11189811663E+04  0.11189811663E+04  0.00000000000E+00 0. -1.
         25    1    1    2    0    0  0.17584026059E+03 -0.16638121775E+03 -0.22195161415E+03  0.35141147660E+03  0.12500000000E+03 0.  0.
         25    1    1    2    0    0 -0.17584026059E+03  0.16638121775E+03 -0.81000371183E+03  0.85459553008E+03  0.12500000000E+03 0.  0.
</event>
<event>
 4    0  0.2219362E-002  0.2254495E+03  0.7546771E-02  0.1129884E+00
         21   -1    0    0  502  501  0.00000000000E+00  0.00000000000E+00  0.23245477590E+03  0.23245477590E+03  0.00000000000E+00 0. -1.
         21   -1    0    0  501  502 -0.00000000000E+00 -0.00000000000E+00 -0.21865543176E+03  0.21865543176E+03  0.00000000000E+00 0. -1.
         25    1    1    2    0    0 -0.26417801961E+02  0.31916591822E+02  0.18997696041E+03  0.23115539055E+03  0.12500000000E+03 0.  0.
         25    1    1    2    0    0  0.26417801961E+02 -0.31916591822E+02 -0.17617761627E+03  0.21995481711E+03  0.12500000000E+03 0.  0.
</event>
