<event>
 4    0  0.2270578E-002  0.2206928E+03  0.7546771E-02  0.1133368E+00
         21   -1    0    0  502  501  0.00000000000E+00  0.00000000000E+00  0.14863161731E+03  0.14863161731E+03  0.00000000000E+00 0.  1.
         21   -1    0    0  501  502 -0.00000000000E+00 -0.00000000000E+00 -0.32769159698E+03  0.32769159698E+03  0.00000000000E+00 0.  1.
         25    1    1    2    0    0  0.10366537178E+03  0.14876223590E+03 -0.74130951086E+02  0.23237278249E+03  0.12500000000E+03 0.  0.
         25    1    1    2    0    0 -0.10366537178E+03 -0.14876223590E+03 -0.10492902859E+03  0.24395043180E+03  0.12500000000E+03 0.  0.
</event>
<event>
 4    0  0.2270578E-002  0.1614584E+03  0.7546771E-02  0.1187060E+00
         21   -1    0    0  502  501  0.00000000000E+00  0.00000000000E+00  0.12978135677E+03  0.12978135677E+03  0.00000000000E+00 0.  1.
         21   -1    0    0  501  502 -0.00000000000E+00 -0.00000000000E+00 -0.20086729669E+03  0.20086729669E+03  0.00000000000E+00 0.  1.
         25    1    1    2    0    0 -0.24061317208E+01  0.45458020514E+02  0.58144274049E+02  0.14518256680E+03  0.12500000000E+03 0.  0.
         25    1    1    2    0    0  0.24061317208E+01 -0.45458020514E+02 -0.12923021396E+03  0.18546608666E+03  0.12500000000E+03 0.  0.
</event>
<event>
 4    0  0.2270578E-002  0.2178269E+03  0.7546771E-02  0.1135514E+00
         21   -1    0    0  502  501  0.00000000000E+00  0.00000000000E+00  0.23459134812E+03  0.23459134812E+03  0.00000000000E+00 0. -1.
         21   -1    0    0  501  502 -0.00000000000E+00 -0.00000000000E+00 -0.20226050402E+03  0.20226050402E+03  0.00000000000E+00 0.  1.
         25    1    1    2    0    0  0.11541321814E+03  0.83608817670E+02  0.12375875776E+03  0.22638877056E+03  0.12500000000E+03 0.  0.
         25    1    1    2    0    0 -0.11541321814E+03 -0.83608817670E+02 -0.91427913660E+02  0.21046308158E+03  0.12500000000E+03 0.  0.
</event>
<event>
 4    0  0.2270578E-002  0.1835216E+03  0.7546771E-02  0.1164438E+00
         21   -1    0    0  502  501  0.00000000000E+00  0.00000000000E+00  0.23897104280E+02  0.23897104280E+02  0.00000000000E+00 0. -1.
         21   -1    0    0  501  502 -0.00000000000E+00 -0.00000000000E+00 -0.14093834613E+04  0.14093834613E+04  0.00000000000E+00 0. -1.
         25    1    1    2    0    0 -0.14906966668E+02  0.65866329059E+02 -0.11463649396E+04  0.11551355616E+04  0.12500000000E+03 0.  0.
         25    1    1    2    0    0  0.14906966668E+02 -0.65866329059E+02 -0.23912141737E+03  0.27814500392E+03  0.12500000000E+03 0.  0.
</event>
<event>
 4    0  0.2270578E-002  0.2793753E+03  0.7546771E-02  0.1096031E+00
         21   -1    0    0  502  501  0.00000000000E+00  0.00000000000E+00  0.30770057327E+03  0.30770057327E+03  0.00000000000E+00 0. -1.
         21   -1    0    0  501  502 -0.00000000000E+00 -0.00000000000E+00 -0.25365743626E+03  0.25365743626E+03  0.00000000000E+00 0. -1.
         25    1    1    2    0    0 -0.23602834546E+03  0.57251307966E+02  0.85933479016E+02  0.28635058048E+03  0.12500000000E+03 0.  0.
         25    1    1    2    0    0  0.23602834546E+03 -0.57251307966E+02 -0.31890342006E+02  0.27500742906E+03  0.12500000000E+03 0.  0.
</event>
<event>
 4    0  0.2270578E-002  0.2059285E+03  0.7546771E-02  0.1144831E+00
         21   -1    0    0  502  501  0.00000000000E+00  0.00000000000E+00  0.26662160860E+02  0.26662160860E+02  0.00000000000E+00 0. -1.
         21   -1    0    0  501  502 -0.00000000000E+00 -0.00000000000E+00 -0.15905140830E+04  0.15905140830E+04  0.00000000000E+00 0. -1.
         25    1    1    2    0    0  0.13467125306E+03 -0.22493029527E+02 -0.42768125014E+03  0.46602417802E+03  0.12500000000E+03 0.  0.
         25    1    1    2    0    0 -0.13467125306E+03  0.22493029527E+02 -0.11361706720E+04  0.11511520658E+04  0.12500000000E+03 0.  0.
</event>
<event>
 4    0  0.2270578E-002  0.2645403E+03  0.7546771E-02  0.1104446E+00
         21   -1    0    0  502  501  0.00000000000E+00  0.00000000000E+00  0.48479904443E+03  0.48479904443E+03  0.00000000000E+00 0. -1.
         21   -1    0    0  501  502 -0.00000000000E+00 -0.00000000000E+00 -0.14435168492E+03  0.14435168492E+03  0.00000000000E+00 0. -1.
         25    1    1    2    0    0 -0.20639067065E+03  0.81866238639E+01  0.29880718963E+03  0.38415474267E+03  0.12500000000E+03 0.  0.
         25    1    1    2    0    0  0.20639067065E+03 -0.81866238639E+01  0.41640169885E+02  0.24499598668E+03  0.12500000000E+03 0.  0.
</event>
<event>
 4    0  0.2270578E-002  0.2239486E+03  0.7546771E-02  0.1130973E+00
         21   -1    0    0  502  501  0.00000000000E+00  0.00000000000E+00  0.10577249236E+03  0.10577249236E+03  0.00000000000E+00 0.  1.
         21   -1    0    0  501  502 -0.00000000000E+00 -0.00000000000E+00 -0.47415880240E+03  0.47415880240E+03  0.00000000000E+00 0.  1.
         25    1    1    2    0    0 -0.16180706791E+03 -0.49476164357E+02 -0.84750995935E+02  0.22679759561E+03  0.12500000000E+03 0.  0.
         25    1    1    2    0    0  0.16180706791E+03  0.49476164357E+02 -0.28363531410E+03  0.35313369914E+03  0.12500000000E+03 0.  0.
</event>
<event>
 4    0  0.2270578E-002  0.1502614E+03  0.7546771E-02  0.1200152E+00
         21   -1    0    0  502  501  0.00000000000E+00  0.00000000000E+00  0.88589912542E+03  0.88589912542E+03  0.00000000000E+00 0.  1.
         21   -1    0    0  501  502 -0.00000000000E+00 -0.00000000000E+00 -0.25486509930E+02  0.25486509930E+02  0.00000000000E+00 0.  1.
         25    1    1    2    0    0 -0.30695616218E+00  0.69676001680E+01  0.68220687669E+03  0.69359921012E+03  0.12500000000E+03 0.  0.
         25    1    1    2    0    0  0.30695616218E+00 -0.69676001680E+01  0.17820573880E+03  0.21778642523E+03  0.12500000000E+03 0.  0.
</event>
<event>
 4    0  0.2270578E-002  0.2179094E+03  0.7546771E-02  0.1135451E+00
         21   -1    0    0  502  501  0.00000000000E+00  0.00000000000E+00  0.72841099834E+03  0.72841099834E+03  0.00000000000E+00 0. -1.
         21   -1    0    0  501  502 -0.00000000000E+00 -0.00000000000E+00 -0.65189165746E+02  0.65189165746E+02  0.00000000000E+00 0. -1.
         25    1    1    2    0    0 -0.13826100915E+02  0.10882912501E+03  0.75222950731E+02  0.18253337184E+03  0.12500000000E+03 0.  0.
         25    1    1    2    0    0  0.13826100915E+02 -0.10882912501E+03  0.58799888187E+03  0.61106679225E+03  0.12500000000E+03 0.  0.
</event>
<event>
 4    0  0.2270578E-002  0.3033012E+03  0.7546771E-02  0.1083602E+00
         21   -1    0    0  502  501  0.00000000000E+00  0.00000000000E+00  0.29483705110E+03  0.29483705110E+03  0.00000000000E+00 0.  1.
         21   -1    0    0  501  502 -0.00000000000E+00 -0.00000000000E+00 -0.31200842827E+03  0.31200842827E+03  0.00000000000E+00 0.  1.
         25    1    1    2    0    0  0.18961749312E+03 -0.19125717983E+03  0.53346640948E+02  0.30167029458E+03  0.12500000000E+03 0.  0.
         25    1    1    2    0    0 -0.18961749312E+03  0.19125717983E+03 -0.70518018124E+02  0.30517518479E+03  0.12500000000E+03 0.  0.
</event>
<event>
 4    0  0.2270578E-002  0.3676428E+03  0.7546771E-02  0.1055598E+00
         21   -1    0    0  502  501  0.00000000000E+00  0.00000000000E+00  0.70488544690E+02  0.70488544690E+02  0.00000000000E+00 0.  1.
         21   -1    0    0  501  502 -0.00000000000E+00 -0.00000000000E+00 -0.19174920404E+04  0.19174920404E+04  0.00000000000E+00 0.  1.
         25    1    1    2    0    0  0.16812812442E+03  0.74564799780E+02 -0.17150363918E+04  0.17293934777E+04  0.12500000000E+03 0.  0.
         25    1    1    2    0    0 -0.16812812442E+03 -0.74564799780E+02 -0.13196710392E+03  0.25858710738E+03  0.12500000000E+03 0.  0.
</event>
<event>
 4    0  0.2270578E-002  0.2070984E+03  0.7546771E-02  0.1143885E+00
         21   -1    0    0  502  501  0.00000000000E+00  0.00000000000E+00  0.26960273481E+03  0.26960273481E+03  0.00000000000E+00 0.  1.
         21   -1    0    0  501  502 -0.00000000000E+00 -0.00000000000E+00 -0.15908495225E+03  0.15908495225E+03  0.00000000000E+00 0.  1.
         25    1    1    2    0    0 -0.64463772431E+02  0.36855944338E+02 -0.97382364390E+02  0.17499218121E+03  0.12500000000E+03 0.  0.
         25    1    1    2    0    0  0.64463772431E+02 -0.36855944338E+02  0.20790014695E+03  0.25369550585E+03  0.12500000000E+03 0.  0.
</event>
<event>
 4    0  0.2270578E-002  0.2039427E+03  0.7546771E-02  0.1146455E+00
         21   -1    0    0  502  501  0.00000000000E+00  0.00000000000E+00  0.69124952837E+03  0.69124952837E+03  0.00000000000E+00 0.  1.
         21   -1    0    0  501  502 -0.00000000000E+00 -0.00000000000E+00 -0.60170221788E+02  0.60170221788E+02  0.00000000000E+00 0.  1.
         25    1    1    2    0    0  0.84861038899E+01 -0.69921148998E+01  0.19365459482E+02  0.12696820331E+03  0.12500000000E+03 0.  0.
         25    1    1    2    0    0 -0.84861038899E+01  0.69921148998E+01  0.61171384710E+03  0.62445154685E+03  0.12500000000E+03 0.  0.
</event>
<event>
 4    0  0.2270578E-002  0.1820369E+03  0.7546771E-02  0.1165846E+00
         21   -1    0    0  502  501  0.00000000000E+00  0.00000000000E+00  0.88968452877E+02  0.88968452877E+02  0.00000000000E+00 0. -1.
         21   -1    0    0  501  502 -0.00000000000E+00 -0.00000000000E+00 -0.37246277936E+03  0.37246277936E+03  0.00000000000E+00 0. -1.
         25    1    1    2    0    0 -0.87421553164E+01 -0.39521975615E+02  0.17936713363E+02  0.13260896471E+03  0.12500000000E+03 0.  0.
         25    1    1    2    0    0  0.87421553164E+01  0.39521975615E+02 -0.30143103985E+03  0.32882226753E+03  0.12500000000E+03 0.  0.
</event>
<event>
 4    0  0.2270578E-002  0.2584167E+03  0.7546771E-02  0.1108098E+00
         21   -1    0    0  502  501  0.00000000000E+00  0.00000000000E+00  0.65891679982E+02  0.65891679982E+02  0.00000000000E+00 0.  1.
         21   -1    0    0  501  502 -0.00000000000E+00 -0.00000000000E+00 -0.10134693086E+04  0.10134693086E+04  0.00000000000E+00 0.  1.
         25    1    1    2    0    0 -0.11896697832E+03  0.13636968413E+03 -0.75710835045E+03  0.78840845188E+03  0.12500000000E+03 0.  0.
         25    1    1    2    0    0  0.11896697832E+03 -0.13636968413E+03 -0.19046927814E+03  0.29095253667E+03  0.12500000000E+03 0.  0.
</event>
<event>
 4    0  0.2270578E-002  0.3662201E+03  0.7546771E-02  0.1056148E+00
         21   -1    0    0  502  501  0.00000000000E+00  0.00000000000E+00  0.35274275648E+04  0.35274275648E+04  0.00000000000E+00 0.  1.
         21   -1    0    0  501  502 -0.00000000000E+00 -0.00000000000E+00 -0.38021227517E+02  0.38021227517E+02  0.00000000000E+00 0.  1.
         25    1    1    2    0    0  0.86321055623E+02  0.86517118950E+02  0.17820871638E+03  0.24963950630E+03  0.12500000000E+03 0.  0.
         25    1    1    2    0    0 -0.86321055623E+02 -0.86517118950E+02  0.33111976209E+04  0.33158092860E+04  0.12500000000E+03 0.  0.
</event>
<event>
 4    0  0.2270578E-002  0.1883048E+03  0.7546771E-02  0.1159999E+00
         21   -1    0    0  502  501  0.00000000000E+00  0.00000000000E+00  0.91988839256E+02  0.91988839256E+02  0.00000000000E+00 0. -1.
         21   -1    0    0  501  502 -0.00000000000E+00 -0.00000000000E+00 -0.38546725773E+03  0.38546725773E+03  0.00000000000E+00 0. -1.
         25    1    1    2    0    0  0.23729420374E+02 -0.27667804097E+01  0.29216545515E+02  0.13057314807E+03  0.12500000000E+03 0.  0.
         25    1    1    2    0    0 -0.23729420374E+02  0.27667804097E+01 -0.32269496399E+03  0.34688294891E+03  0.12500000000E+03 0.  0.
</event>
<event>
 4    0  0.2270578E-002  0.1827960E+03  0.7546771E-02  0.1165124E+00
         21   -1    0    0  502  501  0.00000000000E+00  0.00000000000E+00  0.43403091897E+02  0.43403091897E+02  0.00000000000E+00 0. -1.
         21   -1    0    0  501  502 -0.00000000000E+00 -0.00000000000E+00 -0.76986142182E+03  0.76986142182E+03  0.00000000000E+00 0. -1.
         25    1    1    2    0    0  0.97421303110E+02  0.27861057254E+02 -0.17029543993E+03  0.23429188136E+03  0.12500000000E+03 0.  0.
         25    1    1    2    0    0 -0.97421303110E+02 -0.27861057254E+02 -0.55616289000E+03  0.57897263236E+03  0.12500000000E+03 0.  0.
</event>
<event>
 4    0  0.2270578E-002  0.1881245E+03  0.7546771E-02  0.1160164E+00
         21   -1    0    0  502  501  0.00000000000E+00  0.00000000000E+00  0.12479674855E+04  0.12479674855E+04  0.00000000000E+00 0.  1.
         21   -1    0    0  501  502 -0.00000000000E+00 -0.00000000000E+00 -0.28358787287E+02  0.28358787287E+02  0.00000000000E+00 0.  1.
         25    1    1    2    0    0 -0.10057182822E+03  0.97288314460E+02  0.56352352436E+03  0.59393894574E+03  0.12500000000E+03 0.  0.
         25    1    1    2    0    0  0.10057182822E+03 -0.97288314460E+02  0.65608517383E+03  0.68238732702E+03  0.12500000000E+03 0.  0.
</event>
<event>
 4    0  0.2270578E-002  0.2542867E+03  0.7546771E-02  0.1110625E+00
         21   -1    0    0  502  501  0.00000000000E+00  0.00000000000E+00  0.15550108771E+03  0.15550108771E+03  0.00000000000E+00 0. -1.
         21   -1    0    0  501  502 -0.00000000000E+00 -0.00000000000E+00 -0.41582797436E+03  0.41582797436E+03  0.00000000000E+00 0. -1.
         25    1    1    2    0    0  0.19632744232E+03  0.10160785543E+03 -0.14472784375E+03  0.29230082047E+03  0.12500000000E+03 0.  0.
         25    1    1    2    0    0 -0.19632744232E+03 -0.10160785543E+03 -0.11559904290E+03  0.27902824160E+03  0.12500000000E+03 0.  0.
</event>
<event>
 4    0  0.2270578E-002  0.1771059E+03  0.7546771E-02  0.1170634E+00
         21   -1    0    0  502  501  0.00000000000E+00  0.00000000000E+00  0.25651169675E+03  0.25651169675E+03  0.00000000000E+00 0. -1.
         21   -1    0    0  501  502 -0.00000000000E+00 -0.00000000000E+00 -0.12228101852E+03  0.12228101852E+03  0.00000000000E+00 0. -1.
         25    1    1    2    0    0  0.55176405524E+02 -0.55857184197E+02  0.17176899577E+03  0.22648189478E+03  0.12500000000E+03 0.  0.
         25    1    1    2    0    0 -0.55176405524E+02  0.55857184197E+02 -0.37538317542E+02  0.15231082049E+03  0.12500000000E+03 0.  0.
</event>
<event>
 4    0  0.2270578E-002  0.1486528E+03  0.7546771E-02  0.1202138E+00
         21   -1    0    0  502  501  0.00000000000E+00  0.00000000000E+00  0.22295800615E+03  0.22295800615E+03  0.00000000000E+00 0. -1.
         21   -1    0    0  501  502 -0.00000000000E+00 -0.00000000000E+00 -0.99111306835E+02  0.99111306835E+02  0.00000000000E+00 0. -1.
         25    1    1    2    0    0 -0.74508756491E+02  0.21126349167E+02  0.85527768237E+02  0.17011136518E+03  0.12500000000E+03 0.  0.
         25    1    1    2    0    0  0.74508756491E+02 -0.21126349167E+02  0.38318931077E+02  0.15195794781E+03  0.12500000000E+03 0.  0.
</event>
<event>
 4    0  0.2270578E-002  0.3063042E+03  0.7546771E-02  0.1082131E+00
         21   -1    0    0  502  501  0.00000000000E+00  0.00000000000E+00  0.94524778964E+02  0.94524778964E+02  0.00000000000E+00 0. -1.
         21   -1    0    0  501  502 -0.00000000000E+00 -0.00000000000E+00 -0.99256774085E+03  0.99256774085E+03  0.00000000000E+00 0. -1.
         25    1    1    2    0    0 -0.55437088192E+02 -0.18573640414E+03 -0.91349074497E+02  0.24807445653E+03  0.12500000000E+03 0.  0.
         25    1    1    2    0    0  0.55437088192E+02  0.18573640414E+03 -0.80669388738E+03  0.83901806328E+03  0.12500000000E+03 0.  0.
</event>
<event>
 4    0  0.2270578E-002  0.1424086E+03  0.7546771E-02  0.1210124E+00
         21   -1    0    0  502  501  0.00000000000E+00  0.00000000000E+00  0.93497306292E+01  0.93497306292E+01  0.00000000000E+00 0.  1.
         21   -1    0    0  501  502 -0.00000000000E+00 -0.00000000000E+00 -0.21690678903E+04  0.21690678903E+04  0.00000000000E+00 0.  1.
         25    1    1    2    0    0 -0.45708625061E+02 -0.15093000960E+02 -0.71002345865E+03  0.72254784541E+03  0.12500000000E+03 0.  0.
         25    1    1    2    0    0  0.45708625061E+02  0.15093000960E+02 -0.14496947010E+04  0.14558697755E+04  0.12500000000E+03 0.  0.
</event>
<event>
 4    0  0.2270578E-002  0.1807815E+03  0.7546771E-02  0.1167049E+00
         21   -1    0    0  502  501  0.00000000000E+00  0.00000000000E+00  0.12115291152E+03  0.12115291152E+03  0.00000000000E+00 0. -1.
         21   -1    0    0  501  502 -0.00000000000E+00 -0.00000000000E+00 -0.26975800410E+03  0.26975800410E+03  0.00000000000E+00 0. -1.
         25    1    1    2    0    0 -0.11465661702E+03  0.62501516115E+02 -0.72037694321E+02  0.19459447255E+03  0.12500000000E+03 0.  0.
         25    1    1    2    0    0  0.11465661702E+03 -0.62501516115E+02 -0.76567398263E+02  0.19631644307E+03  0.12500000000E+03 0.  0.
</event>
<event>
 4    0  0.2270578E-002  0.2206989E+03  0.7546771E-02  0.1133363E+00
         21   -1    0    0  502  501  0.00000000000E+00  0.00000000000E+00  0.16234269168E+03  0.16234269168E+03  0.00000000000E+00 0. -1.
         21   -1    0    0  501  502 -0.00000000000E+00 -0.00000000000E+00 -0.30003212284E+03  0.30003212284E+03  0.00000000000E+00 0. -1.
         25    1    1    2    0    0  0.87046375738E+02  0.81408376047E+02 -0.21277398833E+03  0.27404774279E+03  0.12500000000E+03 0.  0.
         25    1    1    2    0    0 -0.87046375738E+02 -0.81408376047E+02  0.75084557166E+02  0.18832707173E+03  0.12500000000E+03 0.  0.
</event>
<event>
 4    0  0.2270578E-002  0.2299313E+03  0.7546771E-02  0.1126688E+00
         21   -1    0    0  502  501  0.00000000000E+00  0.00000000000E+00  0.33599763589E+02  0.33599763589E+02  0.00000000000E+00 0. -1.
         21   -1    0    0  501  502 -0.00000000000E+00 -0.00000000000E+00 -0.15734748971E+04  0.15734748971E+04  0.00000000000E+00 0. -1.
         25    1    1    2    0    0  0.97601518028E+02  0.15034894943E+03 -0.52006094995E+03  0.56410925766E+03  0.12500000000E+03 0.  0.
         25    1    1    2    0    0 -0.97601518028E+02 -0.15034894943E+03 -0.10198141835E+04  0.10429654030E+04  0.12500000000E+03 0.  0.
</event>
<event>
 4    0  0.2270578E-002  0.3236579E+03  0.7546771E-02  0.1073978E+00
         21   -1    0    0  502  501  0.00000000000E+00  0.00000000000E+00  0.61903263940E+02  0.61903263940E+02  0.00000000000E+00 0. -1.
         21   -1    0    0  501  502 -0.00000000000E+00 -0.00000000000E+00 -0.16922282361E+04  0.16922282361E+04  0.00000000000E+00 0. -1.
         25    1    1    2    0    0 -0.27440742623E+03 -0.60629044669E+01 -0.49690449331E+03  0.58127039307E+03  0.12500000000E+03 0.  0.
         25    1    1    2    0    0  0.27440742623E+03  0.60629044669E+01 -0.11334204788E+04  0.11728611070E+04  0.12500000000E+03 0.  0.
</event>
<event>
 4    0  0.2270578E-002  0.1749500E+03  0.7546771E-02  0.1172782E+00
         21   -1    0    0  502  501  0.00000000000E+00  0.00000000000E+00  0.23710474034E+04  0.23710474034E+04  0.00000000000E+00 0. -1.
         21   -1    0    0  501  502 -0.00000000000E+00 -0.00000000000E+00 -0.12908849799E+02  0.12908849799E+02  0.00000000000E+00 0. -1.
         25    1    1    2    0    0 -0.11421314223E+03  0.59487696806E+01  0.88189395582E+03  0.89802114620E+03  0.12500000000E+03 0.  0.
         25    1    1    2    0    0  0.11421314223E+03 -0.59487696806E+01  0.14762445978E+04  0.14859351070E+04  0.12500000000E+03 0.  0.
</event>
<event>
 4    0  0.2270578E-002  0.2001224E+03  0.7546771E-02  0.1149636E+00
         21   -1    0    0  502  501  0.00000000000E+00  0.00000000000E+00  0.36217959007E+03  0.36217959007E+03  0.00000000000E+00 0.  1.
         21   -1    0    0  501  502 -0.00000000000E+00 -0.00000000000E+00 -0.11057764498E+03  0.11057764498E+03  0.00000000000E+00 0.  1.
         25    1    1    2    0    0  0.79882942424E+02  0.37529625677E+02 -0.26538907231E+02  0.15530315802E+03  0.12500000000E+03 0.  0.
         25    1    1    2    0    0 -0.79882942424E+02 -0.37529625677E+02  0.27814085232E+03  0.31745407703E+03  0.12500000000E+03 0.  0.
</event>
<event>
 4    0  0.2270578E-002  0.2120574E+03  0.7546771E-02  0.1139947E+00
         21   -1    0    0  502  501  0.00000000000E+00  0.00000000000E+00  0.16935499207E+03  0.16935499207E+03  0.00000000000E+00 0.  1.
         21   -1    0    0  501  502 -0.00000000000E+00 -0.00000000000E+00 -0.26552703041E+03  0.26552703041E+03  0.00000000000E+00 0.  1.
         25    1    1    2    0    0  0.15797143601E+03  0.45879694462E+02 -0.97084178852E+02  0.22827671529E+03  0.12500000000E+03 0.  0.
         25    1    1    2    0    0 -0.15797143601E+03 -0.45879694462E+02  0.91214051366E+00  0.20660530719E+03  0.12500000000E+03 0.  0.
</event>
<event>
 4    0  0.2270578E-002  0.1734441E+03  0.7546771E-02  0.1174303E+00
         21   -1    0    0  502  501  0.00000000000E+00  0.00000000000E+00  0.49481797648E+02  0.49481797648E+02  0.00000000000E+00 0.  1.
         21   -1    0    0  501  502 -0.00000000000E+00 -0.00000000000E+00 -0.60795777126E+03  0.60795777126E+03  0.00000000000E+00 0.  1.
         25    1    1    2    0    0  0.62301944638E+02  0.87511447196E+02 -0.38161756619E+03  0.41568828768E+03  0.12500000000E+03 0.  0.
         25    1    1    2    0    0 -0.62301944638E+02 -0.87511447196E+02 -0.17685840742E+03  0.24175128122E+03  0.12500000000E+03 0.  0.
</event>
<event>
 4    0  0.2270578E-002  0.1782184E+03  0.7546771E-02  0.1169538E+00
         21   -1    0    0  502  501  0.00000000000E+00  0.00000000000E+00  0.16277852449E+03  0.16277852449E+03  0.00000000000E+00 0.  1.
         21   -1    0    0  501  502 -0.00000000000E+00 -0.00000000000E+00 -0.19512284682E+03  0.19512284682E+03  0.00000000000E+00 0.  1.
         25    1    1    2    0    0  0.10951543205E+03 -0.30035262537E+02  0.40992079270E+02  0.17378462940E+03  0.12500000000E+03 0.  0.
         25    1    1    2    0    0 -0.10951543205E+03  0.30035262537E+02 -0.73336401602E+02  0.18411674191E+03  0.12500000000E+03 0.  0.
</event>
<event>
 4    0  0.2270578E-002  0.2584382E+03  0.7546771E-02  0.1108085E+00
         21   -1    0    0  502  501  0.00000000000E+00  0.00000000000E+00  0.60943133811E+03  0.60943133811E+03  0.00000000000E+00 0. -1.
         21   -1    0    0  501  502 -0.00000000000E+00 -0.00000000000E+00 -0.10959444127E+03  0.10959444127E+03  0.00000000000E+00 0. -1.
         25    1    1    2    0    0 -0.11292001481E+03  0.11047249579E+03  0.47513113616E+03  0.51607140845E+03  0.12500000000E+03 0.  0.
         25    1    1    2    0    0  0.11292001481E+03 -0.11047249579E+03  0.24705760678E+02  0.20295437093E+03  0.12500000000E+03 0.  0.
</event>
<event>
 4    0  0.2270578E-002  0.1676655E+03  0.7546771E-02  0.1180304E+00
         21   -1    0    0  502  501  0.00000000000E+00  0.00000000000E+00  0.32825872288E+02  0.32825872288E+02  0.00000000000E+00 0.  1.
         21   -1    0    0  501  502 -0.00000000000E+00 -0.00000000000E+00 -0.85638915969E+03  0.85638915969E+03  0.00000000000E+00 0.  1.
         25    1    1    2    0    0 -0.17333585826E+02 -0.86799494518E+02 -0.59264822808E+03  0.61212051729E+03  0.12500000000E+03 0.  0.
         25    1    1    2    0    0  0.17333585826E+02  0.86799494518E+02 -0.23091505932E+03  0.27709451468E+03  0.12500000000E+03 0.  0.
</event>
<event>
 4    0  0.2270578E-002  0.1724665E+03  0.7546771E-02  0.1175300E+00
         21   -1    0    0  502  501  0.00000000000E+00  0.00000000000E+00  0.27009634139E+03  0.27009634139E+03  0.00000000000E+00 0.  1.
         21   -1    0    0  501  502 -0.00000000000E+00 -0.00000000000E+00 -0.11012617303E+03  0.11012617303E+03  0.00000000000E+00 0.  1.
         25    1    1    2    0    0 -0.10613241527E+03  0.52014124778E+02  0.66479320967E+02  0.18442900765E+03  0.12500000000E+03 0.  0.
         25    1    1    2    0    0  0.10613241527E+03 -0.52014124778E+02  0.93490847391E+02  0.19579350677E+03  0.12500000000E+03 0.  0.
</event>
<event>
 4    0  0.2270578E-002  0.2363659E+03  0.7546771E-02  0.1122238E+00
         21   -1    0    0  502  501  0.00000000000E+00  0.00000000000E+00  0.39123516976E+03  0.39123516976E+03  0.00000000000E+00 0.  1.
         21   -1    0    0  501  502 -0.00000000000E+00 -0.00000000000E+00 -0.14280112275E+03  0.14280112275E+03  0.00000000000E+00 0.  1.
         25    1    1    2    0    0 -0.15109713921E+03 -0.85662169401E+02  0.23761065175E+03  0.31976893935E+03  0.12500000000E+03 0.  0.
         25    1    1    2    0    0  0.15109713921E+03  0.85662169401E+02  0.10823395254E+02  0.21426735316E+03  0.12500000000E+03 0.  0.
</event>
<event>
 4    0  0.2270578E-002  0.2283619E+03  0.7546771E-02  0.1127798E+00
         21   -1    0    0  502  501  0.00000000000E+00  0.00000000000E+00  0.16524894628E+03  0.16524894628E+03  0.00000000000E+00 0.  1.
         21   -1    0    0  501  502 -0.00000000000E+00 -0.00000000000E+00 -0.31557937112E+03  0.31557937112E+03  0.00000000000E+00 0.  1.
         25    1    1    2    0    0 -0.16518409279E+03 -0.86705457674E+02 -0.11883373291E+03  0.25406707181E+03  0.12500000000E+03 0.  0.
         25    1    1    2    0    0  0.16518409279E+03  0.86705457674E+02 -0.31496691929E+02  0.22676124559E+03  0.12500000000E+03 0.  0.
</event>
<event>
 4    0  0.2270578E-002  0.1405120E+03  0.7546771E-02  0.1212642E+00
         21   -1    0    0  502  501  0.00000000000E+00  0.00000000000E+00  0.63783555139E+03  0.63783555139E+03  0.00000000000E+00 0. -1.
         21   -1    0    0  501  502 -0.00000000000E+00 -0.00000000000E+00 -0.30954094977E+02  0.30954094977E+02  0.00000000000E+00 0. -1.
         25    1    1    2    0    0 -0.50753275768E+02  0.38833100898E+02  0.31746306585E+03  0.34711914800E+03  0.12500000000E+03 0.  0.
         25    1    1    2    0    0  0.50753275768E+02 -0.38833100898E+02  0.28941839056E+03  0.32167049837E+03  0.12500000000E+03 0.  0.
</event>
<event>
 4    0  0.2270578E-002  0.1776314E+03  0.7546771E-02  0.1170115E+00
         21   -1    0    0  502  501  0.00000000000E+00  0.00000000000E+00  0.17449204064E+03  0.17449204064E+03  0.00000000000E+00 0.  1.
         21   -1    0    0  501  502 -0.00000000000E+00 -0.00000000000E+00 -0.18082718612E+03  0.18082718612E+03  0.00000000000E+00 0.  1.
         25    1    1    2    0    0  0.12415547369E+03  0.22463189031E+02 -0.61223955595E+01  0.17771229624E+03  0.12500000000E+03 0.  0.
         25    1    1    2    0    0 -0.12415547369E+03 -0.22463189031E+02 -0.21274992108E+00  0.17760693052E+03  0.12500000000E+03 0.  0.
</event>
<event>
 4    0  0.2270578E-002  0.2782796E+03  0.7546771E-02  0.1096632E+00
         21   -1    0    0  502  501  0.00000000000E+00  0.00000000000E+00  0.23995766562E+03  0.23995766562E+03  0.00000000000E+00 0.  1.
         21   -1    0    0  501  502 -0.00000000000E+00 -0.00000000000E+00 -0.32272170737E+03  0.32272170737E+03  0.00000000000E+00 0.  1.
         25    1    1    2    0    0 -0.24229305442E+03  0.55658980365E+02 -0.38074775516E+02  0.28085322652E+03  0.12500000000E+03 0.  0.
         25    1    1    2    0    0  0.24229305442E+03 -0.55658980365E+02 -0.44689266237E+02  0.28182614647E+03  0.12500000000E+03 0.  0.
</event>
<event>
 4    0  0.2270578E-002  0.1894158E+03  0.7546771E-02  0.1158989E+00
         21   -1    0    0  502  501  0.00000000000E+00  0.00000000000E+00  0.86437333477E+02  0.86437333477E+02  0.00000000000E+00 0. -1.
         21   -1    0    0  501  502 -0.00000000000E+00 -0.00000000000E+00 -0.41507948879E+03  0.41507948879E+03  0.00000000000E+00 0. -1.
         25    1    1    2    0    0  0.90975298039E+02  0.99509261081E+02 -0.10402017895E+03  0.21124345084E+03  0.12500000000E+03 0.  0.
         25    1    1    2    0    0 -0.90975298039E+02 -0.99509261081E+02 -0.22462197636E+03  0.29027337142E+03  0.12500000000E+03 0.  0.
</event>
<event>
 4    0  0.2270578E-002  0.2303854E+03  0.7546771E-02  0.1126369E+00
         21   -1    0    0  502  501  0.00000000000E+00  0.00000000000E+00  0.17189998748E+03  0.17189998748E+03  0.00000000000E+00 0.  1.
         21   -1    0    0  501  502 -0.00000000000E+00 -0.00000000000E+00 -0.30876934565E+03  0.30876934565E+03  0.00000000000E+00 0.  1.
         25    1    1    2    0    0  0.99192657157E+02 -0.40766573625E+02 -0.23648578876E+03  0.28818678847E+03  0.12500000000E+03 0.  0.
         25    1    1    2    0    0 -0.99192657157E+02  0.40766573625E+02  0.99616430590E+02  0.19248254467E+03  0.12500000000E+03 0.  0.
</event>
<event>
 4    0  0.2270578E-002  0.2524121E+03  0.7546771E-02  0.1111790E+00
         21   -1    0    0  502  501  0.00000000000E+00  0.00000000000E+00  0.25043709917E+03  0.25043709917E+03  0.00000000000E+00 0. -1.
         21   -1    0    0  501  502 -0.00000000000E+00 -0.00000000000E+00 -0.25440258163E+03  0.25440258163E+03  0.00000000000E+00 0. -1.
         25    1    1    2    0    0  0.15899592326E+03 -0.10703356736E+03 -0.10852689548E+03  0.25325673772E+03  0.12500000000E+03 0.  0.
         25    1    1    2    0    0 -0.15899592326E+03  0.10703356736E+03  0.10456141302E+03  0.25158294308E+03  0.12500000000E+03 0.  0.
</event>
<event>
 4    0  0.2270578E-002  0.1932462E+03  0.7546771E-02  0.1155566E+00
         21   -1    0    0  502  501  0.00000000000E+00  0.00000000000E+00  0.23355897709E+03  0.23355897709E+03  0.00000000000E+00 0.  1.
         21   -1    0    0  501  502 -0.00000000000E+00 -0.00000000000E+00 -0.15989156121E+03  0.15989156121E+03  0.00000000000E+00 0.  1.
         25    1    1    2    0    0 -0.12156884709E+03  0.19987836232E+02  0.11916373622E+03  0.21214027013E+03  0.12500000000E+03 0.  0.
         25    1    1    2    0    0  0.12156884709E+03 -0.19987836232E+02 -0.45496320335E+02  0.18131026817E+03  0.12500000000E+03 0.  0.
</event>
<event>
 4    0  0.2270578E-002  0.2780689E+03  0.7546771E-02  0.1096748E+00
         21   -1    0    0  502  501  0.00000000000E+00  0.00000000000E+00  0.24135682360E+03  0.24135682360E+03  0.00000000000E+00 0. -1.
         21   -1    0    0  501  502 -0.00000000000E+00 -0.00000000000E+00 -0.32036512674E+03  0.32036512674E+03  0.00000000000E+00 0. -1.
         25    1    1    2    0    0 -0.19326570142E+03  0.12422042867E+02  0.11759333293E+03  0.25876462364E+03  0.12500000000E+03 0.  0.
         25    1    1    2    0    0  0.19326570142E+03 -0.12422042867E+02 -0.19660163608E+03  0.30295732670E+03  0.12500000000E+03 0.  0.
</event>
<event>
 4    0  0.2270578E-002  0.2357514E+03  0.7546771E-02  0.1122656E+00
         21   -1    0    0  502  501  0.00000000000E+00  0.00000000000E+00  0.58654212900E+03  0.58654212900E+03  0.00000000000E+00 0.  1.
         21   -1    0    0  501  502 -0.00000000000E+00 -0.00000000000E+00 -0.94756577840E+02  0.94756577840E+02  0.00000000000E+00 0.  1.
         25    1    1    2    0    0  0.50348111869E+02  0.10501864230E+03  0.48062459500E+03  0.51008709934E+03  0.12500000000E+03 0.  0.
         25    1    1    2    0    0 -0.50348111869E+02 -0.10501864230E+03  0.11160956158E+02  0.17121160749E+03  0.12500000000E+03 0.  0.
</event>
<event>
 4    0  0.2270578E-002  0.2707311E+03  0.7546771E-02  0.1100862E+00
         21   -1    0    0  502  501  0.00000000000E+00  0.00000000000E+00  0.92820085348E+03  0.92820085348E+03  0.00000000000E+00 0. -1.
         21   -1    0    0  501  502 -0.00000000000E+00 -0.00000000000E+00 -0.78964952008E+02  0.78964952008E+02  0.00000000000E+00 0. -1.
         25    1    1    2    0    0 -0.13456166443E+03  0.17919247684E+03  0.58520643840E+03  0.63899011013E+03  0.12500000000E+03 0.  0.
         25    1    1    2    0    0  0.13456166443E+03 -0.17919247684E+03  0.26402946307E+03  0.36817569537E+03  0.12500000000E+03 0.  0.
</event>
<event>
 4    0  0.2270578E-002  0.1958320E+03  0.7546771E-02  0.1153304E+00
         21   -1    0    0  502  501  0.00000000000E+00  0.00000000000E+00  0.58846503777E+02  0.58846503777E+02  0.00000000000E+00 0.  1.
         21   -1    0    0  501  502 -0.00000000000E+00 -0.00000000000E+00 -0.65169857897E+03  0.65169857897E+03  0.00000000000E+00 0. -1.
         25    1    1    2    0    0 -0.82746720757E+02  0.92179848695E+02 -0.45228675139E+03  0.48531685504E+03  0.12500000000E+03 0.  0.
         25    1    1    2    0    0  0.82746720757E+02 -0.92179848695E+02 -0.14056532381E+03  0.22522822771E+03  0.12500000000E+03 0.  0.
</event>
<event>
 4    0  0.2270578E-002  0.2492592E+03  0.7546771E-02  0.1113774E+00
         21   -1    0    0  502  501  0.00000000000E+00  0.00000000000E+00  0.41841792545E+03  0.41841792545E+03  0.00000000000E+00 0.  1.
         21   -1    0    0  501  502 -0.00000000000E+00 -0.00000000000E+00 -0.14848821436E+03  0.14848821436E+03  0.00000000000E+00 0.  1.
         25    1    1    2    0    0  0.16442698088E+03  0.55026139351E+02  0.28077725080E+03  0.35288096098E+03  0.12500000000E+03 0.  0.
         25    1    1    2    0    0 -0.16442698088E+03 -0.55026139351E+02 -0.10847539712E+02  0.21402517882E+03  0.12500000000E+03 0.  0.
</event>
<event>
 4    0  0.2270578E-002  0.2138794E+03  0.7546771E-02  0.1138530E+00
         21   -1    0    0  502  501  0.00000000000E+00  0.00000000000E+00  0.33618849564E+02  0.33618849564E+02  0.00000000000E+00 0. -1.
         21   -1    0    0  501  502 -0.00000000000E+00 -0.00000000000E+00 -0.13606776698E+04  0.13606776698E+04  0.00000000000E+00 0. -1.
         25    1    1    2    0    0  0.72350657739E+02 -0.15129316036E+03 -0.80912463057E+03  0.83572238563E+03  0.12500000000E+03 0.  0.
         25    1    1    2    0    0 -0.72350657739E+02  0.15129316036E+03 -0.51793418963E+03  0.55857413369E+03  0.12500000000E+03 0.  0.
</event>
<event>
 4    0  0.2270578E-002  0.2333299E+03  0.7546771E-02  0.1124318E+00
         21   -1    0    0  502  501  0.00000000000E+00  0.00000000000E+00  0.24356466884E+02  0.24356466884E+02  0.00000000000E+00 0.  1.
         21   -1    0    0  501  502 -0.00000000000E+00 -0.00000000000E+00 -0.22352516229E+04  0.22352516229E+04  0.00000000000E+00 0.  1.
         25    1    1    2    0    0 -0.18000471162E+03 -0.52122157414E+02 -0.13999571354E+04  0.14179645258E+04  0.12500000000E+03 0.  0.
         25    1    1    2    0    0  0.18000471162E+03  0.52122157414E+02 -0.81093802060E+03  0.84164356396E+03  0.12500000000E+03 0.  0.
</event>
<event>
 4    0  0.2270578E-002  0.2714044E+03  0.7546771E-02  0.1100479E+00
         21   -1    0    0  502  501  0.00000000000E+00  0.00000000000E+00  0.65741820005E+02  0.65741820005E+02  0.00000000000E+00 0. -1.
         21   -1    0    0  501  502 -0.00000000000E+00 -0.00000000000E+00 -0.11204490665E+04  0.11204490665E+04  0.00000000000E+00 0. -1.
         25    1    1    2    0    0  0.32634640118E+02 -0.18078406107E+03 -0.18678961023E+03  0.29028133760E+03  0.12500000000E+03 0.  0.
         25    1    1    2    0    0 -0.32634640118E+02  0.18078406107E+03 -0.86791763626E+03  0.89590954889E+03  0.12500000000E+03 0.  0.
</event>
<event>
 4    0  0.2270578E-002  0.2388661E+03  0.7546771E-02  0.1120551E+00
         21   -1    0    0  502  501  0.00000000000E+00  0.00000000000E+00  0.42819675610E+03  0.42819675610E+03  0.00000000000E+00 0.  1.
         21   -1    0    0  501  502 -0.00000000000E+00 -0.00000000000E+00 -0.13324950118E+03  0.13324950118E+03  0.00000000000E+00 0.  1.
         25    1    1    2    0    0 -0.73542211285E+02 -0.13878570426E+03  0.29962911174E+03  0.36065569890E+03  0.12500000000E+03 0.  0.
         25    1    1    2    0    0  0.73542211285E+02  0.13878570426E+03 -0.46818568175E+01  0.20079055837E+03  0.12500000000E+03 0.  0.
</event>
<event>
 4    0  0.2270578E-002  0.2122492E+03  0.7546771E-02  0.1139797E+00
         21   -1    0    0  502  501  0.00000000000E+00  0.00000000000E+00  0.70037017519E+03  0.70037017519E+03  0.00000000000E+00 0. -1.
         21   -1    0    0  501  502 -0.00000000000E+00 -0.00000000000E+00 -0.64322742044E+02  0.64322742044E+02  0.00000000000E+00 0. -1.
         25    1    1    2    0    0  0.48357346214E+02 -0.14621184055E+03  0.45412680448E+03  0.49555271142E+03  0.12500000000E+03 0.  0.
         25    1    1    2    0    0 -0.48357346214E+02  0.14621184055E+03  0.18192062867E+03  0.26914020582E+03  0.12500000000E+03 0.  0.
</event>
<event>
 4    0  0.2270578E-002  0.1773371E+03  0.7546771E-02  0.1170405E+00
         21   -1    0    0  502  501  0.00000000000E+00  0.00000000000E+00  0.16817256682E+04  0.16817256682E+04  0.00000000000E+00 0. -1.
         21   -1    0    0  501  502 -0.00000000000E+00 -0.00000000000E+00 -0.18700103402E+02  0.18700103402E+02  0.00000000000E+00 0. -1.
         25    1    1    2    0    0 -0.82767263760E+02  0.70222126251E+02  0.11363160686E+04  0.11483121416E+04  0.12500000000E+03 0.  0.
         25    1    1    2    0    0  0.82767263760E+02 -0.70222126251E+02  0.52670949624E+03  0.55211362997E+03  0.12500000000E+03 0.  0.
</event>
<event>
 4    0  0.2270578E-002  0.2901085E+03  0.7546771E-02  0.1090292E+00
         21   -1    0    0  502  501  0.00000000000E+00  0.00000000000E+00  0.17207936310E+03  0.17207936310E+03  0.00000000000E+00 0. -1.
         21   -1    0    0  501  502 -0.00000000000E+00 -0.00000000000E+00 -0.48909389911E+03  0.48909389911E+03  0.00000000000E+00 0. -1.
         25    1    1    2    0    0  0.71771406653E+02  0.30045270436E+01 -0.44538270524E+03  0.46813557451E+03  0.12500000000E+03 0.  0.
         25    1    1    2    0    0 -0.71771406653E+02 -0.30045270436E+01  0.12836816923E+03  0.19303768769E+03  0.12500000000E+03 0.  0.
</event>
<event>
 4    0  0.2270578E-002  0.1980637E+03  0.7546771E-02  0.1151383E+00
         21   -1    0    0  502  501  0.00000000000E+00  0.00000000000E+00  0.58187209798E+03  0.58187209798E+03  0.00000000000E+00 0.  1.
         21   -1    0    0  501  502 -0.00000000000E+00 -0.00000000000E+00 -0.67418977545E+02  0.67418977545E+02  0.00000000000E+00 0.  1.
         25    1    1    2    0    0 -0.13196988277E+03 -0.25724993384E+02  0.37907658383E+03  0.42119102751E+03  0.12500000000E+03 0.  0.
         25    1    1    2    0    0  0.13196988277E+03  0.25724993384E+02  0.13537653660E+03  0.22810004802E+03  0.12500000000E+03 0.  0.
</event>
<event>
 4    0  0.2270578E-002  0.2169147E+03  0.7546771E-02  0.1136204E+00
         21   -1    0    0  502  501  0.00000000000E+00  0.00000000000E+00  0.33958757102E+03  0.33958757102E+03  0.00000000000E+00 0. -1.
         21   -1    0    0  501  502 -0.00000000000E+00 -0.00000000000E+00 -0.13855625372E+03  0.13855625372E+03  0.00000000000E+00 0. -1.
         25    1    1    2    0    0 -0.78453155405E+02  0.38799707477E+02 -0.69396217150E+02  0.16763397582E+03  0.12500000000E+03 0.  0.
         25    1    1    2    0    0  0.78453155405E+02 -0.38799707477E+02  0.27042753445E+03  0.31050984893E+03  0.12500000000E+03 0.  0.
</event>
<event>
 4    0  0.2270578E-002  0.2044662E+03  0.7546771E-02  0.1146025E+00
         21   -1    0    0  502  501  0.00000000000E+00  0.00000000000E+00  0.14079224080E+03  0.14079224080E+03  0.00000000000E+00 0. -1.
         21   -1    0    0  501  502 -0.00000000000E+00 -0.00000000000E+00 -0.29693693600E+03  0.29693693600E+03  0.00000000000E+00 0. -1.
         25    1    1    2    0    0 -0.12305221179E+03  0.10320147237E+03 -0.56959672261E+02  0.21133337406E+03  0.12500000000E+03 0.  0.
         25    1    1    2    0    0  0.12305221179E+03 -0.10320147237E+03 -0.99185022943E+02  0.22639580275E+03  0.12500000000E+03 0.  0.
</event>
<event>
 4    0  0.2270578E-002  0.2296315E+03  0.7546771E-02  0.1126899E+00
         21   -1    0    0  502  501  0.00000000000E+00  0.00000000000E+00  0.26533183009E+02  0.26533183009E+02  0.00000000000E+00 0. -1.
         21   -1    0    0  501  502 -0.00000000000E+00 -0.00000000000E+00 -0.19873460868E+04  0.19873460868E+04  0.00000000000E+00 0. -1.
         25    1    1    2    0    0 -0.13892903192E+03  0.71519695237E+02 -0.14743648883E+04  0.14878821078E+04  0.12500000000E+03 0.  0.
         25    1    1    2    0    0  0.13892903192E+03 -0.71519695237E+02 -0.48644801546E+03  0.52599716203E+03  0.12500000000E+03 0.  0.
</event>
<event>
 4    0  0.2270578E-002  0.2222552E+03  0.7546771E-02  0.1132213E+00
         21   -1    0    0  502  501  0.00000000000E+00  0.00000000000E+00  0.35394698947E+02  0.35394698947E+02  0.00000000000E+00 0. -1.
         21   -1    0    0  501  502 -0.00000000000E+00 -0.00000000000E+00 -0.13956154040E+04  0.13956154040E+04  0.00000000000E+00 0. -1.
         25    1    1    2    0    0 -0.11498772845E+03  0.10025745757E+03 -0.35025200641E+03  0.40196418185E+03  0.12500000000E+03 0.  0.
         25    1    1    2    0    0  0.11498772845E+03 -0.10025745757E+03 -0.10099686987E+04  0.10290459211E+04  0.12500000000E+03 0.  0.
</event>
<event>
 4    0  0.2270578E-002  0.2110134E+03  0.7546771E-02  0.1140766E+00
         21   -1    0    0  502  501  0.00000000000E+00  0.00000000000E+00  0.22355483061E+03  0.22355483061E+03  0.00000000000E+00 0.  1.
         21   -1    0    0  501  502 -0.00000000000E+00 -0.00000000000E+00 -0.19917553852E+03  0.19917553852E+03  0.00000000000E+00 0.  1.
         25    1    1    2    0    0 -0.23052242483E+02  0.16445616896E+03  0.48642849221E+02  0.21346747802E+03  0.12500000000E+03 0.  0.
         25    1    1    2    0    0  0.23052242483E+02 -0.16445616896E+03 -0.24263557128E+02  0.20926289111E+03  0.12500000000E+03 0.  0.
</event>
<event>
 4    0  0.2270578E-002  0.2597190E+03  0.7546771E-02  0.1107312E+00
         21   -1    0    0  502  501  0.00000000000E+00  0.00000000000E+00  0.60733347703E+03  0.60733347703E+03  0.00000000000E+00 0.  1.
         21   -1    0    0  501  502 -0.00000000000E+00 -0.00000000000E+00 -0.11106575809E+03  0.11106575809E+03  0.00000000000E+00 0.  1.
         25    1    1    2    0    0 -0.10347988458E+02  0.21668614833E+03  0.34364304782E+03  0.42517703614E+03  0.12500000000E+03 0.  0.
         25    1    1    2    0    0  0.10347988458E+02 -0.21668614833E+03  0.15262467111E+03  0.29322219898E+03  0.12500000000E+03 0.  0.
</event>
<event>
 4    0  0.2270578E-002  0.3120589E+03  0.7546771E-02  0.1079363E+00
         21   -1    0    0  502  501  0.00000000000E+00  0.00000000000E+00  0.15552691464E+03  0.15552691464E+03  0.00000000000E+00 0. -1.
         21   -1    0    0  501  502 -0.00000000000E+00 -0.00000000000E+00 -0.62613454637E+03  0.62613454637E+03  0.00000000000E+00 0. -1.
         25    1    1    2    0    0  0.15232795515E+03  0.61425494399E+01 -0.53826212440E+03  0.57323001613E+03  0.12500000000E+03 0.  0.
         25    1    1    2    0    0 -0.15232795515E+03 -0.61425494399E+01  0.67654492670E+02  0.20843144487E+03  0.12500000000E+03 0.  0.
</event>
<event>
 4    0  0.2270578E-002  0.1905526E+03  0.7546771E-02  0.1157964E+00
         21   -1    0    0  502  501  0.00000000000E+00  0.00000000000E+00  0.10918377996E+04  0.10918377996E+04  0.00000000000E+00 0. -1.
         21   -1    0    0  501  502 -0.00000000000E+00 -0.00000000000E+00 -0.33256132569E+02  0.33256132569E+02  0.00000000000E+00 0. -1.
         25    1    1    2    0    0 -0.24644392267E+01  0.13753166941E+03  0.40528952702E+03  0.44587625443E+03  0.12500000000E+03 0.  0.
         25    1    1    2    0    0  0.24644392267E+01 -0.13753166941E+03  0.65329213998E+03  0.67921767771E+03  0.12500000000E+03 0.  0.
</event>
<event>
 4    0  0.2270578E-002  0.1986892E+03  0.7546771E-02  0.1150850E+00
         21   -1    0    0  502  501  0.00000000000E+00  0.00000000000E+00  0.14740129021E+04  0.14740129021E+04  0.00000000000E+00 0.  1.
         21   -1    0    0  501  502 -0.00000000000E+00 -0.00000000000E+00 -0.26782258574E+02  0.26782258574E+02  0.00000000000E+00 0.  1.
         25    1    1    2    0    0  0.25329165900E+02 -0.14181504919E+03  0.51335836071E+03  0.54764484963E+03  0.12500000000E+03 0.  0.
         25    1    1    2    0    0 -0.25329165900E+02  0.14181504919E+03  0.93387228281E+03  0.95315031104E+03  0.12500000000E+03 0.  0.
</event>
<event>
 4    0  0.2270578E-002  0.3424685E+03  0.7546771E-02  0.1065749E+00
         21   -1    0    0  502  501  0.00000000000E+00  0.00000000000E+00  0.20816660560E+03  0.20816660560E+03  0.00000000000E+00 0. -1.
         21   -1    0    0  501  502 -0.00000000000E+00 -0.00000000000E+00 -0.56341739366E+03  0.56341739366E+03  0.00000000000E+00 0. -1.
         25    1    1    2    0    0 -0.25837601230E+03  0.10939759160E+03 -0.70291258177E+01  0.30724648963E+03  0.12500000000E+03 0.  0.
         25    1    1    2    0    0  0.25837601230E+03 -0.10939759160E+03 -0.34822166224E+03  0.46433750962E+03  0.12500000000E+03 0.  0.
</event>
<event>
 4    0  0.2270578E-002  0.2213403E+03  0.7546771E-02  0.1132888E+00
         21   -1    0    0  502  501  0.00000000000E+00  0.00000000000E+00  0.53142754373E+02  0.53142754373E+02  0.00000000000E+00 0. -1.
         21   -1    0    0  501  502 -0.00000000000E+00 -0.00000000000E+00 -0.92188525284E+03  0.92188525284E+03  0.00000000000E+00 0. -1.
         25    1    1    2    0    0  0.42618251815E+02  0.65179342175E+02 -0.70437153483E+02  0.16325150727E+03  0.12500000000E+03 0.  0.
         25    1    1    2    0    0 -0.42618251815E+02 -0.65179342175E+02 -0.79830534498E+03  0.81177649994E+03  0.12500000000E+03 0.  0.
</event>
<event>
 4    0  0.2270578E-002  0.2261004E+03  0.7546771E-02  0.1129415E+00
         21   -1    0    0  502  501  0.00000000000E+00  0.00000000000E+00  0.49804495588E+03  0.49804495588E+03  0.00000000000E+00 0.  1.
         21   -1    0    0  501  502 -0.00000000000E+00 -0.00000000000E+00 -0.10264415712E+03  0.10264415712E+03  0.00000000000E+00 0.  1.
         25    1    1    2    0    0 -0.22798746279E+02  0.50600319356E+02 -0.41465702600E+02  0.14291458863E+03  0.12500000000E+03 0.  0.
         25    1    1    2    0    0  0.22798746279E+02 -0.50600319356E+02  0.43686650136E+03  0.45777452437E+03  0.12500000000E+03 0.  0.
</event>
<event>
 4    0  0.2270578E-002  0.2866505E+03  0.7546771E-02  0.1092111E+00
         21   -1    0    0  502  501  0.00000000000E+00  0.00000000000E+00  0.21050184480E+03  0.21050184480E+03  0.00000000000E+00 0. -1.
         21   -1    0    0  501  502 -0.00000000000E+00 -0.00000000000E+00 -0.39034581864E+03  0.39034581864E+03  0.00000000000E+00 0. -1.
         25    1    1    2    0    0  0.14885574297E+03  0.17888361189E+03  0.26718570453E+02  0.26551131958E+03  0.12500000000E+03 0.  0.
         25    1    1    2    0    0 -0.14885574297E+03 -0.17888361189E+03 -0.20656254429E+03  0.33533634387E+03  0.12500000000E+03 0.  0.
</event>
<event>
 4    0  0.2270578E-002  0.3450414E+03  0.7546771E-02  0.1064669E+00
         21   -1    0    0  502  501  0.00000000000E+00  0.00000000000E+00  0.87547676677E+03  0.87547676677E+03  0.00000000000E+00 0.  1.
         21   -1    0    0  501  502 -0.00000000000E+00 -0.00000000000E+00 -0.13598715279E+03  0.13598715279E+03  0.00000000000E+00 0.  1.
         25    1    1    2    0    0  0.25585991648E+03  0.58627944694E+02  0.64209578990E+03  0.70485000969E+03  0.12500000000E+03 0.  0.
         25    1    1    2    0    0 -0.25585991648E+03 -0.58627944694E+02  0.97393824080E+02  0.30661390987E+03  0.12500000000E+03 0.  0.
</event>
<event>
 4    0  0.2270578E-002  0.2009634E+03  0.7546771E-02  0.1148929E+00
         21   -1    0    0  502  501  0.00000000000E+00  0.00000000000E+00  0.12713865776E+04  0.12713865776E+04  0.00000000000E+00 0.  1.
         21   -1    0    0  501  502 -0.00000000000E+00 -0.00000000000E+00 -0.31765540649E+02  0.31765540649E+02  0.00000000000E+00 0.  1.
         25    1    1    2    0    0 -0.13481612662E+03 -0.51954291507E+01  0.35722925287E+03  0.40179611694E+03  0.12500000000E+03 0.  0.
         25    1    1    2    0    0  0.13481612662E+03  0.51954291507E+01  0.88239178405E+03  0.90135600128E+03  0.12500000000E+03 0.  0.
</event>
<event>
 4    0  0.2270578E-002  0.4748598E+03  0.7546771E-02  0.1020557E+00
         21   -1    0    0  502  501  0.00000000000E+00  0.00000000000E+00  0.20820054478E+03  0.20820054478E+03  0.00000000000E+00 0. -1.
         21   -1    0    0  501  502 -0.00000000000E+00 -0.00000000000E+00 -0.10830511256E+04  0.10830511256E+04  0.00000000000E+00 0. -1.
         25    1    1    2    0    0  0.27068331103E+03 -0.99992087436E+02 -0.92118596720E+03  0.97338402420E+03  0.12500000000E+03 0.  0.
         25    1    1    2    0    0 -0.27068331103E+03  0.99992087436E+02  0.46335386423E+02  0.31786764612E+03  0.12500000000E+03 0.  0.
</event>
<event>
 4    0  0.2270578E-002  0.1889706E+03  0.7546771E-02  0.1159393E+00
         21   -1    0    0  502  501  0.00000000000E+00  0.00000000000E+00  0.89741863919E+02  0.89741863919E+02  0.00000000000E+00 0. -1.
         21   -1    0    0  501  502 -0.00000000000E+00 -0.00000000000E+00 -0.39791778623E+03  0.39791778623E+03  0.00000000000E+00 0. -1.
         25    1    1    2    0    0 -0.17095497743E+02  0.96696802318E+02 -0.28594152118E+03  0.32715452184E+03  0.12500000000E+03 0.  0.
         25    1    1    2    0    0  0.17095497743E+02 -0.96696802318E+02 -0.22234401129E+02  0.16050512831E+03  0.12500000000E+03 0.  0.
</event>
<event>
 4    0  0.2270578E-002  0.1971301E+03  0.7546771E-02  0.1152183E+00
         21   -1    0    0  502  501  0.00000000000E+00  0.00000000000E+00  0.13018950776E+03  0.13018950776E+03  0.00000000000E+00 0.  1.
         21   -1    0    0  501  502 -0.00000000000E+00 -0.00000000000E+00 -0.29849020302E+03  0.29849020302E+03  0.00000000000E+00 0.  1.
         25    1    1    2    0    0 -0.11059518010E+03 -0.53795474156E+02  0.13767430669E+02  0.17589709789E+03  0.12500000000E+03 0.  0.
         25    1    1    2    0    0  0.11059518010E+03  0.53795474156E+02 -0.18206812593E+03  0.25278261289E+03  0.12500000000E+03 0.  0.
</event>
<event>
 4    0  0.2270578E-002  0.2595788E+03  0.7546771E-02  0.1107397E+00
         21   -1    0    0  502  501  0.00000000000E+00  0.00000000000E+00  0.10537626740E+03  0.10537626740E+03  0.00000000000E+00 0. -1.
         21   -1    0    0  501  502 -0.00000000000E+00 -0.00000000000E+00 -0.63943369345E+03  0.63943369345E+03  0.00000000000E+00 0. -1.
         25    1    1    2    0    0 -0.14882356731E+03  0.10670258840E+03 -0.46069195130E+03  0.51126898063E+03  0.12500000000E+03 0.  0.
         25    1    1    2    0    0  0.14882356731E+03 -0.10670258840E+03 -0.73365474749E+02  0.23354098022E+03  0.12500000000E+03 0.  0.
</event>
<event>
 4    0  0.2270578E-002  0.1818534E+03  0.7546771E-02  0.1166021E+00
         21   -1    0    0  502  501  0.00000000000E+00  0.00000000000E+00  0.58006488508E+02  0.58006488508E+02  0.00000000000E+00 0.  1.
         21   -1    0    0  501  502 -0.00000000000E+00 -0.00000000000E+00 -0.57012024825E+03  0.57012024825E+03  0.00000000000E+00 0.  1.
         25    1    1    2    0    0  0.77701290749E+02 -0.10480532645E+03 -0.22049437767E+03  0.28506914533E+03  0.12500000000E+03 0.  0.
         25    1    1    2    0    0 -0.77701290749E+02  0.10480532645E+03 -0.29161938207E+03  0.34305759142E+03  0.12500000000E+03 0.  0.
</event>
<event>
 4    0  0.2270578E-002  0.2282268E+03  0.7546771E-02  0.1127894E+00
         21   -1    0    0  502  501  0.00000000000E+00  0.00000000000E+00  0.80921693110E+03  0.80921693110E+03  0.00000000000E+00 0. -1.
         21   -1    0    0  501  502 -0.00000000000E+00 -0.00000000000E+00 -0.64367738524E+02  0.64367738524E+02  0.00000000000E+00 0. -1.
         25    1    1    2    0    0  0.66647892168E+02 -0.10684898748E+03  0.97709683402E+02  0.20256068198E+03  0.12500000000E+03 0.  0.
         25    1    1    2    0    0 -0.66647892168E+02  0.10684898748E+03  0.64713950917E+03  0.67102398764E+03  0.12500000000E+03 0.  0.
</event>
<event>
 4    0  0.2270578E-002  0.1810924E+03  0.7546771E-02  0.1166750E+00
         21   -1    0    0  502  501  0.00000000000E+00  0.00000000000E+00  0.17470314955E+04  0.17470314955E+04  0.00000000000E+00 0.  1.
         21   -1    0    0  501  502 -0.00000000000E+00 -0.00000000000E+00 -0.18771524151E+02  0.18771524151E+02  0.00000000000E+00 0.  1.
         25    1    1    2    0    0  0.27122346962E+02  0.43410074523E+02  0.14522073745E+04  0.14584756820E+04  0.12500000000E+03 0.  0.
         25    1    1    2    0    0 -0.27122346962E+02 -0.43410074523E+02  0.27605259686E+03  0.30732733772E+03  0.12500000000E+03 0.  0.
</event>
<event>
 4    0  0.2270578E-002  0.1965182E+03  0.7546771E-02  0.1152710E+00
         21   -1    0    0  502  501  0.00000000000E+00  0.00000000000E+00  0.23366697956E+03  0.23366697956E+03  0.00000000000E+00 0.  1.
         21   -1    0    0  501  502 -0.00000000000E+00 -0.00000000000E+00 -0.16527534038E+03  0.16527534038E+03  0.00000000000E+00 0.  1.
         25    1    1    2    0    0  0.11865278631E+03  0.46003382734E+02  0.11789456009E+03  0.21381983589E+03  0.12500000000E+03 0.  0.
         25    1    1    2    0    0 -0.11865278631E+03 -0.46003382734E+02 -0.49502920901E+02  0.18512248405E+03  0.12500000000E+03 0.  0.
</event>
<event>
 4    0  0.2270578E-002  0.1994323E+03  0.7546771E-02  0.1150219E+00
         21   -1    0    0  502  501  0.00000000000E+00  0.00000000000E+00  0.13624731950E+04  0.13624731950E+04  0.00000000000E+00 0.  1.
         21   -1    0    0  501  502 -0.00000000000E+00 -0.00000000000E+00 -0.29191946605E+02  0.29191946605E+02  0.00000000000E+00 0.  1.
         25    1    1    2    0    0  0.13228519854E+03 -0.47470973139E+02  0.89795751343E+03  0.91744512804E+03  0.12500000000E+03 0.  0.
         25    1    1    2    0    0 -0.13228519854E+03  0.47470973139E+02  0.43532373500E+03  0.47422001360E+03  0.12500000000E+03 0.  0.
</event>
<event>
 4    0  0.2270578E-002  0.1948811E+03  0.7546771E-02  0.1154131E+00
         21   -1    0    0  502  501  0.00000000000E+00  0.00000000000E+00  0.56304953626E+03  0.56304953626E+03  0.00000000000E+00 0. -1.
         21   -1    0    0  501  502 -0.00000000000E+00 -0.00000000000E+00 -0.67451680020E+02  0.67451680020E+02  0.00000000000E+00 0. -1.
         25    1    1    2    0    0 -0.22094481545E+02  0.14474332896E+03  0.19887078195E+03  0.27679123054E+03  0.12500000000E+03 0.  0.
         25    1    1    2    0    0  0.22094481545E+02 -0.14474332896E+03  0.29672707429E+03  0.35370998574E+03  0.12500000000E+03 0.  0.
</event>
<event>
 4    0  0.2270578E-002  0.1951972E+03  0.7546771E-02  0.1153856E+00
         21   -1    0    0  502  501  0.00000000000E+00  0.00000000000E+00  0.31858355594E+03  0.31858355594E+03  0.00000000000E+00 0. -1.
         21   -1    0    0  501  502 -0.00000000000E+00 -0.00000000000E+00 -0.11959795553E+03  0.11959795553E+03  0.00000000000E+00 0. -1.
         25    1    1    2    0    0 -0.10969166772E+03 -0.10212889194E+03  0.10374751178E+03  0.22102289189E+03  0.12500000000E+03 0.  0.
         25    1    1    2    0    0  0.10969166772E+03  0.10212889194E+03  0.95238088629E+02  0.21715861959E+03  0.12500000000E+03 0.  0.
</event>
<event>
 4    0  0.2270578E-002  0.1885180E+03  0.7546771E-02  0.1159805E+00
         21   -1    0    0  502  501  0.00000000000E+00  0.00000000000E+00  0.15930705513E+03  0.15930705513E+03  0.00000000000E+00 0. -1.
         21   -1    0    0  501  502 -0.00000000000E+00 -0.00000000000E+00 -0.22308502712E+03  0.22308502712E+03  0.00000000000E+00 0. -1.
         25    1    1    2    0    0  0.13358904690E+03 -0.45444321877E+02 -0.30192236779E+02  0.19091304566E+03  0.12500000000E+03 0.  0.
         25    1    1    2    0    0 -0.13358904690E+03  0.45444321877E+02 -0.33585735206E+02  0.19147903659E+03  0.12500000000E+03 0.  0.
</event>
<event>
 4    0  0.2270578E-002  0.1858096E+03  0.7546771E-02  0.1162296E+00
         21   -1    0    0  502  501  0.00000000000E+00  0.00000000000E+00  0.94757103009E+03  0.94757103009E+03  0.00000000000E+00 0.  1.
         21   -1    0    0  501  502 -0.00000000000E+00 -0.00000000000E+00 -0.36435492400E+02  0.36435492400E+02  0.00000000000E+00 0.  1.
         25    1    1    2    0    0  0.80209934867E+02 -0.69912482253E+02  0.68608362554E+03  0.70544817674E+03  0.12500000000E+03 0.  0.
         25    1    1    2    0    0 -0.80209934867E+02  0.69912482253E+02  0.22505191215E+03  0.27855834575E+03  0.12500000000E+03 0.  0.
</event>
<event>
 4    0  0.2270578E-002  0.2088675E+03  0.7546771E-02  0.1142466E+00
         21   -1    0    0  502  501  0.00000000000E+00  0.00000000000E+00  0.55918386925E+03  0.55918386925E+03  0.00000000000E+00 0.  1.
         21   -1    0    0  501  502 -0.00000000000E+00 -0.00000000000E+00 -0.78016577991E+02  0.78016577991E+02  0.00000000000E+00 0.  1.
         25    1    1    2    0    0 -0.89170580311E+02 -0.48145782035E+01  0.24723312307E+02  0.15559824783E+03  0.12500000000E+03 0.  0.
         25    1    1    2    0    0  0.89170580311E+02  0.48145782035E+01  0.45644397895E+03  0.48160219941E+03  0.12500000000E+03 0.  0.
</event>
<event>
 4    0  0.2270578E-002  0.1902740E+03  0.7546771E-02  0.1158214E+00
         21   -1    0    0  502  501  0.00000000000E+00  0.00000000000E+00  0.19169985063E+03  0.19169985063E+03  0.00000000000E+00 0.  1.
         21   -1    0    0  501  502 -0.00000000000E+00 -0.00000000000E+00 -0.18885882660E+03  0.18885882660E+03  0.00000000000E+00 0.  1.
         25    1    1    2    0    0 -0.31875717709E+02 -0.10164749358E+03 -0.94659917888E+02  0.18956205945E+03  0.12500000000E+03 0.  0.
         25    1    1    2    0    0  0.31875717709E+02  0.10164749358E+03  0.97500941912E+02  0.19099661778E+03  0.12500000000E+03 0.  0.
</event>
<event>
 4    0  0.2270578E-002  0.2062786E+03  0.7546771E-02  0.1144547E+00
         21   -1    0    0  502  501  0.00000000000E+00  0.00000000000E+00  0.11907567941E+03  0.11907567941E+03  0.00000000000E+00 0.  1.
         21   -1    0    0  501  502 -0.00000000000E+00 -0.00000000000E+00 -0.35734291971E+03  0.35734291971E+03  0.00000000000E+00 0.  1.
         25    1    1    2    0    0  0.31350820663E+02  0.14364005574E+03 -0.34980008575E+02  0.19612225924E+03  0.12500000000E+03 0.  0.
         25    1    1    2    0    0 -0.31350820663E+02 -0.14364005574E+03 -0.20328723173E+03  0.28029633989E+03  0.12500000000E+03 0.  0.
</event>
<event>
 4    0  0.2270578E-002  0.2081757E+03  0.7546771E-02  0.1143019E+00
         21   -1    0    0  502  501  0.00000000000E+00  0.00000000000E+00  0.47289283725E+03  0.47289283725E+03  0.00000000000E+00 0. -1.
         21   -1    0    0  501  502 -0.00000000000E+00 -0.00000000000E+00 -0.91642618840E+02  0.91642618840E+02  0.00000000000E+00 0. -1.
         25    1    1    2    0    0  0.14004631708E+03  0.51703579616E+02  0.90747696083E+02  0.21481707431E+03  0.12500000000E+03 0.  0.
         25    1    1    2    0    0 -0.14004631708E+03 -0.51703579616E+02  0.29050252233E+03  0.34971838177E+03  0.12500000000E+03 0.  0.
</event>
<event>
 4    0  0.2270578E-002  0.3237910E+03  0.7546771E-02  0.1073918E+00
         21   -1    0    0  502  501  0.00000000000E+00  0.00000000000E+00  0.88852445990E+03  0.88852445990E+03  0.00000000000E+00 0. -1.
         21   -1    0    0  501  502 -0.00000000000E+00 -0.00000000000E+00 -0.11799407148E+03  0.11799407148E+03  0.00000000000E+00 0. -1.
         25    1    1    2    0    0 -0.13545589552E+03 -0.16572293163E+03  0.61456867886E+02  0.25537097781E+03  0.12500000000E+03 0.  0.
         25    1    1    2    0    0  0.13545589552E+03  0.16572293163E+03  0.70907352053E+03  0.75114755356E+03  0.12500000000E+03 0.  0.
</event>
<event>
 4    0  0.2270578E-002  0.2547360E+03  0.7546771E-02  0.1110348E+00
         21   -1    0    0  502  501  0.00000000000E+00  0.00000000000E+00  0.73054432825E+03  0.73054432825E+03  0.00000000000E+00 0. -1.
         21   -1    0    0  501  502 -0.00000000000E+00 -0.00000000000E+00 -0.88824754755E+02  0.88824754755E+02  0.00000000000E+00 0. -1.
         25    1    1    2    0    0  0.93456839685E+02 -0.15797854665E+03  0.52156545044E+03  0.56687469619E+03  0.12500000000E+03 0.  0.
         25    1    1    2    0    0 -0.93456839685E+02  0.15797854665E+03  0.12015412306E+03  0.25249438682E+03  0.12500000000E+03 0.  0.
</event>
<event>
 4    0  0.2270578E-002  0.2603830E+03  0.7546771E-02  0.1106913E+00
         21   -1    0    0  502  501  0.00000000000E+00  0.00000000000E+00  0.18923134741E+03  0.18923134741E+03  0.00000000000E+00 0.  1.
         21   -1    0    0  501  502 -0.00000000000E+00 -0.00000000000E+00 -0.35828805008E+03  0.35828805008E+03  0.00000000000E+00 0.  1.
         25    1    1    2    0    0 -0.15580162117E+03 -0.14312954650E+03  0.60004073568E+01  0.24580727640E+03  0.12500000000E+03 0.  0.
         25    1    1    2    0    0  0.15580162117E+03  0.14312954650E+03 -0.17505711002E+03  0.30171212109E+03  0.12500000000E+03 0.  0.
</event>
<event>
 4    0  0.2270578E-002  0.2701466E+03  0.7546771E-02  0.1101196E+00
         21   -1    0    0  502  501  0.00000000000E+00  0.00000000000E+00  0.83721759855E+03  0.83721759855E+03  0.00000000000E+00 0. -1.
         21   -1    0    0  501  502 -0.00000000000E+00 -0.00000000000E+00 -0.87168725819E+02  0.87168725819E+02  0.00000000000E+00 0. -1.
         25    1    1    2    0    0 -0.12153695087E+01 -0.23319946390E+03  0.46827579341E+03  0.53785749580E+03  0.12500000000E+03 0.  0.
         25    1    1    2    0    0  0.12153695087E+01  0.23319946390E+03  0.28177307931E+03  0.38652882857E+03  0.12500000000E+03 0.  0.
</event>
<event>
 4    0  0.2270578E-002  0.2230491E+03  0.7546771E-02  0.1131630E+00
         21   -1    0    0  502  501  0.00000000000E+00  0.00000000000E+00  0.90992630437E+03  0.90992630437E+03  0.00000000000E+00 0.  1.
         21   -1    0    0  501  502 -0.00000000000E+00 -0.00000000000E+00 -0.54675747210E+02  0.54675747210E+02  0.00000000000E+00 0.  1.
         25    1    1    2    0    0 -0.13000088244E+03 -0.10935456536E+03  0.58455661973E+03  0.62144194585E+03  0.12500000000E+03 0.  0.
         25    1    1    2    0    0  0.13000088244E+03  0.10935456536E+03  0.27069393743E+03  0.34316010572E+03  0.12500000000E+03 0.  0.
</event>
<event>
 4    0  0.2270578E-002  0.1973165E+03  0.7546771E-02  0.1152023E+00
         21   -1    0    0  502  501  0.00000000000E+00  0.00000000000E+00  0.25357633003E+03  0.25357633003E+03  0.00000000000E+00 0.  1.
         21   -1    0    0  501  502 -0.00000000000E+00 -0.00000000000E+00 -0.15353885539E+03  0.15353885539E+03  0.00000000000E+00 0.  1.
         25    1    1    2    0    0  0.14637316364E+03 -0.14908432635E+02  0.92068940766E+02  0.21389028555E+03  0.12500000000E+03 0.  0.
         25    1    1    2    0    0 -0.14637316364E+03  0.14908432635E+02  0.79685338760E+01  0.19322489987E+03  0.12500000000E+03 0.  0.
</event>
<event>
 4    0  0.2270578E-002  0.1907484E+03  0.7546771E-02  0.1157788E+00
         21   -1    0    0  502  501  0.00000000000E+00  0.00000000000E+00  0.74556533377E+03  0.74556533377E+03  0.00000000000E+00 0. -1.
         21   -1    0    0  501  502 -0.00000000000E+00 -0.00000000000E+00 -0.48801817208E+02  0.48801817208E+02  0.00000000000E+00 0. -1.
         25    1    1    2    0    0  0.33656361388E+02  0.12558733588E+03  0.21909817380E+03  0.28378502313E+03  0.12500000000E+03 0.  0.
         25    1    1    2    0    0 -0.33656361388E+02 -0.12558733588E+03  0.47766534277E+03  0.51058212784E+03  0.12500000000E+03 0.  0.
</event>
<event>
 4    0  0.2270578E-002  0.1897592E+03  0.7546771E-02  0.1158679E+00
         21   -1    0    0  502  501  0.00000000000E+00  0.00000000000E+00  0.43425119716E+03  0.43425119716E+03  0.00000000000E+00 0. -1.
         21   -1    0    0  501  502 -0.00000000000E+00 -0.00000000000E+00 -0.82921060564E+02  0.82921060564E+02  0.00000000000E+00 0. -1.
         25    1    1    2    0    0  0.12423534090E+03  0.49985482418E+02  0.24312387125E+03  0.30441285313E+03  0.12500000000E+03 0.  0.
         25    1    1    2    0    0 -0.12423534090E+03 -0.49985482418E+02  0.10820626535E+03  0.21275940459E+03  0.12500000000E+03 0.  0.
</event>
<event>
 4    0  0.2270578E-002  0.2614842E+03  0.7546771E-02  0.1106255E+00
         21   -1    0    0  502  501  0.00000000000E+00  0.00000000000E+00  0.95051981601E+02  0.95051981601E+02  0.00000000000E+00 0. -1.
         21   -1    0    0  501  502 -0.00000000000E+00 -0.00000000000E+00 -0.71933254021E+03  0.71933254021E+03  0.00000000000E+00 0. -1.
         25    1    1    2    0    0 -0.11395223891E+03 -0.13309511725E+03 -0.54337553047E+03  0.58444964719E+03  0.12500000000E+03 0.  0.
         25    1    1    2    0    0  0.11395223891E+03  0.13309511725E+03 -0.80905028140E+02  0.22993487462E+03  0.12500000000E+03 0.  0.
</event>
<event>
 4    0  0.2270578E-002  0.1812454E+03  0.7546771E-02  0.1166603E+00
         21   -1    0    0  502  501  0.00000000000E+00  0.00000000000E+00  0.74843431450E+02  0.74843431450E+02  0.00000000000E+00 0.  1.
         21   -1    0    0  501  502 -0.00000000000E+00 -0.00000000000E+00 -0.43891511192E+03  0.43891511192E+03  0.00000000000E+00 0.  1.
         25    1    1    2    0    0  0.37877939192E+01  0.12048797706E+03 -0.10848336247E+03  0.20475678238E+03  0.12500000000E+03 0.  0.
         25    1    1    2    0    0 -0.37877939192E+01 -0.12048797706E+03 -0.25558831800E+03  0.30900176099E+03  0.12500000000E+03 0.  0.
</event>
<event>
 4    0  0.2270578E-002  0.2798773E+03  0.7546771E-02  0.1095756E+00
         21   -1    0    0  502  501  0.00000000000E+00  0.00000000000E+00  0.48150372326E+02  0.48150372326E+02  0.00000000000E+00 0.  1.
         21   -1    0    0  501  502 -0.00000000000E+00 -0.00000000000E+00 -0.16268063285E+04  0.16268063285E+04  0.00000000000E+00 0.  1.
         25    1    1    2    0    0 -0.24738361660E+03  0.46258897979E+01 -0.90468813365E+03  0.94620593519E+03  0.12500000000E+03 0.  0.
         25    1    1    2    0    0  0.24738361660E+03 -0.46258897979E+01 -0.67396782253E+03  0.72875076564E+03  0.12500000000E+03 0.  0.
</event>
<event>
 4    0  0.2270578E-002  0.4658172E+03  0.7546771E-02  0.1023107E+00
         21   -1    0    0  502  501  0.00000000000E+00  0.00000000000E+00  0.70568494937E+03  0.70568494937E+03  0.00000000000E+00 0. -1.
         21   -1    0    0  501  502 -0.00000000000E+00 -0.00000000000E+00 -0.30748239533E+03  0.30748239533E+03  0.00000000000E+00 0. -1.
         25    1    1    2    0    0  0.23380402100E+03  0.33991798390E+03  0.39104751009E+03  0.58202380635E+03  0.12500000000E+03 0.  0.
         25    1    1    2    0    0 -0.23380402100E+03 -0.33991798390E+03  0.71550439528E+01  0.43114353836E+03  0.12500000000E+03 0.  0.
</event>
<event>
 4    0  0.2270578E-002  0.1898649E+03  0.7546771E-02  0.1158583E+00
         21   -1    0    0  502  501  0.00000000000E+00  0.00000000000E+00  0.10148904160E+03  0.10148904160E+03  0.00000000000E+00 0.  1.
         21   -1    0    0  501  502 -0.00000000000E+00 -0.00000000000E+00 -0.35519779772E+03  0.35519779772E+03  0.00000000000E+00 0.  1.
         25    1    1    2    0    0 -0.11526660947E+03  0.82325563671E+02 -0.10404197805E+03  0.21567017153E+03  0.12500000000E+03 0.  0.
         25    1    1    2    0    0  0.11526660947E+03 -0.82325563671E+02 -0.14966677807E+03  0.24101666778E+03  0.12500000000E+03 0.  0.
</event>
<event>
 4    0  0.2270578E-002  0.1869816E+03  0.7546771E-02  0.1161212E+00
         21   -1    0    0  502  501  0.00000000000E+00  0.00000000000E+00  0.35465577920E+02  0.35465577920E+02  0.00000000000E+00 0.  1.
         21   -1    0    0  501  502 -0.00000000000E+00 -0.00000000000E+00 -0.98580462360E+03  0.98580462360E+03  0.00000000000E+00 0.  1.
         25    1    1    2    0    0  0.12535567842E+03 -0.27799136905E+02 -0.32936988714E+03  0.37496181229E+03  0.12500000000E+03 0.  0.
         25    1    1    2    0    0 -0.12535567842E+03  0.27799136905E+02 -0.62096915855E+03  0.64630838923E+03  0.12500000000E+03 0.  0.
</event>
<event>
 4    0  0.2270578E-002  0.2008027E+03  0.7546771E-02  0.1149064E+00
         21   -1    0    0  502  501  0.00000000000E+00  0.00000000000E+00  0.21936680818E+02  0.21936680818E+02  0.00000000000E+00 0. -1.
         21   -1    0    0  501  502 -0.00000000000E+00 -0.00000000000E+00 -0.18380958486E+04  0.18380958486E+04  0.00000000000E+00 0. -1.
         25    1    1    2    0    0 -0.14965607133E+03  0.39678999482E+02 -0.78334192515E+03  0.80822084506E+03  0.12500000000E+03 0.  0.
         25    1    1    2    0    0  0.14965607133E+03 -0.39678999482E+02 -0.10328172427E+04  0.10518116844E+04  0.12500000000E+03 0.  0.
</event>
<event>
 4    0  0.2270578E-002  0.2664052E+03  0.7546771E-02  0.1103355E+00
         21   -1    0    0  502  501  0.00000000000E+00  0.00000000000E+00  0.68365412972E+03  0.68365412972E+03  0.00000000000E+00 0.  1.
         21   -1    0    0  501  502 -0.00000000000E+00 -0.00000000000E+00 -0.10381231956E+03  0.10381231956E+03  0.00000000000E+00 0.  1.
         25    1    1    2    0    0  0.13541842895E+03 -0.14779929324E+03  0.47191839982E+03  0.52774497446E+03  0.12500000000E+03 0.  0.
         25    1    1    2    0    0 -0.13541842895E+03  0.14779929324E+03  0.10792341034E+03  0.25972147482E+03  0.12500000000E+03 0.  0.
</event>
<event>
 4    0  0.2270578E-002  0.2039763E+03  0.7546771E-02  0.1146427E+00
         21   -1    0    0  502  501  0.00000000000E+00  0.00000000000E+00  0.41071318747E+03  0.41071318747E+03  0.00000000000E+00 0.  1.
         21   -1    0    0  501  502 -0.00000000000E+00 -0.00000000000E+00 -0.10130260955E+03  0.10130260955E+03  0.00000000000E+00 0.  1.
         25    1    1    2    0    0  0.11246843453E+01 -0.79478970785E+02 -0.21289668914E+02  0.14965434078E+03  0.12500000000E+03 0.  0.
         25    1    1    2    0    0 -0.11246843453E+01  0.79478970785E+02  0.33070024683E+03  0.36236145624E+03  0.12500000000E+03 0.  0.
</event>
<event>
 4    0  0.2270578E-002  0.2179958E+03  0.7546771E-02  0.1135386E+00
         21   -1    0    0  502  501  0.00000000000E+00  0.00000000000E+00  0.18273777764E+03  0.18273777764E+03  0.00000000000E+00 0.  1.
         21   -1    0    0  501  502 -0.00000000000E+00 -0.00000000000E+00 -0.26005657656E+03  0.26005657656E+03  0.00000000000E+00 0.  1.
         25    1    1    2    0    0  0.33456886644E+02  0.68578774643E+02  0.12533690423E+03  0.19276086521E+03  0.12500000000E+03 0.  0.
         25    1    1    2    0    0 -0.33456886644E+02 -0.68578774643E+02 -0.20265570315E+03  0.25003348899E+03  0.12500000000E+03 0.  0.
</event>
<event>
 4    0  0.2270578E-002  0.2636413E+03  0.7546771E-02  0.1104975E+00
         21   -1    0    0  502  501  0.00000000000E+00  0.00000000000E+00  0.32132157422E+03  0.32132157422E+03  0.00000000000E+00 0.  1.
         21   -1    0    0  501  502 -0.00000000000E+00 -0.00000000000E+00 -0.21631510145E+03  0.21631510145E+03  0.00000000000E+00 0.  1.
         25    1    1    2    0    0  0.99760226145E+02 -0.18031916201E+03  0.16144038201E+03  0.29009498419E+03  0.12500000000E+03 0.  0.
         25    1    1    2    0    0 -0.99760226145E+02  0.18031916201E+03 -0.56433909235E+02  0.24754169148E+03  0.12500000000E+03 0.  0.
</event>
<event>
 4    0  0.2270578E-002  0.1835383E+03  0.7546771E-02  0.1164422E+00
         21   -1    0    0  502  501  0.00000000000E+00  0.00000000000E+00  0.10922899992E+03  0.10922899992E+03  0.00000000000E+00 0. -1.
         21   -1    0    0  501  502 -0.00000000000E+00 -0.00000000000E+00 -0.30840073839E+03  0.30840073839E+03  0.00000000000E+00 0. -1.
         25    1    1    2    0    0 -0.65963891527E+01  0.62797689851E+02  0.35387237601E+02  0.14444486417E+03  0.12500000000E+03 0.  0.
         25    1    1    2    0    0  0.65963891527E+01 -0.62797689851E+02 -0.23455897607E+03  0.27318487413E+03  0.12500000000E+03 0.  0.
</event>
<event>
 4    0  0.2270578E-002  0.3072002E+03  0.7546771E-02  0.1081696E+00
         21   -1    0    0  502  501  0.00000000000E+00  0.00000000000E+00  0.25308895092E+03  0.25308895092E+03  0.00000000000E+00 0.  1.
         21   -1    0    0  501  502 -0.00000000000E+00 -0.00000000000E+00 -0.37288061383E+03  0.37288061383E+03  0.00000000000E+00 0.  1.
         25    1    1    2    0    0  0.19048606155E+03  0.88704273156E+02 -0.24939157264E+03  0.34924854219E+03  0.12500000000E+03 0.  0.
         25    1    1    2    0    0 -0.19048606155E+03 -0.88704273156E+02  0.12959990973E+03  0.27672102255E+03  0.12500000000E+03 0.  0.
</event>
<event>
 4    0  0.2270578E-002  0.3536330E+03  0.7546771E-02  0.1061134E+00
         21   -1    0    0  502  501  0.00000000000E+00  0.00000000000E+00  0.78118808512E+03  0.78118808512E+03  0.00000000000E+00 0.  1.
         21   -1    0    0  501  502 -0.00000000000E+00 -0.00000000000E+00 -0.16008472452E+03  0.16008472452E+03  0.00000000000E+00 0.  1.
         25    1    1    2    0    0 -0.23330553167E+03  0.19479173005E+03  0.13674309093E+03  0.35594797671E+03  0.12500000000E+03 0.  0.
         25    1    1    2    0    0  0.23330553167E+03 -0.19479173005E+03  0.48436026968E+03  0.58532483293E+03  0.12500000000E+03 0.  0.
</event>
<event>
 4    0  0.2270578E-002  0.2185168E+03  0.7546771E-02  0.1134994E+00
         21   -1    0    0  502  501  0.00000000000E+00  0.00000000000E+00  0.12392532271E+03  0.12392532271E+03  0.00000000000E+00 0.  1.
         21   -1    0    0  501  502 -0.00000000000E+00 -0.00000000000E+00 -0.38530928364E+03  0.38530928364E+03  0.00000000000E+00 0.  1.
         25    1    1    2    0    0 -0.13389615098E+03  0.23211596401E+02 -0.26686487169E+03  0.32451320035E+03  0.12500000000E+03 0.  0.
         25    1    1    2    0    0  0.13389615098E+03 -0.23211596401E+02  0.54809107668E+01  0.18472140601E+03  0.12500000000E+03 0.  0.
</event>
<event>
 4    0  0.2270578E-002  0.2579966E+03  0.7546771E-02  0.1108353E+00
         21   -1    0    0  502  501  0.00000000000E+00  0.00000000000E+00  0.50319430800E+03  0.50319430800E+03  0.00000000000E+00 0.  1.
         21   -1    0    0  501  502 -0.00000000000E+00 -0.00000000000E+00 -0.13227943766E+03  0.13227943766E+03  0.00000000000E+00 0.  1.
         25    1    1    2    0    0 -0.14710923773E+03 -0.22774294654E+02  0.39437735231E+03  0.43967976112E+03  0.12500000000E+03 0.  0.
         25    1    1    2    0    0  0.14710923773E+03  0.22774294654E+02 -0.23462481970E+02  0.19579398454E+03  0.12500000000E+03 0.  0.
</event>
<event>
 4    0  0.2270578E-002  0.1784158E+03  0.7546771E-02  0.1169345E+00
         21   -1    0    0  502  501  0.00000000000E+00  0.00000000000E+00  0.70864236602E+02  0.70864236602E+02  0.00000000000E+00 0.  1.
         21   -1    0    0  501  502 -0.00000000000E+00 -0.00000000000E+00 -0.44919971603E+03  0.44919971603E+03  0.00000000000E+00 0.  1.
         25    1    1    2    0    0  0.29955784214E+02  0.12239739268E+02 -0.97176987111E+01  0.12948588299E+03  0.12500000000E+03 0.  0.
         25    1    1    2    0    0 -0.29955784214E+02 -0.12239739268E+02 -0.36861778072E+03  0.39057806965E+03  0.12500000000E+03 0.  0.
</event>
<event>
 4    0  0.2270578E-002  0.1760444E+03  0.7546771E-02  0.1171687E+00
         21   -1    0    0  502  501  0.00000000000E+00  0.00000000000E+00  0.21906840687E+03  0.21906840687E+03  0.00000000000E+00 0. -1.
         21   -1    0    0  501  502 -0.00000000000E+00 -0.00000000000E+00 -0.14147013070E+03  0.14147013070E+03  0.00000000000E+00 0. -1.
         25    1    1    2    0    0 -0.10168604464E+02 -0.14765554700E+02 -0.86803462047E+02  0.15323597210E+03  0.12500000000E+03 0.  0.
         25    1    1    2    0    0  0.10168604464E+02  0.14765554700E+02  0.16440173821E+03  0.20730256547E+03  0.12500000000E+03 0.  0.
</event>
<event>
 4    0  0.2270578E-002  0.1920597E+03  0.7546771E-02  0.1156617E+00
         21   -1    0    0  502  501  0.00000000000E+00  0.00000000000E+00  0.20589747051E+02  0.20589747051E+02  0.00000000000E+00 0.  1.
         21   -1    0    0  501  502 -0.00000000000E+00 -0.00000000000E+00 -0.17915184854E+04  0.17915184854E+04  0.00000000000E+00 0.  1.
         25    1    1    2    0    0  0.39102539382E+02 -0.13733448990E+03 -0.10247837460E+04  0.10422075114E+04  0.12500000000E+03 0.  0.
         25    1    1    2    0    0 -0.39102539382E+02  0.13733448990E+03 -0.74614499232E+03  0.76990072105E+03  0.12500000000E+03 0.  0.
</event>
<event>
 4    0  0.2270578E-002  0.2125871E+03  0.7546771E-02  0.1139533E+00
         21   -1    0    0  502  501  0.00000000000E+00  0.00000000000E+00  0.14745530847E+03  0.14745530847E+03  0.00000000000E+00 0.  1.
         21   -1    0    0  501  502 -0.00000000000E+00 -0.00000000000E+00 -0.30648805228E+03  0.30648805228E+03  0.00000000000E+00 0.  1.
         25    1    1    2    0    0 -0.10895805521E+03  0.11538936543E+03 -0.88427510250E+01  0.20221216010E+03  0.12500000000E+03 0.  0.
         25    1    1    2    0    0  0.10895805521E+03 -0.11538936543E+03 -0.15018999278E+03  0.25173120065E+03  0.12500000000E+03 0.  0.
</event>
<event>
 4    0  0.2270578E-002  0.4320200E+03  0.7546771E-02  0.1033224E+00
         21   -1    0    0  502  501  0.00000000000E+00  0.00000000000E+00  0.46870351848E+03  0.46870351848E+03  0.00000000000E+00 0.  1.
         21   -1    0    0  501  502 -0.00000000000E+00 -0.00000000000E+00 -0.39820758340E+03  0.39820758340E+03  0.00000000000E+00 0.  1.
         25    1    1    2    0    0 -0.29923568673E+03  0.26409334510E+03 -0.73412425482E+02  0.42461944768E+03  0.12500000000E+03 0.  0.
         25    1    1    2    0    0  0.29923568673E+03 -0.26409334510E+03  0.14390836055E+03  0.44229165420E+03  0.12500000000E+03 0.  0.
</event>
<event>
 4    0  0.2270578E-002  0.1452503E+03  0.7546771E-02  0.1206434E+00
         21   -1    0    0  502  501  0.00000000000E+00  0.00000000000E+00  0.57893342846E+02  0.57893342846E+02  0.00000000000E+00 0.  1.
         21   -1    0    0  501  502 -0.00000000000E+00 -0.00000000000E+00 -0.36442285121E+03  0.36442285121E+03  0.00000000000E+00 0.  1.
         25    1    1    2    0    0 -0.66077872812E+02 -0.31083339715E+02 -0.13605157071E+03  0.19866426245E+03  0.12500000000E+03 0.  0.
         25    1    1    2    0    0  0.66077872812E+02  0.31083339715E+02 -0.17047793766E+03  0.22365193161E+03  0.12500000000E+03 0.  0.
</event>
<event>
 4    0  0.2314518E-002  0.2600924E+03  0.7546771E-02  0.1107088E+00
         21   -1    0    0  502  501  0.00000000000E+00  0.00000000000E+00  0.17562521929E+03  0.17562521929E+03  0.00000000000E+00 0. -1.
         21   -1    0    0  501  502 -0.00000000000E+00 -0.00000000000E+00 -0.38518427329E+03  0.38518427329E+03  0.00000000000E+00 0. -1.
         25    1    1    2    0    0 -0.27663985420E+02 -0.17190267389E+02  0.13859887433E+03  0.18946094412E+03  0.12500000000E+03 0.  0.
         25    1    1    2    0    0  0.27663985420E+02  0.17190267389E+02 -0.34815792833E+03  0.37134854845E+03  0.12500000000E+03 0.  0.
</event>
<event>
 4    0  0.2270578E-002  0.2183406E+03  0.7546771E-02  0.1135126E+00
         21   -1    0    0  502  501  0.00000000000E+00  0.00000000000E+00  0.12612262306E+03  0.12612262306E+03  0.00000000000E+00 0.  1.
         21   -1    0    0  501  502 -0.00000000000E+00 -0.00000000000E+00 -0.37798622181E+03  0.37798622181E+03  0.00000000000E+00 0.  1.
         25    1    1    2    0    0  0.11518482629E+03  0.61092969416E+02  0.15678607690E+02  0.18130282363E+03  0.12500000000E+03 0.  0.
         25    1    1    2    0    0 -0.11518482629E+03 -0.61092969416E+02 -0.26754220644E+03  0.32280602123E+03  0.12500000000E+03 0.  0.
</event>
<event>
 4    0  0.2270578E-002  0.2263903E+03  0.7546771E-02  0.1129207E+00
         21   -1    0    0  502  501  0.00000000000E+00  0.00000000000E+00  0.22223528868E+02  0.22223528868E+02  0.00000000000E+00 0. -1.
         21   -1    0    0  501  502 -0.00000000000E+00 -0.00000000000E+00 -0.23062294272E+04  0.23062294272E+04  0.00000000000E+00 0. -1.
         25    1    1    2    0    0 -0.54073137620E+02  0.17790362567E+03 -0.97505152595E+03  0.10004619346E+04  0.12500000000E+03 0.  0.
         25    1    1    2    0    0  0.54073137620E+02 -0.17790362567E+03 -0.13089543724E+04  0.13279910215E+04  0.12500000000E+03 0.  0.
</event>
<event>
 4    0  0.2270578E-002  0.1769359E+03  0.7546771E-02  0.1170802E+00
         21   -1    0    0  502  501  0.00000000000E+00  0.00000000000E+00  0.87546259796E+03  0.87546259796E+03  0.00000000000E+00 0.  1.
         21   -1    0    0  501  502 -0.00000000000E+00 -0.00000000000E+00 -0.35759718554E+02  0.35759718554E+02  0.00000000000E+00 0.  1.
         25    1    1    2    0    0  0.26074487071E+02 -0.23619321279E+02  0.11038368410E+03  0.17043271086E+03  0.12500000000E+03 0.  0.
         25    1    1    2    0    0 -0.26074487071E+02  0.23619321279E+02  0.72931919530E+03  0.74078960566E+03  0.12500000000E+03 0.  0.
</event>
<event>
 4    0  0.2270578E-002  0.2445272E+03  0.7546771E-02  0.1116813E+00
         21   -1    0    0  502  501  0.00000000000E+00  0.00000000000E+00  0.12446067545E+03  0.12446067545E+03  0.00000000000E+00 0. -1.
         21   -1    0    0  501  502 -0.00000000000E+00 -0.00000000000E+00 -0.48042113824E+03  0.48042113824E+03  0.00000000000E+00 0. -1.
         25    1    1    2    0    0 -0.17321394337E+03  0.13698095224E+02 -0.31751302336E+02  0.21638820021E+03  0.12500000000E+03 0.  0.
         25    1    1    2    0    0  0.17321394337E+03 -0.13698095224E+02 -0.32420916045E+03  0.38849361347E+03  0.12500000000E+03 0.  0.
</event>
<event>
 4    0  0.2270578E-002  0.3253771E+03  0.7546771E-02  0.1073201E+00
         21   -1    0    0  502  501  0.00000000000E+00  0.00000000000E+00  0.16420556262E+03  0.16420556262E+03  0.00000000000E+00 0. -1.
         21   -1    0    0  501  502 -0.00000000000E+00 -0.00000000000E+00 -0.64474203173E+03  0.64474203173E+03  0.00000000000E+00 0. -1.
         25    1    1    2    0    0  0.23677402167E+03  0.48461493401E+02 -0.46206456470E+03  0.53622673901E+03  0.12500000000E+03 0.  0.
         25    1    1    2    0    0 -0.23677402167E+03 -0.48461493401E+02 -0.18471904402E+02  0.27272085533E+03  0.12500000000E+03 0.  0.
</event>
<event>
 4    0  0.2270578E-002  0.2320215E+03  0.7546771E-02  0.1125225E+00
         21   -1    0    0  502  501  0.00000000000E+00  0.00000000000E+00  0.46485190106E+03  0.46485190106E+03  0.00000000000E+00 0. -1.
         21   -1    0    0  501  502 -0.00000000000E+00 -0.00000000000E+00 -0.11580888969E+03  0.11580888969E+03  0.00000000000E+00 0. -1.
         25    1    1    2    0    0  0.11322444515E+03  0.44616075448E+02 -0.16886153244E+02  0.17527267711E+03  0.12500000000E+03 0.  0.
         25    1    1    2    0    0 -0.11322444515E+03 -0.44616075448E+02  0.36592916462E+03  0.40538811365E+03  0.12500000000E+03 0.  0.
</event>
<event>
 4    0  0.2270578E-002  0.2647905E+03  0.7546771E-02  0.1104299E+00
         21   -1    0    0  502  501  0.00000000000E+00  0.00000000000E+00  0.14586503348E+03  0.14586503348E+03  0.00000000000E+00 0.  1.
         21   -1    0    0  501  502 -0.00000000000E+00 -0.00000000000E+00 -0.48067722377E+03  0.48067722377E+03  0.00000000000E+00 0.  1.
         25    1    1    2    0    0  0.80406588233E+02  0.12566902524E+02 -0.42624580384E+03  0.45159011477E+03  0.12500000000E+03 0.  0.
         25    1    1    2    0    0 -0.80406588233E+02 -0.12566902524E+02  0.91433613552E+02  0.17495214248E+03  0.12500000000E+03 0.  0.
</event>
<event>
 4    0  0.2270578E-002  0.2323762E+03  0.7546771E-02  0.1124978E+00
         21   -1    0    0  502  501  0.00000000000E+00  0.00000000000E+00  0.49336306008E+02  0.49336306008E+02  0.00000000000E+00 0.  1.
         21   -1    0    0  501  502 -0.00000000000E+00 -0.00000000000E+00 -0.10945017968E+04  0.10945017968E+04  0.00000000000E+00 0.  1.
         25    1    1    2    0    0  0.27935028853E+02 -0.19385798121E+03 -0.51391854156E+03  0.56400226070E+03  0.12500000000E+03 0.  0.
         25    1    1    2    0    0 -0.27935028853E+02  0.19385798121E+03 -0.53124694918E+03  0.57983584206E+03  0.12500000000E+03 0.  0.
</event>
<event>
 4    0  0.2270578E-002  0.1846403E+03  0.7546771E-02  0.1163386E+00
         21   -1    0    0  502  501  0.00000000000E+00  0.00000000000E+00  0.70487477693E+02  0.70487477693E+02  0.00000000000E+00 0. -1.
         21   -1    0    0  501  502 -0.00000000000E+00 -0.00000000000E+00 -0.48366079035E+03  0.48366079035E+03  0.00000000000E+00 0. -1.
         25    1    1    2    0    0 -0.12657866899E+03  0.30670357146E+01 -0.13253064304E+03  0.22185792187E+03  0.12500000000E+03 0.  0.
         25    1    1    2    0    0  0.12657866899E+03 -0.30670357146E+01 -0.28064266962E+03  0.33229034617E+03  0.12500000000E+03 0.  0.
</event>
<event>
 4    0  0.2270578E-002  0.3318392E+03  0.7546771E-02  0.1070326E+00
         21   -1    0    0  502  501  0.00000000000E+00  0.00000000000E+00  0.16919688322E+03  0.16919688322E+03  0.00000000000E+00 0. -1.
         21   -1    0    0  501  502 -0.00000000000E+00 -0.00000000000E+00 -0.65082302009E+03  0.65082302009E+03  0.00000000000E+00 0.  1.
         25    1    1    2    0    0 -0.85319503994E+02  0.27092554158E+03 -0.95602722158E+02  0.32472287774E+03  0.12500000000E+03 0.  0.
         25    1    1    2    0    0  0.85319503994E+02 -0.27092554158E+03 -0.38602341470E+03  0.49529702557E+03  0.12500000000E+03 0.  0.
</event>
<event>
 4    0  0.2270578E-002  0.4908793E+03  0.7546771E-02  0.1016187E+00
         21   -1    0    0  502  501  0.00000000000E+00  0.00000000000E+00  0.84031792222E+03  0.84031792222E+03  0.00000000000E+00 0.  1.
         21   -1    0    0  501  502 -0.00000000000E+00 -0.00000000000E+00 -0.28675152217E+03  0.28675152217E+03  0.00000000000E+00 0.  1.
         25    1    1    2    0    0 -0.35879911499E+03  0.30051398795E+03  0.18572066897E+03  0.51880885570E+03  0.12500000000E+03 0.  0.
         25    1    1    2    0    0  0.35879911499E+03 -0.30051398795E+03  0.36784573108E+03  0.60826058868E+03  0.12500000000E+03 0.  0.
</event>
<event>
 4    0  0.2270578E-002  0.1915574E+03  0.7546771E-02  0.1157064E+00
         21   -1    0    0  502  501  0.00000000000E+00  0.00000000000E+00  0.12200755562E+03  0.12200755562E+03  0.00000000000E+00 0. -1.
         21   -1    0    0  501  502 -0.00000000000E+00 -0.00000000000E+00 -0.30075378363E+03  0.30075378363E+03  0.00000000000E+00 0. -1.
         25    1    1    2    0    0  0.13376944392E+03 -0.56162134355E+02 -0.84342322033E+02  0.20925361824E+03  0.12500000000E+03 0.  0.
         25    1    1    2    0    0 -0.13376944392E+03  0.56162134355E+02 -0.94403905974E+02  0.21350772100E+03  0.12500000000E+03 0.  0.
</event>
<event>
 4    0  0.2270578E-002  0.1657035E+03  0.7546771E-02  0.1182404E+00
         21   -1    0    0  502  501  0.00000000000E+00  0.00000000000E+00  0.11554386172E+03  0.11554386172E+03  0.00000000000E+00 0. -1.
         21   -1    0    0  501  502 -0.00000000000E+00 -0.00000000000E+00 -0.23763820850E+03  0.23763820850E+03  0.00000000000E+00 0. -1.
         25    1    1    2    0    0  0.10063266170E+03  0.26859541938E+02 -0.27612743835E+02  0.16503281860E+03  0.12500000000E+03 0.  0.
         25    1    1    2    0    0 -0.10063266170E+03 -0.26859541938E+02 -0.94481602945E+02  0.18814925163E+03  0.12500000000E+03 0.  0.
</event>
<event>
 4    0  0.2270578E-002  0.2136431E+03  0.7546771E-02  0.1138713E+00
         21   -1    0    0  502  501  0.00000000000E+00  0.00000000000E+00  0.43127570915E+03  0.43127570915E+03  0.00000000000E+00 0. -1.
         21   -1    0    0  501  502 -0.00000000000E+00 -0.00000000000E+00 -0.10583335472E+03  0.10583335472E+03  0.00000000000E+00 0. -1.
         25    1    1    2    0    0  0.65653705096E+01  0.16140497327E+03  0.24146034257E+03  0.31626376100E+03  0.12500000000E+03 0.  0.
         25    1    1    2    0    0 -0.65653705096E+01 -0.16140497327E+03  0.83982011859E+02  0.22084530287E+03  0.12500000000E+03 0.  0.
</event>
<event>
 4    0  0.2270578E-002  0.2882120E+03  0.7546771E-02  0.1091286E+00
         21   -1    0    0  502  501  0.00000000000E+00  0.00000000000E+00  0.76647254083E+02  0.76647254083E+02  0.00000000000E+00 0.  1.
         21   -1    0    0  501  502 -0.00000000000E+00 -0.00000000000E+00 -0.10837458369E+04  0.10837458369E+04  0.00000000000E+00 0.  1.
         25    1    1    2    0    0  0.13773100718E+03  0.10612626628E+03 -0.89186446456E+03  0.91721308205E+03  0.12500000000E+03 0.  0.
         25    1    1    2    0    0 -0.13773100718E+03 -0.10612626628E+03 -0.11523411824E+03  0.24318000892E+03  0.12500000000E+03 0.  0.
</event>
<event>
 4    0  0.2270578E-002  0.2881730E+03  0.7546771E-02  0.1091307E+00
         21   -1    0    0  502  501  0.00000000000E+00  0.00000000000E+00  0.21728306977E+04  0.21728306977E+04  0.00000000000E+00 0. -1.
         21   -1    0    0  501  502 -0.00000000000E+00 -0.00000000000E+00 -0.38219132749E+02  0.38219132749E+02  0.00000000000E+00 0. -1.
         25    1    1    2    0    0 -0.17391350621E+03  0.16995233319E+03  0.14165798085E+04  0.14427241791E+04  0.12500000000E+03 0.  0.
         25    1    1    2    0    0  0.17391350621E+03 -0.16995233319E+03  0.71803175641E+03  0.76832565128E+03  0.12500000000E+03 0.  0.
</event>
<event>
 4    0  0.2270578E-002  0.1653037E+03  0.7546771E-02  0.1182836E+00
         21   -1    0    0  502  501  0.00000000000E+00  0.00000000000E+00  0.18829983568E+03  0.18829983568E+03  0.00000000000E+00 0. -1.
         21   -1    0    0  501  502 -0.00000000000E+00 -0.00000000000E+00 -0.14511590246E+03  0.14511590246E+03  0.00000000000E+00 0. -1.
         25    1    1    2    0    0  0.73144235026E+01  0.99051450985E+02 -0.21615998793E+02  0.16111158288E+03  0.12500000000E+03 0.  0.
         25    1    1    2    0    0 -0.73144235026E+01 -0.99051450985E+02  0.64799932010E+02  0.17230415527E+03  0.12500000000E+03 0.  0.
</event>
<event>
 4    0  0.2270578E-002  0.3418848E+03  0.7546771E-02  0.1065996E+00
         21   -1    0    0  502  501  0.00000000000E+00  0.00000000000E+00  0.41305741106E+03  0.41305741106E+03  0.00000000000E+00 0. -1.
         21   -1    0    0  501  502 -0.00000000000E+00 -0.00000000000E+00 -0.28297572374E+03  0.28297572374E+03  0.00000000000E+00 0. -1.
         25    1    1    2    0    0  0.29597660386E+02 -0.15617533100E+03  0.34565413761E+03  0.40046040798E+03  0.12500000000E+03 0.  0.
         25    1    1    2    0    0 -0.29597660386E+02  0.15617533100E+03 -0.21557245029E+03  0.29557272682E+03  0.12500000000E+03 0.  0.
</event>
<event>
 4    0  0.2270578E-002  0.2812247E+03  0.7546771E-02  0.1095022E+00
         21   -1    0    0  502  501  0.00000000000E+00  0.00000000000E+00  0.59024879394E+03  0.59024879394E+03  0.00000000000E+00 0. -1.
         21   -1    0    0  501  502 -0.00000000000E+00 -0.00000000000E+00 -0.13398978756E+03  0.13398978756E+03  0.00000000000E+00 0. -1.
         25    1    1    2    0    0  0.12556043320E+03 -0.74409442655E+02 -0.36263033750E+02  0.19555611767E+03  0.12500000000E+03 0.  0.
         25    1    1    2    0    0 -0.12556043320E+03  0.74409442655E+02  0.49252204014E+03  0.52868246383E+03  0.12500000000E+03 0.  0.
</event>
<event>
 4    0  0.2270578E-002  0.1978650E+03  0.7546771E-02  0.1151553E+00
         21   -1    0    0  502  501  0.00000000000E+00  0.00000000000E+00  0.51855117071E+03  0.51855117071E+03  0.00000000000E+00 0. -1.
         21   -1    0    0  501  502 -0.00000000000E+00 -0.00000000000E+00 -0.75499918796E+02  0.75499918796E+02  0.00000000000E+00 0. -1.
         25    1    1    2    0    0 -0.11311344455E+03  0.47972616742E+02  0.35935027424E+03  0.39981701175E+03  0.12500000000E+03 0.  0.
         25    1    1    2    0    0  0.11311344455E+03 -0.47972616742E+02  0.83700977673E+02  0.19423407775E+03  0.12500000000E+03 0.  0.
</event>
<event>
 4    0  0.2270578E-002  0.1899617E+03  0.7546771E-02  0.1158496E+00
         21   -1    0    0  502  501  0.00000000000E+00  0.00000000000E+00  0.10018636002E+03  0.10018636002E+03  0.00000000000E+00 0.  1.
         21   -1    0    0  501  502 -0.00000000000E+00 -0.00000000000E+00 -0.36018342179E+03  0.36018342179E+03  0.00000000000E+00 0.  1.
         25    1    1    2    0    0 -0.63787887128E+02  0.12792708291E+03 -0.13620484337E+03  0.23368994939E+03  0.12500000000E+03 0.  0.
         25    1    1    2    0    0  0.63787887128E+02 -0.12792708291E+03 -0.12379221840E+03  0.22667983241E+03  0.12500000000E+03 0.  0.
</event>
<event>
 4    0  0.2270578E-002  0.3540402E+03  0.7546771E-02  0.1060969E+00
         21   -1    0    0  502  501  0.00000000000E+00  0.00000000000E+00  0.89511904255E+03  0.89511904255E+03  0.00000000000E+00 0.  1.
         21   -1    0    0  501  502 -0.00000000000E+00 -0.00000000000E+00 -0.14003106570E+03  0.14003106570E+03  0.00000000000E+00 0.  1.
         25    1    1    2    0    0 -0.10853969280E+02 -0.18750187780E+03 -0.21331789427E+02  0.22661599252E+03  0.12500000000E+03 0.  0.
         25    1    1    2    0    0  0.10853969280E+02  0.18750187780E+03  0.77641976628E+03  0.80853411573E+03  0.12500000000E+03 0.  0.
</event>
<event>
 4    0  0.2270578E-002  0.2385518E+03  0.7546771E-02  0.1120761E+00
         21   -1    0    0  502  501  0.00000000000E+00  0.00000000000E+00  0.65312816068E+02  0.65312816068E+02  0.00000000000E+00 0.  1.
         21   -1    0    0  501  502 -0.00000000000E+00 -0.00000000000E+00 -0.87129859833E+03  0.87129859833E+03  0.00000000000E+00 0.  1.
         25    1    1    2    0    0 -0.46339067334E+02 -0.67963408490E+02 -0.38277033137E+02  0.15445538295E+03  0.12500000000E+03 0.  0.
         25    1    1    2    0    0  0.46339067334E+02  0.67963408490E+02 -0.76770874913E+03  0.78215603145E+03  0.12500000000E+03 0.  0.
</event>
<event>
 4    0  0.2270578E-002  0.3375875E+03  0.7546771E-02  0.1067828E+00
         21   -1    0    0  502  501  0.00000000000E+00  0.00000000000E+00  0.11722045190E+03  0.11722045190E+03  0.00000000000E+00 0.  1.
         21   -1    0    0  501  502 -0.00000000000E+00 -0.00000000000E+00 -0.97223044527E+03  0.97223044527E+03  0.00000000000E+00 0.  1.
         25    1    1    2    0    0 -0.24992534568E+03  0.15662450431E+03 -0.59938287830E+03  0.67961661881E+03  0.12500000000E+03 0.  0.
         25    1    1    2    0    0  0.24992534568E+03 -0.15662450431E+03 -0.25562711507E+03  0.40983427836E+03  0.12500000000E+03 0.  0.
</event>
<event>
 4    0  0.2270578E-002  0.2019210E+03  0.7546771E-02  0.1148128E+00
         21   -1    0    0  502  501  0.00000000000E+00  0.00000000000E+00  0.13701187656E+04  0.13701187656E+04  0.00000000000E+00 0. -1.
         21   -1    0    0  501  502 -0.00000000000E+00 -0.00000000000E+00 -0.29758075788E+02  0.29758075788E+02  0.00000000000E+00 0. -1.
         25    1    1    2    0    0 -0.94704086654E+02 -0.51253949805E+02  0.10737033034E+04  0.10863054889E+04  0.12500000000E+03 0.  0.
         25    1    1    2    0    0  0.94704086654E+02  0.51253949805E+02  0.26665738643E+03  0.31357135255E+03  0.12500000000E+03 0.  0.
</event>
<event>
 4    0  0.2270578E-002  0.1881552E+03  0.7546771E-02  0.1160136E+00
         21   -1    0    0  502  501  0.00000000000E+00  0.00000000000E+00  0.26250577116E+03  0.26250577116E+03  0.00000000000E+00 0.  1.
         21   -1    0    0  501  502 -0.00000000000E+00 -0.00000000000E+00 -0.13486325532E+03  0.13486325532E+03  0.00000000000E+00 0.  1.
         25    1    1    2    0    0 -0.24369748699E+02 -0.10928097370E+03 -0.26035770135E+02  0.16982072074E+03  0.12500000000E+03 0.  0.
         25    1    1    2    0    0  0.24369748699E+02  0.10928097370E+03  0.15367828597E+03  0.22754830574E+03  0.12500000000E+03 0.  0.
</event>
<event>
 4    0  0.2270578E-002  0.1706840E+03  0.7546771E-02  0.1177136E+00
         21   -1    0    0  502  501  0.00000000000E+00  0.00000000000E+00  0.79902345169E+03  0.79902345169E+03  0.00000000000E+00 0. -1.
         21   -1    0    0  501  502 -0.00000000000E+00 -0.00000000000E+00 -0.36460778566E+02  0.36460778566E+02  0.00000000000E+00 0. -1.
         25    1    1    2    0    0 -0.95018234390E+02 -0.65530140503E+01  0.21826123108E+03  0.26895050075E+03  0.12500000000E+03 0.  0.
         25    1    1    2    0    0  0.95018234390E+02  0.65530140503E+01  0.54430144205E+03  0.56653372951E+03  0.12500000000E+03 0.  0.
</event>
<event>
 4    0  0.2270578E-002  0.1900639E+03  0.7546771E-02  0.1158404E+00
         21   -1    0    0  502  501  0.00000000000E+00  0.00000000000E+00  0.88651281321E+02  0.88651281321E+02  0.00000000000E+00 0.  1.
         21   -1    0    0  501  502 -0.00000000000E+00 -0.00000000000E+00 -0.40748762688E+03  0.40748762688E+03  0.00000000000E+00 0.  1.
         25    1    1    2    0    0 -0.10983031007E+03 -0.80194112272E+02 -0.10096801008E+03  0.21050731986E+03  0.12500000000E+03 0.  0.
         25    1    1    2    0    0  0.10983031007E+03  0.80194112272E+02 -0.21786833548E+03  0.28563158834E+03  0.12500000000E+03 0.  0.
</event>
<event>
 4    0  0.2270578E-002  0.2347721E+03  0.7546771E-02  0.1123325E+00
         21   -1    0    0  502  501  0.00000000000E+00  0.00000000000E+00  0.75068342578E+02  0.75068342578E+02  0.00000000000E+00 0. -1.
         21   -1    0    0  501  502 -0.00000000000E+00 -0.00000000000E+00 -0.73423648883E+03  0.73423648883E+03  0.00000000000E+00 0. -1.
         25    1    1    2    0    0 -0.33346901504E+02 -0.18481480666E+03 -0.44160976260E+03  0.49589586712E+03  0.12500000000E+03 0.  0.
         25    1    1    2    0    0  0.33346901504E+02  0.18481480666E+03 -0.21755838365E+03  0.31340896429E+03  0.12500000000E+03 0.  0.
</event>
<event>
 4    0  0.2270578E-002  0.2746318E+03  0.7546771E-02  0.1098658E+00
         21   -1    0    0  502  501  0.00000000000E+00  0.00000000000E+00  0.16336523222E+03  0.16336523222E+03  0.00000000000E+00 0. -1.
         21   -1    0    0  501  502 -0.00000000000E+00 -0.00000000000E+00 -0.46168100670E+03  0.46168100670E+03  0.00000000000E+00 0. -1.
         25    1    1    2    0    0 -0.21081437587E+02 -0.10373082591E+02  0.12782910179E+03  0.18032555869E+03  0.12500000000E+03 0.  0.
         25    1    1    2    0    0  0.21081437587E+02  0.10373082591E+02 -0.42614487627E+03  0.44472068023E+03  0.12500000000E+03 0.  0.
</event>
<event>
 4    0  0.2270578E-002  0.1896461E+03  0.7546771E-02  0.1158781E+00
         21   -1    0    0  502  501  0.00000000000E+00  0.00000000000E+00  0.12972719746E+03  0.12972719746E+03  0.00000000000E+00 0. -1.
         21   -1    0    0  501  502 -0.00000000000E+00 -0.00000000000E+00 -0.27724061429E+03  0.27724061429E+03  0.00000000000E+00 0. -1.
         25    1    1    2    0    0 -0.10370628981E+03 -0.59379314451E+01  0.31100133428E+02  0.16547649947E+03  0.12500000000E+03 0.  0.
         25    1    1    2    0    0  0.10370628981E+03  0.59379314451E+01 -0.17861355026E+03  0.24149131229E+03  0.12500000000E+03 0.  0.
</event>
<event>
 4    0  0.2270578E-002  0.1562516E+03  0.7546771E-02  0.1192995E+00
         21   -1    0    0  502  501  0.00000000000E+00  0.00000000000E+00  0.33044114777E+03  0.33044114777E+03  0.00000000000E+00 0. -1.
         21   -1    0    0  501  502 -0.00000000000E+00 -0.00000000000E+00 -0.73884799057E+02  0.73884799057E+02  0.00000000000E+00 0. -1.
         25    1    1    2    0    0  0.91115850329E+01  0.90309173453E+02  0.15864349840E+03  0.22143063784E+03  0.12500000000E+03 0.  0.
         25    1    1    2    0    0 -0.91115850329E+01 -0.90309173453E+02  0.97912850313E+02  0.18289530898E+03  0.12500000000E+03 0.  0.
</event>
<event>
 4    0  0.2270578E-002  0.2327389E+03  0.7546771E-02  0.1124727E+00
         21   -1    0    0  502  501  0.00000000000E+00  0.00000000000E+00  0.73251354368E+02  0.73251354368E+02  0.00000000000E+00 0. -1.
         21   -1    0    0  501  502 -0.00000000000E+00 -0.00000000000E+00 -0.73947310229E+03  0.73947310229E+03  0.00000000000E+00 0. -1.
         25    1    1    2    0    0 -0.13042110678E+03  0.13791845164E+03 -0.42060695161E+03  0.47808615556E+03  0.12500000000E+03 0.  0.
         25    1    1    2    0    0  0.13042110678E+03 -0.13791845164E+03 -0.24561479631E+03  0.33463830110E+03  0.12500000000E+03 0.  0.
</event>
<event>
 4    0  0.2270578E-002  0.2014622E+03  0.7546771E-02  0.1148511E+00
         21   -1    0    0  502  501  0.00000000000E+00  0.00000000000E+00  0.16863657598E+04  0.16863657598E+04  0.00000000000E+00 0. -1.
         21   -1    0    0  501  502 -0.00000000000E+00 -0.00000000000E+00 -0.24067752322E+02  0.24067752322E+02  0.00000000000E+00 0. -1.
         25    1    1    2    0    0 -0.14790453053E+03 -0.14000388836E+02  0.60292993232E+03  0.63342029043E+03  0.12500000000E+03 0.  0.
         25    1    1    2    0    0  0.14790453053E+03  0.14000388836E+02  0.10593680752E+04  0.10770132217E+04  0.12500000000E+03 0.  0.
</event>
<event>
 4    0  0.2270578E-002  0.2475170E+03  0.7546771E-02  0.1114884E+00
         21   -1    0    0  502  501  0.00000000000E+00  0.00000000000E+00  0.20765692330E+03  0.20765692330E+03  0.00000000000E+00 0.  1.
         21   -1    0    0  501  502 -0.00000000000E+00 -0.00000000000E+00 -0.29502821856E+03  0.29502821856E+03  0.00000000000E+00 0.  1.
         25    1    1    2    0    0 -0.21860063296E+02 -0.86593201517E+02 -0.24075580805E+03  0.28559517508E+03  0.12500000000E+03 0.  0.
         25    1    1    2    0    0  0.21860063296E+02  0.86593201517E+02  0.15338451279E+03  0.21708996679E+03  0.12500000000E+03 0.  0.
</event>
<event>
 4    0  0.2270578E-002  0.1931507E+03  0.7546771E-02  0.1155650E+00
         21   -1    0    0  502  501  0.00000000000E+00  0.00000000000E+00  0.52693129353E+02  0.52693129353E+02  0.00000000000E+00 0. -1.
         21   -1    0    0  501  502 -0.00000000000E+00 -0.00000000000E+00 -0.70800874580E+03  0.70800874580E+03  0.00000000000E+00 0. -1.
         25    1    1    2    0    0  0.99613783662E+02  0.10209497460E+03 -0.39963190884E+03  0.44235387678E+03  0.12500000000E+03 0.  0.
         25    1    1    2    0    0 -0.99613783662E+02 -0.10209497460E+03 -0.25568370760E+03  0.31834799837E+03  0.12500000000E+03 0.  0.
</event>
<event>
 4    0  0.2270578E-002  0.3135167E+03  0.7546771E-02  0.1078672E+00
         21   -1    0    0  502  501  0.00000000000E+00  0.00000000000E+00  0.44072670215E+02  0.44072670215E+02  0.00000000000E+00 0. -1.
         21   -1    0    0  501  502 -0.00000000000E+00 -0.00000000000E+00 -0.22302418175E+04  0.22302418175E+04  0.00000000000E+00 0. -1.
         25    1    1    2    0    0  0.14530130995E+03  0.53426439981E+01 -0.19339711691E+03  0.27233886859E+03  0.12500000000E+03 0.  0.
         25    1    1    2    0    0 -0.14530130995E+03 -0.53426439981E+01 -0.19927720304E+04  0.20019756191E+04  0.12500000000E+03 0.  0.
</event>
<event>
 4    0  0.2270578E-002  0.2137411E+03  0.7546771E-02  0.1138637E+00
         21   -1    0    0  502  501  0.00000000000E+00  0.00000000000E+00  0.35626260882E+03  0.35626260882E+03  0.00000000000E+00 0.  1.
         21   -1    0    0  501  502 -0.00000000000E+00 -0.00000000000E+00 -0.12823473408E+03  0.12823473408E+03  0.00000000000E+00 0.  1.
         25    1    1    2    0    0 -0.91329172576E+02  0.12926047940E+03  0.19424333815E+03  0.28000850650E+03  0.12500000000E+03 0.  0.
         25    1    1    2    0    0  0.91329172576E+02 -0.12926047940E+03  0.33784536600E+02  0.20448883640E+03  0.12500000000E+03 0.  0.
</event>
<event>
 4    0  0.2270578E-002  0.2431821E+03  0.7546771E-02  0.1117691E+00
         21   -1    0    0  502  501  0.00000000000E+00  0.00000000000E+00  0.20664768301E+03  0.20664768301E+03  0.00000000000E+00 0.  1.
         21   -1    0    0  501  502 -0.00000000000E+00 -0.00000000000E+00 -0.28617570746E+03  0.28617570746E+03  0.00000000000E+00 0.  1.
         25    1    1    2    0    0  0.79710701853E+02 -0.44350295768E+02  0.15032211283E+03  0.21573706759E+03  0.12500000000E+03 0.  0.
         25    1    1    2    0    0 -0.79710701853E+02  0.44350295768E+02 -0.22985013727E+03  0.27708632288E+03  0.12500000000E+03 0.  0.
</event>
<event>
 4    0  0.2270578E-002  0.2152811E+03  0.7546771E-02  0.1137451E+00
         21   -1    0    0  502  501  0.00000000000E+00  0.00000000000E+00  0.51593986427E+02  0.51593986427E+02  0.00000000000E+00 0. -1.
         21   -1    0    0  501  502 -0.00000000000E+00 -0.00000000000E+00 -0.89828245233E+03  0.89828245233E+03  0.00000000000E+00 0. -1.
         25    1    1    2    0    0  0.55134678606E+02  0.38664555149E+02 -0.66344991411E+02  0.15672089361E+03  0.12500000000E+03 0.  0.
         25    1    1    2    0    0 -0.55134678606E+02 -0.38664555149E+02 -0.78034347450E+03  0.79315554515E+03  0.12500000000E+03 0.  0.
</event>
<event>
 4    0  0.2270578E-002  0.4183642E+03  0.7546771E-02  0.1037600E+00
         21   -1    0    0  502  501  0.00000000000E+00  0.00000000000E+00  0.89565224225E+03  0.89565224225E+03  0.00000000000E+00 0.  1.
         21   -1    0    0  501  502 -0.00000000000E+00 -0.00000000000E+00 -0.19542027065E+03  0.19542027065E+03  0.00000000000E+00 0.  1.
         25    1    1    2    0    0 -0.17135628872E+03  0.28844100288E+03  0.63233660357E+03  0.72666069802E+03  0.12500000000E+03 0.  0.
         25    1    1    2    0    0  0.17135628872E+03 -0.28844100288E+03  0.67895368035E+02  0.36441181488E+03  0.12500000000E+03 0.  0.
</event>
<event>
 4    0  0.2270578E-002  0.2004753E+03  0.7546771E-02  0.1149339E+00
         21   -1    0    0  502  501  0.00000000000E+00  0.00000000000E+00  0.35998945204E+03  0.35998945204E+03  0.00000000000E+00 0. -1.
         21   -1    0    0  501  502 -0.00000000000E+00 -0.00000000000E+00 -0.11164311462E+03  0.11164311462E+03  0.00000000000E+00 0. -1.
         25    1    1    2    0    0 -0.14713833233E+02 -0.33147505008E+02 -0.55186687270E+02  0.14137122914E+03  0.12500000000E+03 0.  0.
         25    1    1    2    0    0  0.14713833233E+02  0.33147505008E+02  0.30353302469E+03  0.33026133751E+03  0.12500000000E+03 0.  0.
</event>
<event>
 4    0  0.2270578E-002  0.1909614E+03  0.7546771E-02  0.1157597E+00
         21   -1    0    0  502  501  0.00000000000E+00  0.00000000000E+00  0.11937378912E+04  0.11937378912E+04  0.00000000000E+00 0. -1.
         21   -1    0    0  501  502 -0.00000000000E+00 -0.00000000000E+00 -0.30547955753E+02  0.30547955753E+02  0.00000000000E+00 0.  1.
         25    1    1    2    0    0 -0.64309014433E+01  0.13934108583E+03  0.46234214770E+03  0.49884121345E+03  0.12500000000E+03 0.  0.
         25    1    1    2    0    0  0.64309014433E+01 -0.13934108583E+03  0.70084778779E+03  0.72544463355E+03  0.12500000000E+03 0.  0.
</event>
<event>
 4    0  0.2270578E-002  0.4120845E+03  0.7546771E-02  0.1039674E+00
         21   -1    0    0  502  501  0.00000000000E+00  0.00000000000E+00  0.62124449460E+03  0.62124449460E+03  0.00000000000E+00 0.  1.
         21   -1    0    0  501  502 -0.00000000000E+00 -0.00000000000E+00 -0.27334423518E+03  0.27334423518E+03  0.00000000000E+00 0.  1.
         25    1    1    2    0    0 -0.12839410641E+03 -0.14802209958E+03 -0.19540859971E+03  0.30365294230E+03  0.12500000000E+03 0.  0.
         25    1    1    2    0    0  0.12839410641E+03  0.14802209958E+03  0.54330885913E+03  0.59093578749E+03  0.12500000000E+03 0.  0.
</event>
<event>
 4    0  0.2270578E-002  0.2317922E+03  0.7546771E-02  0.1125385E+00
         21   -1    0    0  502  501  0.00000000000E+00  0.00000000000E+00  0.10832287035E+03  0.10832287035E+03  0.00000000000E+00 0. -1.
         21   -1    0    0  501  502 -0.00000000000E+00 -0.00000000000E+00 -0.49599540508E+03  0.49599540508E+03  0.00000000000E+00 0. -1.
         25    1    1    2    0    0 -0.37504202287E+02 -0.41463367673E+02 -0.43763267222E+03  0.45855548393E+03  0.12500000000E+03 0.  0.
         25    1    1    2    0    0  0.37504202287E+02  0.41463367673E+02  0.49960137492E+02  0.14576279150E+03  0.12500000000E+03 0.  0.
</event>
<event>
 4    0  0.2270578E-002  0.2058863E+03  0.7546771E-02  0.1144866E+00
         21   -1    0    0  502  501  0.00000000000E+00  0.00000000000E+00  0.46184221168E+03  0.46184221168E+03  0.00000000000E+00 0. -1.
         21   -1    0    0  501  502 -0.00000000000E+00 -0.00000000000E+00 -0.91782819052E+02  0.91782819052E+02  0.00000000000E+00 0. -1.
         25    1    1    2    0    0 -0.15814357956E+03  0.12598057215E+02  0.13131598267E+03  0.24090867586E+03  0.12500000000E+03 0.  0.
         25    1    1    2    0    0  0.15814357956E+03 -0.12598057215E+02  0.23874340996E+03  0.31271635486E+03  0.12500000000E+03 0.  0.
</event>
<event>
 4    0  0.2270578E-002  0.2254763E+03  0.7546771E-02  0.1129865E+00
         21   -1    0    0  502  501  0.00000000000E+00  0.00000000000E+00  0.29206866059E+03  0.29206866059E+03  0.00000000000E+00 0.  1.
         21   -1    0    0  501  502 -0.00000000000E+00 -0.00000000000E+00 -0.17406713082E+03  0.17406713082E+03  0.00000000000E+00 0.  1.
         25    1    1    2    0    0 -0.16864317315E+03 -0.58900118100E+02 -0.42227121270E+00  0.21802504919E+03  0.12500000000E+03 0.  0.
         25    1    1    2    0    0  0.16864317315E+03  0.58900118100E+02  0.11842380099E+03  0.24811074221E+03  0.12500000000E+03 0.  0.
</event>
<event>
 4    0  0.2270578E-002  0.1877174E+03  0.7546771E-02  0.1160536E+00
         21   -1    0    0  502  501  0.00000000000E+00  0.00000000000E+00  0.35991263651E+02  0.35991263651E+02  0.00000000000E+00 0.  1.
         21   -1    0    0  501  502 -0.00000000000E+00 -0.00000000000E+00 -0.97906578079E+03  0.97906578079E+03  0.00000000000E+00 0.  1.
         25    1    1    2    0    0 -0.92857408782E+02  0.74752851692E+02 -0.27281504207E+03  0.32289864413E+03  0.12500000000E+03 0.  0.
         25    1    1    2    0    0  0.92857408782E+02 -0.74752851692E+02 -0.67025947506E+03  0.69215840030E+03  0.12500000000E+03 0.  0.
</event>
<event>
 4    0  0.2270578E-002  0.1770422E+03  0.7546771E-02  0.1170697E+00
         21   -1    0    0  502  501  0.00000000000E+00  0.00000000000E+00  0.75560450804E+02  0.75560450804E+02  0.00000000000E+00 0. -1.
         21   -1    0    0  501  502 -0.00000000000E+00 -0.00000000000E+00 -0.41481960838E+03  0.41481960838E+03  0.00000000000E+00 0. -1.
         25    1    1    2    0    0  0.90786476434E+02  0.60013427645E+02 -0.25584218262E+03  0.30483441113E+03  0.12500000000E+03 0.  0.
         25    1    1    2    0    0 -0.90786476434E+02 -0.60013427645E+02 -0.83416974954E+02  0.18554564805E+03  0.12500000000E+03 0.  0.
</event>
<event>
 4    0  0.2270578E-002  0.2074248E+03  0.7546771E-02  0.1143622E+00
         21   -1    0    0  502  501  0.00000000000E+00  0.00000000000E+00  0.42356111447E+03  0.42356111447E+03  0.00000000000E+00 0. -1.
         21   -1    0    0  501  502 -0.00000000000E+00 -0.00000000000E+00 -0.10157928830E+03  0.10157928830E+03  0.00000000000E+00 0. -1.
         25    1    1    2    0    0  0.12004020186E+03 -0.12375405747E+02  0.30441449780E+03  0.35050818422E+03  0.12500000000E+03 0.  0.
         25    1    1    2    0    0 -0.12004020186E+03  0.12375405747E+02  0.17567328362E+02  0.17463221855E+03  0.12500000000E+03 0.  0.
</event>
<event>
 4    0  0.2270578E-002  0.2488260E+03  0.7546771E-02  0.1114049E+00
         21   -1    0    0  502  501  0.00000000000E+00  0.00000000000E+00  0.66086157273E+03  0.66086157273E+03  0.00000000000E+00 0.  1.
         21   -1    0    0  501  502 -0.00000000000E+00 -0.00000000000E+00 -0.93687340296E+02  0.93687340296E+02  0.00000000000E+00 0.  1.
         25    1    1    2    0    0  0.21239955615E+03 -0.30851043839E+02  0.30628002965E+03  0.39433211246E+03  0.12500000000E+03 0.  0.
         25    1    1    2    0    0 -0.21239955615E+03  0.30851043839E+02  0.26089420279E+03  0.36021680056E+03  0.12500000000E+03 0.  0.
</event>
<event>
 4    0  0.2270578E-002  0.2549903E+03  0.7546771E-02  0.1110191E+00
         21   -1    0    0  502  501  0.00000000000E+00  0.00000000000E+00  0.35382093634E+03  0.35382093634E+03  0.00000000000E+00 0. -1.
         21   -1    0    0  501  502 -0.00000000000E+00 -0.00000000000E+00 -0.18376536977E+03  0.18376536977E+03  0.00000000000E+00 0. -1.
         25    1    1    2    0    0  0.96389857812E+02 -0.34775222102E+02 -0.12286523055E+03  0.20303001167E+03  0.12500000000E+03 0.  0.
         25    1    1    2    0    0 -0.96389857812E+02  0.34775222102E+02  0.29292079712E+03  0.33455629444E+03  0.12500000000E+03 0.  0.
</event>
<event>
 4    0  0.2270578E-002  0.1495281E+03  0.7546771E-02  0.1201054E+00
         21   -1    0    0  502  501  0.00000000000E+00  0.00000000000E+00  0.18430642070E+03  0.18430642070E+03  0.00000000000E+00 0. -1.
         21   -1    0    0  501  502 -0.00000000000E+00 -0.00000000000E+00 -0.12131239837E+03  0.12131239837E+03  0.00000000000E+00 0. -1.
         25    1    1    2    0    0 -0.33983201563E+02  0.67727650257E+02 -0.68630979200E+00  0.14617579697E+03  0.12500000000E+03 0.  0.
         25    1    1    2    0    0  0.33983201563E+02 -0.67727650257E+02  0.63680332124E+02  0.15944302210E+03  0.12500000000E+03 0.  0.
</event>
<event>
 4    0  0.2270578E-002  0.2431647E+03  0.7546771E-02  0.1117702E+00
         21   -1    0    0  502  501  0.00000000000E+00  0.00000000000E+00  0.17694858252E+03  0.17694858252E+03  0.00000000000E+00 0. -1.
         21   -1    0    0  501  502 -0.00000000000E+00 -0.00000000000E+00 -0.33415957222E+03  0.33415957222E+03  0.00000000000E+00 0. -1.
         25    1    1    2    0    0 -0.14081293992E+03 -0.11610042690E+02  0.82642616762E+02  0.20595601289E+03  0.12500000000E+03 0.  0.
         25    1    1    2    0    0  0.14081293992E+03  0.11610042690E+02 -0.23985360647E+03  0.30515214185E+03  0.12500000000E+03 0.  0.
</event>
<event>
 4    0  0.2270578E-002  0.2142832E+03  0.7546771E-02  0.1138218E+00
         21   -1    0    0  502  501  0.00000000000E+00  0.00000000000E+00  0.21949873590E+03  0.21949873590E+03  0.00000000000E+00 0.  1.
         21   -1    0    0  501  502 -0.00000000000E+00 -0.00000000000E+00 -0.20919156384E+03  0.20919156384E+03  0.00000000000E+00 0.  1.
         25    1    1    2    0    0 -0.10899215195E+03  0.34669686025E+02  0.13638225168E+03  0.21750033308E+03  0.12500000000E+03 0.  0.
         25    1    1    2    0    0  0.10899215195E+03 -0.34669686025E+02 -0.12607507962E+03  0.21118996666E+03  0.12500000000E+03 0.  0.
</event>
<event>
 4    0  0.2270578E-002  0.2102537E+03  0.7546771E-02  0.1141365E+00
         21   -1    0    0  502  501  0.00000000000E+00  0.00000000000E+00  0.48557696830E+02  0.48557696830E+02  0.00000000000E+00 0.  1.
         21   -1    0    0  501  502 -0.00000000000E+00 -0.00000000000E+00 -0.91039378075E+03  0.91039378075E+03  0.00000000000E+00 0.  1.
         25    1    1    2    0    0  0.87323051457E+02 -0.10837700253E+03 -0.21205617231E+03  0.28277855330E+03  0.12500000000E+03 0.  0.
         25    1    1    2    0    0 -0.87323051457E+02  0.10837700253E+03 -0.64977991161E+03  0.67617292428E+03  0.12500000000E+03 0.  0.
</event>
<event>
 4    0  0.2270578E-002  0.2858322E+03  0.7546771E-02  0.1092545E+00
         21   -1    0    0  502  501  0.00000000000E+00  0.00000000000E+00  0.32575706909E+03  0.32575706909E+03  0.00000000000E+00 0.  1.
         21   -1    0    0  501  502 -0.00000000000E+00 -0.00000000000E+00 -0.25080051591E+03  0.25080051591E+03  0.00000000000E+00 0.  1.
         25    1    1    2    0    0 -0.24427758071E+03 -0.72615463356E+02  0.35675843921E+01  0.28387016330E+03  0.12500000000E+03 0.  0.
         25    1    1    2    0    0  0.24427758071E+03  0.72615463356E+02  0.71388968783E+02  0.29268742169E+03  0.12500000000E+03 0.  0.
</event>
<event>
 4    0  0.2270578E-002  0.2046681E+03  0.7546771E-02  0.1145859E+00
         21   -1    0    0  502  501  0.00000000000E+00  0.00000000000E+00  0.22467719886E+03  0.22467719886E+03  0.00000000000E+00 0.  1.
         21   -1    0    0  501  502 -0.00000000000E+00 -0.00000000000E+00 -0.18644089791E+03  0.18644089791E+03  0.00000000000E+00 0.  1.
         25    1    1    2    0    0  0.15094013431E+03 -0.29972267173E+02 -0.31923926942E+02  0.20081184740E+03  0.12500000000E+03 0.  0.
         25    1    1    2    0    0 -0.15094013431E+03  0.29972267173E+02  0.70160227900E+02  0.21030624937E+03  0.12500000000E+03 0.  0.
</event>
<event>
 4    0  0.2270578E-002  0.5003167E+03  0.7546771E-02  0.1013696E+00
         21   -1    0    0  502  501  0.00000000000E+00  0.00000000000E+00  0.11908727322E+03  0.11908727322E+03  0.00000000000E+00 0.  1.
         21   -1    0    0  501  502 -0.00000000000E+00 -0.00000000000E+00 -0.21019608307E+04  0.21019608307E+04  0.00000000000E+00 0.  1.
         25    1    1    2    0    0  0.24899853533E+03  0.40957723987E+03 -0.11474130115E+04  0.12497741416E+04  0.12500000000E+03 0.  0.
         25    1    1    2    0    0 -0.24899853533E+03 -0.40957723987E+03 -0.83546054593E+03  0.97127396229E+03  0.12500000000E+03 0.  0.
</event>
<event>
 4    0  0.2270578E-002  0.2833815E+03  0.7546771E-02  0.1093856E+00
         21   -1    0    0  502  501  0.00000000000E+00  0.00000000000E+00  0.26139380993E+03  0.26139380993E+03  0.00000000000E+00 0.  1.
         21   -1    0    0  501  502 -0.00000000000E+00 -0.00000000000E+00 -0.30721882753E+03  0.30721882753E+03  0.00000000000E+00 0.  1.
         25    1    1    2    0    0  0.24968439385E+03 -0.29956185872E+02  0.15164345243E+02  0.28123766990E+03  0.12500000000E+03 0.  0.
         25    1    1    2    0    0 -0.24968439385E+03  0.29956185872E+02 -0.60989362845E+02  0.28737496757E+03  0.12500000000E+03 0.  0.
</event>
<event>
 4    0  0.2270578E-002  0.2327156E+03  0.7546771E-02  0.1124743E+00
         21   -1    0    0  502  501  0.00000000000E+00  0.00000000000E+00  0.56214378414E+03  0.56214378414E+03  0.00000000000E+00 0.  1.
         21   -1    0    0  501  502 -0.00000000000E+00 -0.00000000000E+00 -0.96339294002E+02  0.96339294002E+02  0.00000000000E+00 0.  1.
         25    1    1    2    0    0 -0.57937186485E+02  0.12614220886E+03  0.42926119824E+03  0.46814394234E+03  0.12500000000E+03 0.  0.
         25    1    1    2    0    0  0.57937186485E+02 -0.12614220886E+03  0.36543291892E+02  0.19033913580E+03  0.12500000000E+03 0.  0.
</event>
<event>
 4    0  0.2270578E-002  0.1818570E+03  0.7546771E-02  0.1166018E+00
         21   -1    0    0  502  501  0.00000000000E+00  0.00000000000E+00  0.27181389616E+02  0.27181389616E+02  0.00000000000E+00 0. -1.
         21   -1    0    0  501  502 -0.00000000000E+00 -0.00000000000E+00 -0.12167131320E+04  0.12167131320E+04  0.00000000000E+00 0. -1.
         25    1    1    2    0    0  0.39562445283E+02 -0.95296951045E+02 -0.87679003513E+03  0.89164592842E+03  0.12500000000E+03 0.  0.
         25    1    1    2    0    0 -0.39562445283E+02  0.95296951045E+02 -0.31274170725E+03  0.35224859319E+03  0.12500000000E+03 0.  0.
</event>
<event>
 4    0  0.2270578E-002  0.1943308E+03  0.7546771E-02  0.1154612E+00
         21   -1    0    0  502  501  0.00000000000E+00  0.00000000000E+00  0.20951467045E+03  0.20951467045E+03  0.00000000000E+00 0.  1.
         21   -1    0    0  501  502 -0.00000000000E+00 -0.00000000000E+00 -0.18024724728E+03  0.18024724728E+03  0.00000000000E+00 0.  1.
         25    1    1    2    0    0  0.83925391369E+02 -0.56451838753E+02  0.12407178907E+03  0.20309872047E+03  0.12500000000E+03 0.  0.
         25    1    1    2    0    0 -0.83925391369E+02  0.56451838753E+02 -0.94804365904E+02  0.18666319726E+03  0.12500000000E+03 0.  0.
</event>
<event>
 4    0  0.2270578E-002  0.2160323E+03  0.7546771E-02  0.1136876E+00
         21   -1    0    0  502  501  0.00000000000E+00  0.00000000000E+00  0.43808451260E+04  0.43808451260E+04  0.00000000000E+00 0. -1.
         21   -1    0    0  501  502 -0.00000000000E+00 -0.00000000000E+00 -0.10653182106E+02  0.10653182106E+02  0.00000000000E+00 0. -1.
         25    1    1    2    0    0  0.71098888954E+02 -0.13440018939E+03  0.30900035550E+04  0.30962663698E+04  0.12500000000E+03 0.  0.
         25    1    1    2    0    0 -0.71098888954E+02  0.13440018939E+03  0.12801883890E+04  0.12952319384E+04  0.12500000000E+03 0.  0.
</event>
<event>
 4    0  0.2270578E-002  0.2293158E+03  0.7546771E-02  0.1127122E+00
         21   -1    0    0  502  501  0.00000000000E+00  0.00000000000E+00  0.24969481308E+03  0.24969481308E+03  0.00000000000E+00 0.  1.
         21   -1    0    0  501  502 -0.00000000000E+00 -0.00000000000E+00 -0.21059995608E+03  0.21059995608E+03  0.00000000000E+00 0.  1.
         25    1    1    2    0    0  0.30306064452E+02  0.16627994860E+03 -0.72399433008E+02  0.22233793367E+03  0.12500000000E+03 0.  0.
         25    1    1    2    0    0 -0.30306064452E+02 -0.16627994860E+03  0.11149429001E+03  0.23795683548E+03  0.12500000000E+03 0.  0.
</event>
<event>
 4    0  0.2270578E-002  0.3700293E+03  0.7546771E-02  0.1054682E+00
         21   -1    0    0  502  501  0.00000000000E+00  0.00000000000E+00  0.57379800289E+02  0.57379800289E+02  0.00000000000E+00 0. -1.
         21   -1    0    0  501  502 -0.00000000000E+00 -0.00000000000E+00 -0.23862351741E+04  0.23862351741E+04  0.00000000000E+00 0. -1.
         25    1    1    2    0    0 -0.34901967837E+02  0.95687746582E+02 -0.64722473053E+02  0.17374777904E+03  0.12500000000E+03 0.  0.
         25    1    1    2    0    0  0.34901967837E+02 -0.95687746582E+02 -0.22641329008E+04  0.22698671954E+04  0.12500000000E+03 0.  0.
</event>
<event>
 4    0  0.2270578E-002  0.2730931E+03  0.7546771E-02  0.1099522E+00
         21   -1    0    0  502  501  0.00000000000E+00  0.00000000000E+00  0.16673537591E+03  0.16673537591E+03  0.00000000000E+00 0.  1.
         21   -1    0    0  501  502 -0.00000000000E+00 -0.00000000000E+00 -0.44729451065E+03  0.44729451065E+03  0.00000000000E+00 0.  1.
         25    1    1    2    0    0 -0.61641257538E+02  0.60172700526E+00  0.12374270016E+03  0.18637935119E+03  0.12500000000E+03 0.  0.
         25    1    1    2    0    0  0.61641257538E+02 -0.60172700526E+00 -0.40430183490E+03  0.42765053538E+03  0.12500000000E+03 0.  0.
</event>
<event>
 4    0  0.2270578E-002  0.2261288E+03  0.7546771E-02  0.1129394E+00
         21   -1    0    0  502  501  0.00000000000E+00  0.00000000000E+00  0.25495609989E+03  0.25495609989E+03  0.00000000000E+00 0.  1.
         21   -1    0    0  501  502 -0.00000000000E+00 -0.00000000000E+00 -0.20056102203E+03  0.20056102203E+03  0.00000000000E+00 0.  1.
         25    1    1    2    0    0  0.16917320315E+03  0.77147223430E+02  0.58044874881E+02  0.23144216177E+03  0.12500000000E+03 0.  0.
         25    1    1    2    0    0 -0.16917320315E+03 -0.77147223430E+02 -0.36497970118E+01  0.22407496015E+03  0.12500000000E+03 0.  0.
</event>
<event>
 4    0  0.2270578E-002  0.2556796E+03  0.7546771E-02  0.1109767E+00
         21   -1    0    0  502  501  0.00000000000E+00  0.00000000000E+00  0.36061601957E+03  0.36061601957E+03  0.00000000000E+00 0.  1.
         21   -1    0    0  501  502 -0.00000000000E+00 -0.00000000000E+00 -0.18127882463E+03  0.18127882463E+03  0.00000000000E+00 0.  1.
         25    1    1    2    0    0 -0.29575148491E+02  0.20763790789E+03  0.17008731836E+03  0.29756156685E+03  0.12500000000E+03 0.  0.
         25    1    1    2    0    0  0.29575148491E+02 -0.20763790789E+03  0.92498765880E+01  0.24433327735E+03  0.12500000000E+03 0.  0.
</event>
<event>
 4    0  0.2270578E-002  0.1495557E+03  0.7546771E-02  0.1201020E+00
         21   -1    0    0  502  501  0.00000000000E+00  0.00000000000E+00  0.30742170225E+02  0.30742170225E+02  0.00000000000E+00 0. -1.
         21   -1    0    0  501  502 -0.00000000000E+00 -0.00000000000E+00 -0.72756455686E+03  0.72756455686E+03  0.00000000000E+00 0. -1.
         25    1    1    2    0    0  0.12842203965E+02  0.73833239578E+02 -0.43346865386E+03  0.45731427197E+03  0.12500000000E+03 0.  0.
         25    1    1    2    0    0 -0.12842203965E+02 -0.73833239578E+02 -0.26335373278E+03  0.30099245512E+03  0.12500000000E+03 0.  0.
</event>
<event>
 4    0  0.2270578E-002  0.2146092E+03  0.7546771E-02  0.1137967E+00
         21   -1    0    0  502  501  0.00000000000E+00  0.00000000000E+00  0.28759110357E+02  0.28759110357E+02  0.00000000000E+00 0. -1.
         21   -1    0    0  501  502 -0.00000000000E+00 -0.00000000000E+00 -0.16014783799E+04  0.16014783799E+04  0.00000000000E+00 0. -1.
         25    1    1    2    0    0 -0.10838508408E+03 -0.10996113707E+03 -0.47795241177E+03  0.51759278012E+03  0.12500000000E+03 0.  0.
         25    1    1    2    0    0  0.10838508408E+03  0.10996113707E+03 -0.10947668578E+04  0.11126447102E+04  0.12500000000E+03 0.  0.
</event>
<event>
 4    0  0.2270578E-002  0.1908113E+03  0.7546771E-02  0.1157732E+00
         21   -1    0    0  502  501  0.00000000000E+00  0.00000000000E+00  0.23391902413E+03  0.23391902413E+03  0.00000000000E+00 0.  1.
         21   -1    0    0  501  502 -0.00000000000E+00 -0.00000000000E+00 -0.15564773763E+03  0.15564773763E+03  0.00000000000E+00 0.  1.
         25    1    1    2    0    0 -0.83073998939E+02 -0.10629504584E+03  0.91027284525E+02  0.20520938721E+03  0.12500000000E+03 0.  0.
         25    1    1    2    0    0  0.83073998939E+02  0.10629504584E+03 -0.12755998026E+02  0.18435737456E+03  0.12500000000E+03 0.  0.
</event>
<event>
 4    0  0.2270578E-002  0.1737197E+03  0.7546771E-02  0.1174023E+00
         21   -1    0    0  502  501  0.00000000000E+00  0.00000000000E+00  0.57668447458E+03  0.57668447458E+03  0.00000000000E+00 0.  1.
         21   -1    0    0  501  502 -0.00000000000E+00 -0.00000000000E+00 -0.52331104318E+02  0.52331104318E+02  0.00000000000E+00 0.  1.
         25    1    1    2    0    0  0.87009284009E+02  0.20509054184E+01  0.11093551912E+03  0.18843171474E+03  0.12500000000E+03 0.  0.
         25    1    1    2    0    0 -0.87009284009E+02 -0.20509054184E+01  0.41341785114E+03  0.44058386416E+03  0.12500000000E+03 0.  0.
</event>
<event>
 4    0  0.2329620E-002  0.1958326E+03  0.7546771E-02  0.1153303E+00
         21   -1    0    0  502  501  0.00000000000E+00  0.00000000000E+00  0.16440208795E+03  0.16440208795E+03  0.00000000000E+00 0.  1.
         21   -1    0    0  501  502 -0.00000000000E+00 -0.00000000000E+00 -0.23327198354E+03  0.23327198354E+03  0.00000000000E+00 0.  1.
         25    1    1    2    0    0 -0.24858061187E+02 -0.13775595374E+02  0.11588268290E+03  0.17280476391E+03  0.12500000000E+03 0.  0.
         25    1    1    2    0    0  0.24858061187E+02  0.13775595374E+02 -0.18475257849E+03  0.22486930758E+03  0.12500000000E+03 0.  0.
</event>
<event>
 4    0  0.2270578E-002  0.2089213E+03  0.7546771E-02  0.1142423E+00
         21   -1    0    0  502  501  0.00000000000E+00  0.00000000000E+00  0.38661638910E+02  0.38661638910E+02  0.00000000000E+00 0.  1.
         21   -1    0    0  501  502 -0.00000000000E+00 -0.00000000000E+00 -0.11289774261E+04  0.11289774261E+04  0.00000000000E+00 0.  1.
         25    1    1    2    0    0 -0.70769200971E+02  0.13989111893E+03 -0.70918294372E+03  0.73698253210E+03  0.12500000000E+03 0.  0.
         25    1    1    2    0    0  0.70769200971E+02 -0.13989111893E+03 -0.38113284344E+03  0.43065653288E+03  0.12500000000E+03 0.  0.
</event>
<event>
 4    0  0.2270578E-002  0.1770440E+03  0.7546771E-02  0.1170695E+00
         21   -1    0    0  502  501  0.00000000000E+00  0.00000000000E+00  0.14160013213E+04  0.14160013213E+04  0.00000000000E+00 0.  1.
         21   -1    0    0  501  502 -0.00000000000E+00 -0.00000000000E+00 -0.22135980056E+02  0.22135980056E+02  0.00000000000E+00 0.  1.
         25    1    1    2    0    0 -0.98226098525E+02 -0.16657346881E+02  0.10060823324E+04  0.10187013759E+04  0.12500000000E+03 0.  0.
         25    1    1    2    0    0  0.98226098525E+02  0.16657346881E+02  0.38778300882E+03  0.41943592546E+03  0.12500000000E+03 0.  0.
</event>
<event>
 4    0  0.2270578E-002  0.2355155E+03  0.7546771E-02  0.1122817E+00
         21   -1    0    0  502  501  0.00000000000E+00  0.00000000000E+00  0.36354847767E+03  0.36354847767E+03  0.00000000000E+00 0. -1.
         21   -1    0    0  501  502 -0.00000000000E+00 -0.00000000000E+00 -0.15257270310E+03  0.15257270310E+03  0.00000000000E+00 0. -1.
         25    1    1    2    0    0  0.51728522556E+02 -0.18853905710E+03  0.61389049124E+02  0.24003422975E+03  0.12500000000E+03 0.  0.
         25    1    1    2    0    0 -0.51728522556E+02  0.18853905710E+03  0.14958672544E+03  0.27608695102E+03  0.12500000000E+03 0.  0.
</event>
<event>
 4    0  0.2270578E-002  0.1759261E+03  0.7546771E-02  0.1171805E+00
         21   -1    0    0  502  501  0.00000000000E+00  0.00000000000E+00  0.15028992331E+03  0.15028992331E+03  0.00000000000E+00 0.  1.
         21   -1    0    0  501  502 -0.00000000000E+00 -0.00000000000E+00 -0.20593521233E+03  0.20593521233E+03  0.00000000000E+00 0.  1.
         25    1    1    2    0    0 -0.10471312944E+01 -0.12134191235E+03 -0.30226716998E+01  0.17423860858E+03  0.12500000000E+03 0.  0.
         25    1    1    2    0    0  0.10471312944E+01  0.12134191235E+03 -0.52622617325E+02  0.18198652706E+03  0.12500000000E+03 0.  0.
</event>
<event>
 4    0  0.2270578E-002  0.2103915E+03  0.7546771E-02  0.1141256E+00
         21   -1    0    0  502  501  0.00000000000E+00  0.00000000000E+00  0.14917754255E+03  0.14917754255E+03  0.00000000000E+00 0. -1.
         21   -1    0    0  501  502 -0.00000000000E+00 -0.00000000000E+00 -0.29672422058E+03  0.29672422058E+03  0.00000000000E+00 0. -1.
         25    1    1    2    0    0  0.12003736445E+03  0.61062962291E+02 -0.18236979453E+03  0.25888490915E+03  0.12500000000E+03 0.  0.
         25    1    1    2    0    0 -0.12003736445E+03 -0.61062962291E+02  0.34823116502E+02  0.18701685397E+03  0.12500000000E+03 0.  0.
</event>
<event>
 4    0  0.2270578E-002  0.3613379E+03  0.7546771E-02  0.1058055E+00
         21   -1    0    0  502  501  0.00000000000E+00  0.00000000000E+00  0.31121625930E+03  0.31121625930E+03  0.00000000000E+00 0. -1.
         21   -1    0    0  501  502 -0.00000000000E+00 -0.00000000000E+00 -0.41953173284E+03  0.41953173284E+03  0.00000000000E+00 0. -1.
         25    1    1    2    0    0  0.93502124483E+02  0.20116441744E+03  0.20508522976E+03  0.32694758233E+03  0.12500000000E+03 0.  0.
         25    1    1    2    0    0 -0.93502124483E+02 -0.20116441744E+03 -0.31340070331E+03  0.40380040981E+03  0.12500000000E+03 0.  0.
</event>
<event>
 4    0  0.2270578E-002  0.2033542E+03  0.7546771E-02  0.1146940E+00
         21   -1    0    0  502  501  0.00000000000E+00  0.00000000000E+00  0.21857652162E+02  0.21857652162E+02  0.00000000000E+00 0.  1.
         21   -1    0    0  501  502 -0.00000000000E+00 -0.00000000000E+00 -0.18919196279E+04  0.18919196279E+04  0.00000000000E+00 0.  1.
         25    1    1    2    0    0  0.64665666617E+02 -0.88639147268E+02 -0.14855852143E+04  0.14948668756E+04  0.12500000000E+03 0.  0.
         25    1    1    2    0    0 -0.64665666617E+02  0.88639147268E+02 -0.38447676145E+03  0.41891040445E+03  0.12500000000E+03 0.  0.
</event>
<event>
 4    0  0.2270578E-002  0.5292230E+03  0.7546771E-02  0.1006421E+00
         21   -1    0    0  502  501  0.00000000000E+00  0.00000000000E+00  0.30752906239E+03  0.30752906239E+03  0.00000000000E+00 0.  1.
         21   -1    0    0  501  502 -0.00000000000E+00 -0.00000000000E+00 -0.91073323291E+03  0.91073323291E+03  0.00000000000E+00 0.  1.
         25    1    1    2    0    0 -0.15559717646E+03 -0.36204169045E+03 -0.68189510907E+03  0.79742749308E+03  0.12500000000E+03 0.  0.
         25    1    1    2    0    0  0.15559717646E+03  0.36204169045E+03  0.78690938552E+02  0.42083480222E+03  0.12500000000E+03 0.  0.
</event>
<event>
 4    0  0.2270578E-002  0.2268440E+03  0.7546771E-02  0.1128881E+00
         21   -1    0    0  502  501  0.00000000000E+00  0.00000000000E+00  0.24022142823E+02  0.24022142823E+02  0.00000000000E+00 0. -1.
         21   -1    0    0  501  502 -0.00000000000E+00 -0.00000000000E+00 -0.21421143889E+04  0.21421143889E+04  0.00000000000E+00 0. -1.
         25    1    1    2    0    0  0.15666587096E+03 -0.10604541968E+03 -0.10276098269E+04  0.10523292177E+04  0.12500000000E+03 0.  0.
         25    1    1    2    0    0 -0.15666587096E+03  0.10604541968E+03 -0.10904824192E+04  0.11138073140E+04  0.12500000000E+03 0.  0.
</event>
<event>
 4    0  0.2270578E-002  0.2537730E+03  0.7546771E-02  0.1110943E+00
         21   -1    0    0  502  501  0.00000000000E+00  0.00000000000E+00  0.93404508111E+02  0.93404508111E+02  0.00000000000E+00 0.  1.
         21   -1    0    0  501  502 -0.00000000000E+00 -0.00000000000E+00 -0.68948219204E+03  0.68948219204E+03  0.00000000000E+00 0.  1.
         25    1    1    2    0    0  0.12090724332E+03 -0.70167055082E+02 -0.56177268981E+03  0.59224617527E+03  0.12500000000E+03 0.  0.
         25    1    1    2    0    0 -0.12090724332E+03  0.70167055082E+02 -0.34304994118E+02  0.19064052488E+03  0.12500000000E+03 0.  0.
</event>
<event>
 4    0  0.2270578E-002  0.2321467E+03  0.7546771E-02  0.1125138E+00
         21   -1    0    0  502  501  0.00000000000E+00  0.00000000000E+00  0.47593649387E+03  0.47593649387E+03  0.00000000000E+00 0.  1.
         21   -1    0    0  501  502 -0.00000000000E+00 -0.00000000000E+00 -0.11323375815E+03  0.11323375815E+03  0.00000000000E+00 0.  1.
         25    1    1    2    0    0  0.88904518316E+02  0.11444953947E+03  0.14617553615E+02  0.19194109340E+03  0.12500000000E+03 0.  0.
         25    1    1    2    0    0 -0.88904518316E+02 -0.11444953947E+03  0.34808518211E+03  0.39722915863E+03  0.12500000000E+03 0.  0.
</event>
<event>
 4    0  0.2270578E-002  0.3606457E+03  0.7546771E-02  0.1058328E+00
         21   -1    0    0  502  501  0.00000000000E+00  0.00000000000E+00  0.14948200456E+03  0.14948200456E+03  0.00000000000E+00 0. -1.
         21   -1    0    0  501  502 -0.00000000000E+00 -0.00000000000E+00 -0.87010691886E+03  0.87010691886E+03  0.00000000000E+00 0. -1.
         25    1    1    2    0    0 -0.63468817820E+02  0.25275751272E+03 -0.66521474870E+03  0.72529325997E+03  0.12500000000E+03 0.  0.
         25    1    1    2    0    0  0.63468817820E+02 -0.25275751272E+03 -0.55410165596E+02  0.29429566344E+03  0.12500000000E+03 0.  0.
</event>
<event>
 4    0  0.2270578E-002  0.2081085E+03  0.7546771E-02  0.1143073E+00
         21   -1    0    0  502  501  0.00000000000E+00  0.00000000000E+00  0.14325084954E+04  0.14325084954E+04  0.00000000000E+00 0.  1.
         21   -1    0    0  501  502 -0.00000000000E+00 -0.00000000000E+00 -0.30233089098E+02  0.30233089098E+02  0.00000000000E+00 0.  1.
         25    1    1    2    0    0  0.11718054293E+03 -0.11449989838E+02  0.11143085383E+04  0.11274621503E+04  0.12500000000E+03 0.  0.
         25    1    1    2    0    0 -0.11718054293E+03  0.11449989838E+02  0.28796686804E+03  0.33527943420E+03  0.12500000000E+03 0.  0.
</event>
<event>
 4    0  0.2270578E-002  0.2538839E+03  0.7546771E-02  0.1110875E+00
         21   -1    0    0  502  501  0.00000000000E+00  0.00000000000E+00  0.18472825521E+04  0.18472825521E+04  0.00000000000E+00 0.  1.
         21   -1    0    0  501  502 -0.00000000000E+00 -0.00000000000E+00 -0.34892895180E+02  0.34892895180E+02  0.00000000000E+00 0.  1.
         25    1    1    2    0    0  0.86793469827E+02  0.19166677696E+03  0.65580911402E+03  0.69998560973E+03  0.12500000000E+03 0.  0.
         25    1    1    2    0    0 -0.86793469827E+02 -0.19166677696E+03  0.11565805429E+04  0.11821898376E+04  0.12500000000E+03 0.  0.
</event>
<event>
 4    0  0.2270578E-002  0.2335330E+03  0.7546771E-02  0.1124178E+00
         21   -1    0    0  502  501  0.00000000000E+00  0.00000000000E+00  0.40960588582E+02  0.40960588582E+02  0.00000000000E+00 0.  1.
         21   -1    0    0  501  502 -0.00000000000E+00 -0.00000000000E+00 -0.13314663493E+04  0.13314663493E+04  0.00000000000E+00 0.  1.
         25    1    1    2    0    0  0.69902033446E+02  0.25437996970E+02 -0.11820984761E+04  0.11910143547E+04  0.12500000000E+03 0.  0.
         25    1    1    2    0    0 -0.69902033446E+02 -0.25437996970E+02 -0.10840728463E+03  0.18141258316E+03  0.12500000000E+03 0.  0.
</event>
<event>
 4    0  0.2270578E-002  0.2090997E+03  0.7546771E-02  0.1142281E+00
         21   -1    0    0  502  501  0.00000000000E+00  0.00000000000E+00  0.25543263350E+04  0.25543263350E+04  0.00000000000E+00 0. -1.
         21   -1    0    0  501  502 -0.00000000000E+00 -0.00000000000E+00 -0.17117117827E+02  0.17117117827E+02  0.00000000000E+00 0. -1.
         25    1    1    2    0    0 -0.90950358224E+02 -0.97066953571E+02  0.64143024947E+03  0.66689708806E+03  0.12500000000E+03 0.  0.
         25    1    1    2    0    0  0.90950358224E+02  0.97066953571E+02  0.18957789677E+04  0.19045463648E+04  0.12500000000E+03 0.  0.
</event>
<event>
 4    0  0.2270578E-002  0.2066221E+03  0.7546771E-02  0.1144269E+00
         21   -1    0    0  502  501  0.00000000000E+00  0.00000000000E+00  0.69533155825E+03  0.69533155825E+03  0.00000000000E+00 0.  1.
         21   -1    0    0  501  502 -0.00000000000E+00 -0.00000000000E+00 -0.61399026637E+02  0.61399026637E+02  0.00000000000E+00 0.  1.
         25    1    1    2    0    0 -0.89535025017E+02  0.11603477462E+03  0.18009021700E+03  0.26370073168E+03  0.12500000000E+03 0.  0.
         25    1    1    2    0    0  0.89535025017E+02 -0.11603477462E+03  0.45384231461E+03  0.49302985321E+03  0.12500000000E+03 0.  0.
</event>
<event>
 4    0  0.2270578E-002  0.2761625E+03  0.7546771E-02  0.1097804E+00
         21   -1    0    0  502  501  0.00000000000E+00  0.00000000000E+00  0.11430913354E+04  0.11430913354E+04  0.00000000000E+00 0.  1.
         21   -1    0    0  501  502 -0.00000000000E+00 -0.00000000000E+00 -0.66718858725E+02  0.66718858725E+02  0.00000000000E+00 0.  1.
         25    1    1    2    0    0 -0.66183854897E+02 -0.91088073023E+02  0.10178948307E+04  0.10317035553E+04  0.12500000000E+03 0.  0.
         25    1    1    2    0    0  0.66183854897E+02  0.91088073023E+02  0.58477645927E+02  0.17810663876E+03  0.12500000000E+03 0.  0.
</event>
<event>
 4    0  0.2270578E-002  0.2018651E+03  0.7546771E-02  0.1148175E+00
         21   -1    0    0  502  501  0.00000000000E+00  0.00000000000E+00  0.13124342759E+03  0.13124342759E+03  0.00000000000E+00 0.  1.
         21   -1    0    0  501  502 -0.00000000000E+00 -0.00000000000E+00 -0.31048810196E+03  0.31048810196E+03  0.00000000000E+00 0.  1.
         25    1    1    2    0    0 -0.12046807925E+03  0.10258538171E+03 -0.99898037962E+02  0.22503541199E+03  0.12500000000E+03 0.  0.
         25    1    1    2    0    0  0.12046807925E+03 -0.10258538171E+03 -0.79346636407E+02  0.21669611757E+03  0.12500000000E+03 0.  0.
</event>
<event>
 4    0  0.2270578E-002  0.2573975E+03  0.7546771E-02  0.1108717E+00
         21   -1    0    0  502  501  0.00000000000E+00  0.00000000000E+00  0.91873234364E+02  0.91873234364E+02  0.00000000000E+00 0. -1.
         21   -1    0    0  501  502 -0.00000000000E+00 -0.00000000000E+00 -0.72114004574E+03  0.72114004574E+03  0.00000000000E+00 0. -1.
         25    1    1    2    0    0  0.39072998170E+01 -0.21095866406E+03 -0.19118904088E+03  0.31096153184E+03  0.12500000000E+03 0.  0.
         25    1    1    2    0    0 -0.39072998170E+01  0.21095866406E+03 -0.43807777050E+03  0.50205174827E+03  0.12500000000E+03 0.  0.
</event>
<event>
 4    0  0.2270578E-002  0.2407285E+03  0.7546771E-02  0.1119308E+00
         21   -1    0    0  502  501  0.00000000000E+00  0.00000000000E+00  0.17268614435E+03  0.17268614435E+03  0.00000000000E+00 0. -1.
         21   -1    0    0  501  502 -0.00000000000E+00 -0.00000000000E+00 -0.33558100447E+03  0.33558100447E+03  0.00000000000E+00 0. -1.
         25    1    1    2    0    0 -0.11620683632E+03  0.16496739761E+03 -0.12376605677E+03  0.26769629786E+03  0.12500000000E+03 0.  0.
         25    1    1    2    0    0  0.11620683632E+03 -0.16496739761E+03 -0.39128803354E+02  0.24057085097E+03  0.12500000000E+03 0.  0.
</event>
<event>
 4    0  0.2270578E-002  0.1640538E+03  0.7546771E-02  0.1184195E+00
         21   -1    0    0  502  501  0.00000000000E+00  0.00000000000E+00  0.88025228232E+02  0.88025228232E+02  0.00000000000E+00 0.  1.
         21   -1    0    0  501  502 -0.00000000000E+00 -0.00000000000E+00 -0.30574920146E+03  0.30574920146E+03  0.00000000000E+00 0.  1.
         25    1    1    2    0    0  0.75150901817E+02 -0.38331597211E+02 -0.31346863078E+02  0.15402790401E+03  0.12500000000E+03 0.  0.
         25    1    1    2    0    0 -0.75150901817E+02  0.38331597211E+02 -0.18637711015E+03  0.23974652568E+03  0.12500000000E+03 0.  0.
</event>
<event>
 4    0  0.2270578E-002  0.1818274E+03  0.7546771E-02  0.1166046E+00
         21   -1    0    0  502  501  0.00000000000E+00  0.00000000000E+00  0.12203073930E+03  0.12203073930E+03  0.00000000000E+00 0. -1.
         21   -1    0    0  501  502 -0.00000000000E+00 -0.00000000000E+00 -0.27092524181E+03  0.27092524181E+03  0.00000000000E+00 0. -1.
         25    1    1    2    0    0  0.37290343777E+02  0.11502710602E+03 -0.17121775083E+02  0.17475685978E+03  0.12500000000E+03 0.  0.
         25    1    1    2    0    0 -0.37290343777E+02 -0.11502710602E+03 -0.13177272743E+03  0.21819912134E+03  0.12500000000E+03 0.  0.
</event>
<event>
 4    0  0.2270578E-002  0.1818042E+03  0.7546771E-02  0.1166068E+00
         21   -1    0    0  502  501  0.00000000000E+00  0.00000000000E+00  0.78989555577E+02  0.78989555577E+02  0.00000000000E+00 0.  1.
         21   -1    0    0  501  502 -0.00000000000E+00 -0.00000000000E+00 -0.41844465862E+03  0.41844465862E+03  0.00000000000E+00 0.  1.
         25    1    1    2    0    0  0.67620871824E+02  0.33980220531E+02 -0.31770801680E+03  0.34970076012E+03  0.12500000000E+03 0.  0.
         25    1    1    2    0    0 -0.67620871824E+02 -0.33980220531E+02 -0.21747086250E+02  0.14773345408E+03  0.12500000000E+03 0.  0.
</event>
<event>
 4    0  0.2270578E-002  0.2128556E+03  0.7546771E-02  0.1139324E+00
         21   -1    0    0  502  501  0.00000000000E+00  0.00000000000E+00  0.23762278550E+04  0.23762278550E+04  0.00000000000E+00 0.  1.
         21   -1    0    0  501  502 -0.00000000000E+00 -0.00000000000E+00 -0.19066985501E+02  0.19066985501E+02  0.00000000000E+00 0.  1.
         25    1    1    2    0    0  0.15581118510E+03  0.36974348723E+02  0.15361345868E+04  0.15495091793E+04  0.12500000000E+03 0.  0.
         25    1    1    2    0    0 -0.15581118510E+03 -0.36974348723E+02  0.82102628267E+03  0.84578566121E+03  0.12500000000E+03 0.  0.
</event>
<event>
 4    0  0.2270578E-002  0.1586040E+03  0.7546771E-02  0.1190282E+00
         21   -1    0    0  502  501  0.00000000000E+00  0.00000000000E+00  0.55702493784E+02  0.55702493784E+02  0.00000000000E+00 0.  1.
         21   -1    0    0  501  502 -0.00000000000E+00 -0.00000000000E+00 -0.45159945654E+03  0.45159945654E+03  0.00000000000E+00 0.  1.
         25    1    1    2    0    0 -0.41816282000E+02 -0.87048907417E+02 -0.22079638469E+03  0.27148141228E+03  0.12500000000E+03 0.  0.
         25    1    1    2    0    0  0.41816282000E+02  0.87048907417E+02 -0.17510057807E+03  0.23582053804E+03  0.12500000000E+03 0.  0.
</event>
<event>
 4    0  0.2270578E-002  0.2332555E+03  0.7546771E-02  0.1124369E+00
         21   -1    0    0  502  501  0.00000000000E+00  0.00000000000E+00  0.55032096933E+02  0.55032096933E+02  0.00000000000E+00 0. -1.
         21   -1    0    0  501  502 -0.00000000000E+00 -0.00000000000E+00 -0.98866187227E+03  0.98866187227E+03  0.00000000000E+00 0. -1.
         25    1    1    2    0    0 -0.17919532954E+03  0.21222053643E+02 -0.64328415355E+03  0.67970643950E+03  0.12500000000E+03 0.  0.
         25    1    1    2    0    0  0.17919532954E+03 -0.21222053643E+02 -0.29034562178E+03  0.36398752970E+03  0.12500000000E+03 0.  0.
</event>
<event>
 4    0  0.2270578E-002  0.1889437E+03  0.7546771E-02  0.1159417E+00
         21   -1    0    0  502  501  0.00000000000E+00  0.00000000000E+00  0.38654580963E+02  0.38654580963E+02  0.00000000000E+00 0.  1.
         21   -1    0    0  501  502 -0.00000000000E+00 -0.00000000000E+00 -0.92355769019E+03  0.92355769019E+03  0.00000000000E+00 0.  1.
         25    1    1    2    0    0  0.10840390456E+03  0.23467737295E+02 -0.21796445137E+03  0.27465549927E+03  0.12500000000E+03 0.  0.
         25    1    1    2    0    0 -0.10840390456E+03 -0.23467737295E+02 -0.66693865786E+03  0.68755677188E+03  0.12500000000E+03 0.  0.
</event>
<event>
 4    0  0.2270578E-002  0.1492937E+03  0.7546771E-02  0.1201344E+00
         21   -1    0    0  502  501  0.00000000000E+00  0.00000000000E+00  0.45033051863E+03  0.45033051863E+03  0.00000000000E+00 0. -1.
         21   -1    0    0  501  502 -0.00000000000E+00 -0.00000000000E+00 -0.49493884958E+02  0.49493884958E+02  0.00000000000E+00 0. -1.
         25    1    1    2    0    0 -0.26752965866E+02 -0.75757346687E+02  0.22460173888E+03  0.26930621580E+03  0.12500000000E+03 0.  0.
         25    1    1    2    0    0  0.26752965866E+02  0.75757346687E+02  0.17623489479E+03  0.23051818779E+03  0.12500000000E+03 0.  0.
</event>
<event>
 4    0  0.2270578E-002  0.2045359E+03  0.7546771E-02  0.1145968E+00
         21   -1    0    0  502  501  0.00000000000E+00  0.00000000000E+00  0.62323173282E+03  0.62323173282E+03  0.00000000000E+00 0. -1.
         21   -1    0    0  501  502 -0.00000000000E+00 -0.00000000000E+00 -0.67125818336E+02  0.67125818336E+02  0.00000000000E+00 0. -1.
         25    1    1    2    0    0  0.64576513257E+01  0.10587954608E+03  0.71653858586E+02  0.17891745300E+03  0.12500000000E+03 0.  0.
         25    1    1    2    0    0 -0.64576513257E+01 -0.10587954608E+03  0.48445205590E+03  0.51144009816E+03  0.12500000000E+03 0.  0.
</event>
<event>
 4    0  0.2270578E-002  0.1930115E+03  0.7546771E-02  0.1155773E+00
         21   -1    0    0  502  501  0.00000000000E+00  0.00000000000E+00  0.16777153702E+02  0.16777153702E+02  0.00000000000E+00 0. -1.
         21   -1    0    0  501  502 -0.00000000000E+00 -0.00000000000E+00 -0.22204865622E+04  0.22204865622E+04  0.00000000000E+00 0. -1.
         25    1    1    2    0    0 -0.11159473579E+03  0.10175536116E+02 -0.16538608905E+04  0.16623590983E+04  0.12500000000E+03 0.  0.
         25    1    1    2    0    0  0.11159473579E+03 -0.10175536116E+02 -0.54984851804E+03  0.57490461764E+03  0.12500000000E+03 0.  0.
</event>
<event>
 4    0  0.2270578E-002  0.2473297E+03  0.7546771E-02  0.1115004E+00
         21   -1    0    0  502  501  0.00000000000E+00  0.00000000000E+00  0.45766107014E+03  0.45766107014E+03  0.00000000000E+00 0.  1.
         21   -1    0    0  501  502 -0.00000000000E+00 -0.00000000000E+00 -0.13366223361E+03  0.13366223361E+03  0.00000000000E+00 0.  1.
         25    1    1    2    0    0 -0.17035951880E+03 -0.15741817354E+02  0.31451126339E+03  0.37922619273E+03  0.12500000000E+03 0.  0.
         25    1    1    2    0    0  0.17035951880E+03  0.15741817354E+02  0.94875731493E+01  0.21209711102E+03  0.12500000000E+03 0.  0.
</event>
<event>
 4    0  0.2270578E-002  0.2086641E+03  0.7546771E-02  0.1142628E+00
         21   -1    0    0  502  501  0.00000000000E+00  0.00000000000E+00  0.75016997600E+02  0.75016997600E+02  0.00000000000E+00 0.  1.
         21   -1    0    0  501  502 -0.00000000000E+00 -0.00000000000E+00 -0.58041119344E+03  0.58041119344E+03  0.00000000000E+00 0.  1.
         25    1    1    2    0    0  0.18418091720E+02  0.71997036660E+02 -0.48771590545E+03  0.50893477363E+03  0.12500000000E+03 0.  0.
         25    1    1    2    0    0 -0.18418091720E+02 -0.71997036660E+02 -0.17678290390E+02  0.14649341740E+03  0.12500000000E+03 0.  0.
</event>
<event>
 4    0  0.2270578E-002  0.2266867E+03  0.7546771E-02  0.1128994E+00
         21   -1    0    0  502  501  0.00000000000E+00  0.00000000000E+00  0.66109989261E+03  0.66109989261E+03  0.00000000000E+00 0. -1.
         21   -1    0    0  501  502 -0.00000000000E+00 -0.00000000000E+00 -0.77729358107E+02  0.77729358107E+02  0.00000000000E+00 0. -1.
         25    1    1    2    0    0  0.15188743088E+03 -0.94194459271E+02  0.19097117037E+03  0.28989200701E+03  0.12500000000E+03 0.  0.
         25    1    1    2    0    0 -0.15188743088E+03  0.94194459271E+02  0.39239936413E+03  0.44893724370E+03  0.12500000000E+03 0.  0.
</event>
<event>
 4    0  0.2270578E-002  0.3163607E+03  0.7546771E-02  0.1077336E+00
         21   -1    0    0  502  501  0.00000000000E+00  0.00000000000E+00  0.62242485688E+02  0.62242485688E+02  0.00000000000E+00 0. -1.
         21   -1    0    0  501  502 -0.00000000000E+00 -0.00000000000E+00 -0.16079711844E+04  0.16079711844E+04  0.00000000000E+00 0. -1.
         25    1    1    2    0    0  0.18115279910E+03  0.19626882835E+03 -0.47048757090E+03  0.55526691237E+03  0.12500000000E+03 0.  0.
         25    1    1    2    0    0 -0.18115279910E+03 -0.19626882835E+03 -0.10752411278E+04  0.11149467577E+04  0.12500000000E+03 0.  0.
</event>
<event>
 4    0  0.2270578E-002  0.2781187E+03  0.7546771E-02  0.1096721E+00
         21   -1    0    0  502  501  0.00000000000E+00  0.00000000000E+00  0.27354118446E+03  0.27354118446E+03  0.00000000000E+00 0. -1.
         21   -1    0    0  501  502 -0.00000000000E+00 -0.00000000000E+00 -0.28277283205E+03  0.28277283205E+03  0.00000000000E+00 0. -1.
         25    1    1    2    0    0 -0.24469581003E+03 -0.42977936172E+02 -0.32470706520E+01  0.27813429474E+03  0.12500000000E+03 0.  0.
         25    1    1    2    0    0  0.24469581003E+03  0.42977936172E+02 -0.59845769411E+01  0.27817972177E+03  0.12500000000E+03 0.  0.
</event>
<event>
 4    0  0.2270578E-002  0.1742281E+03  0.7546771E-02  0.1173509E+00
         21   -1    0    0  502  501  0.00000000000E+00  0.00000000000E+00  0.39891361734E+03  0.39891361734E+03  0.00000000000E+00 0.  1.
         21   -1    0    0  501  502 -0.00000000000E+00 -0.00000000000E+00 -0.76095288725E+02  0.76095288725E+02  0.00000000000E+00 0.  1.
         25    1    1    2    0    0  0.15378912805E+02  0.11662319648E+03  0.12067386648E+03  0.20982054945E+03  0.12500000000E+03 0.  0.
         25    1    1    2    0    0 -0.15378912805E+02 -0.11662319648E+03  0.20214446213E+03  0.26518835662E+03  0.12500000000E+03 0.  0.
</event>
<event>
 4    0  0.2270578E-002  0.1722272E+03  0.7546771E-02  0.1175545E+00
         21   -1    0    0  502  501  0.00000000000E+00  0.00000000000E+00  0.12353688894E+03  0.12353688894E+03  0.00000000000E+00 0.  1.
         21   -1    0    0  501  502 -0.00000000000E+00 -0.00000000000E+00 -0.24010800472E+03  0.24010800472E+03  0.00000000000E+00 0.  1.
         25    1    1    2    0    0  0.80369826795E+02  0.12520398352E+02  0.32659847894E+02  0.15266871028E+03  0.12500000000E+03 0.  0.
         25    1    1    2    0    0 -0.80369826795E+02 -0.12520398352E+02 -0.14923096367E+03  0.21097618338E+03  0.12500000000E+03 0.  0.
</event>
<event>
 4    0  0.2270578E-002  0.2054296E+03  0.7546771E-02  0.1145237E+00
         21   -1    0    0  502  501  0.00000000000E+00  0.00000000000E+00  0.28752039571E+03  0.28752039571E+03  0.00000000000E+00 0.  1.
         21   -1    0    0  501  502 -0.00000000000E+00 -0.00000000000E+00 -0.14677672582E+03  0.14677672582E+03  0.00000000000E+00 0.  1.
         25    1    1    2    0    0 -0.13105459598E+03  0.64921682686E+02 -0.57514313410E+01  0.19247911828E+03  0.12500000000E+03 0.  0.
         25    1    1    2    0    0  0.13105459598E+03 -0.64921682686E+02  0.14649510123E+03  0.24181800325E+03  0.12500000000E+03 0.  0.
</event>
<event>
 4    0  0.2270578E-002  0.1681650E+03  0.7546771E-02  0.1179775E+00
         21   -1    0    0  502  501  0.00000000000E+00  0.00000000000E+00  0.47016541697E+03  0.47016541697E+03  0.00000000000E+00 0. -1.
         21   -1    0    0  501  502 -0.00000000000E+00 -0.00000000000E+00 -0.60147890001E+02  0.60147890001E+02  0.00000000000E+00 0. -1.
         25    1    1    2    0    0 -0.48210119117E+02  0.38009724158E+02  0.56378242321E+02  0.15024134226E+03  0.12500000000E+03 0.  0.
         25    1    1    2    0    0  0.48210119117E+02 -0.38009724158E+02  0.35363928465E+03  0.38007196471E+03  0.12500000000E+03 0.  0.
</event>
<event>
 4    0  0.2270578E-002  0.3436552E+03  0.7546771E-02  0.1065250E+00
         21   -1    0    0  502  501  0.00000000000E+00  0.00000000000E+00  0.13015533337E+03  0.13015533337E+03  0.00000000000E+00 0. -1.
         21   -1    0    0  501  502 -0.00000000000E+00 -0.00000000000E+00 -0.90736909156E+03  0.90736909156E+03  0.00000000000E+00 0. -1.
         25    1    1    2    0    0  0.51325481743E+02 -0.22207382852E+03 -0.49302691222E+02  0.26458806805E+03  0.12500000000E+03 0.  0.
         25    1    1    2    0    0 -0.51325481743E+02  0.22207382852E+03 -0.72791106696E+03  0.77293635688E+03  0.12500000000E+03 0.  0.
</event>
<event>
 4    0  0.2270578E-002  0.2106895E+03  0.7546771E-02  0.1141021E+00
         21   -1    0    0  502  501  0.00000000000E+00  0.00000000000E+00  0.10223037691E+03  0.10223037691E+03  0.00000000000E+00 0. -1.
         21   -1    0    0  501  502 -0.00000000000E+00 -0.00000000000E+00 -0.43421584767E+03  0.43421584767E+03  0.00000000000E+00 0. -1.
         25    1    1    2    0    0  0.10188845797E+02  0.22415631594E+02  0.47636296833E+02  0.13601650596E+03  0.12500000000E+03 0.  0.
         25    1    1    2    0    0 -0.10188845797E+02 -0.22415631594E+02 -0.37962176759E+03  0.40042971861E+03  0.12500000000E+03 0.  0.
</event>
<event>
 4    0  0.2270578E-002  0.1607102E+03  0.7546771E-02  0.1187897E+00
         21   -1    0    0  502  501  0.00000000000E+00  0.00000000000E+00  0.13948556864E+04  0.13948556864E+04  0.00000000000E+00 0.  1.
         21   -1    0    0  501  502 -0.00000000000E+00 -0.00000000000E+00 -0.18516443120E+02  0.18516443120E+02  0.00000000000E+00 0.  1.
         25    1    1    2    0    0  0.23391073560E+01 -0.74599212973E+02  0.38888858884E+03  0.41524673211E+03  0.12500000000E+03 0.  0.
         25    1    1    2    0    0 -0.23391073560E+01  0.74599212973E+02  0.98745065445E+03  0.99812539742E+03  0.12500000000E+03 0.  0.
</event>
<event>
 4    0  0.2270578E-002  0.2076206E+03  0.7546771E-02  0.1143464E+00
         21   -1    0    0  502  501  0.00000000000E+00  0.00000000000E+00  0.40989564246E+02  0.40989564246E+02  0.00000000000E+00 0. -1.
         21   -1    0    0  501  502 -0.00000000000E+00 -0.00000000000E+00 -0.10516408596E+04  0.10516408596E+04  0.00000000000E+00 0. -1.
         25    1    1    2    0    0 -0.25186820290E+02  0.15768828472E+03 -0.38820019763E+03  0.43797758446E+03  0.12500000000E+03 0.  0.
         25    1    1    2    0    0  0.25186820290E+02 -0.15768828472E+03 -0.62245109777E+03  0.65465283943E+03  0.12500000000E+03 0.  0.
</event>
<event>
 4    0  0.2270578E-002  0.2183822E+03  0.7546771E-02  0.1135095E+00
         21   -1    0    0  502  501  0.00000000000E+00  0.00000000000E+00  0.14787462068E+03  0.14787462068E+03  0.00000000000E+00 0. -1.
         21   -1    0    0  501  502 -0.00000000000E+00 -0.00000000000E+00 -0.32250821574E+03  0.32250821574E+03  0.00000000000E+00 0. -1.
         25    1    1    2    0    0 -0.45970989957E+02  0.29282964054E+02  0.96384875445E+02  0.16699062284E+03  0.12500000000E+03 0.  0.
         25    1    1    2    0    0  0.45970989957E+02 -0.29282964054E+02 -0.27101847051E+03  0.30339221358E+03  0.12500000000E+03 0.  0.
</event>
<event>
 4    0  0.2270578E-002  0.3614440E+03  0.7546771E-02  0.1058014E+00
         21   -1    0    0  502  501  0.00000000000E+00  0.00000000000E+00  0.65679960108E+03  0.65679960108E+03  0.00000000000E+00 0.  1.
         21   -1    0    0  501  502 -0.00000000000E+00 -0.00000000000E+00 -0.19890657319E+03  0.19890657319E+03  0.00000000000E+00 0.  1.
         25    1    1    2    0    0 -0.43180779601E+02  0.15370928045E+03 -0.12523620529E+03  0.23832798773E+03  0.12500000000E+03 0.  0.
         25    1    1    2    0    0  0.43180779601E+02 -0.15370928045E+03  0.58312923318E+03  0.61737818654E+03  0.12500000000E+03 0.  0.
</event>
<event>
 4    0  0.2270578E-002  0.4060730E+03  0.7546771E-02  0.1041697E+00
         21   -1    0    0  502  501  0.00000000000E+00  0.00000000000E+00  0.12562830520E+03  0.12562830520E+03  0.00000000000E+00 0.  1.
         21   -1    0    0  501  502 -0.00000000000E+00 -0.00000000000E+00 -0.13125648886E+04  0.13125648886E+04  0.00000000000E+00 0.  1.
         25    1    1    2    0    0  0.17705904442E+03  0.14845740815E+03 -0.45129582616E+02  0.26655428429E+03  0.12500000000E+03 0.  0.
         25    1    1    2    0    0 -0.17705904442E+03 -0.14845740815E+03 -0.11418070008E+04  0.11716389095E+04  0.12500000000E+03 0.  0.
</event>
<event>
 4    0  0.2270578E-002  0.2540807E+03  0.7546771E-02  0.1110753E+00
         21   -1    0    0  502  501  0.00000000000E+00  0.00000000000E+00  0.36768167318E+03  0.36768167318E+03  0.00000000000E+00 0.  1.
         21   -1    0    0  501  502 -0.00000000000E+00 -0.00000000000E+00 -0.17557847915E+03  0.17557847915E+03  0.00000000000E+00 0.  1.
         25    1    1    2    0    0  0.11463044277E+03 -0.18587201145E+03  0.58353478423E+02  0.25829957703E+03  0.12500000000E+03 0.  0.
         25    1    1    2    0    0 -0.11463044277E+03  0.18587201145E+03  0.13374971560E+03  0.28496057530E+03  0.12500000000E+03 0.  0.
</event>
<event>
 4    0  0.2270578E-002  0.2884893E+03  0.7546771E-02  0.1091141E+00
         21   -1    0    0  502  501  0.00000000000E+00  0.00000000000E+00  0.59302538262E+03  0.59302538262E+03  0.00000000000E+00 0. -1.
         21   -1    0    0  501  502 -0.00000000000E+00 -0.00000000000E+00 -0.14034153667E+03  0.14034153667E+03  0.00000000000E+00 0. -1.
         25    1    1    2    0    0 -0.52631803490E+02  0.18974864023E+03  0.44214472186E+03  0.49989159652E+03  0.12500000000E+03 0.  0.
         25    1    1    2    0    0  0.52631803490E+02 -0.18974864023E+03  0.10539124095E+02  0.23347532277E+03  0.12500000000E+03 0.  0.
</event>
<event>
 4    0  0.2270578E-002  0.2707701E+03  0.7546771E-02  0.1100840E+00
         21   -1    0    0  502  501  0.00000000000E+00  0.00000000000E+00  0.19461040264E+03  0.19461040264E+03  0.00000000000E+00 0. -1.
         21   -1    0    0  501  502 -0.00000000000E+00 -0.00000000000E+00 -0.37673444650E+03  0.37673444650E+03  0.00000000000E+00 0. -1.
         25    1    1    2    0    0 -0.18671447954E+03 -0.14764490844E+03 -0.12492404502E+03  0.29646641105E+03  0.12500000000E+03 0.  0.
         25    1    1    2    0    0  0.18671447954E+03  0.14764490844E+03 -0.57199998833E+02  0.27487843809E+03  0.12500000000E+03 0.  0.
</event>
<event>
 4    0  0.2270578E-002  0.2700443E+03  0.7546771E-02  0.1101254E+00
         21   -1    0    0  502  501  0.00000000000E+00  0.00000000000E+00  0.19646680125E+03  0.19646680125E+03  0.00000000000E+00 0.  1.
         21   -1    0    0  501  502 -0.00000000000E+00 -0.00000000000E+00 -0.37117672750E+03  0.37117672750E+03  0.00000000000E+00 0.  1.
         25    1    1    2    0    0 -0.22325613042E+03 -0.26499473655E+00  0.33957668563E+01  0.25589040862E+03  0.12500000000E+03 0.  0.
         25    1    1    2    0    0  0.22325613042E+03  0.26499473655E+00 -0.17810569311E+03  0.31175312013E+03  0.12500000000E+03 0.  0.
</event>
<event>
 4    0  0.2270578E-002  0.2125539E+03  0.7546771E-02  0.1139559E+00
         21   -1    0    0  502  501  0.00000000000E+00  0.00000000000E+00  0.79526739269E+03  0.79526739269E+03  0.00000000000E+00 0. -1.
         21   -1    0    0  501  502 -0.00000000000E+00 -0.00000000000E+00 -0.56810031800E+02  0.56810031800E+02  0.00000000000E+00 0. -1.
         25    1    1    2    0    0 -0.50285310982E+02 -0.29547189164E+02  0.69337172389E+03  0.70695897786E+03  0.12500000000E+03 0.  0.
         25    1    1    2    0    0  0.50285310982E+02  0.29547189164E+02  0.45085636998E+02  0.14511844663E+03  0.12500000000E+03 0.  0.
</event>
<event>
 4    0  0.2270578E-002  0.1941011E+03  0.7546771E-02  0.1154814E+00
         21   -1    0    0  502  501  0.00000000000E+00  0.00000000000E+00  0.63125681624E+03  0.63125681624E+03  0.00000000000E+00 0.  1.
         21   -1    0    0  501  502 -0.00000000000E+00 -0.00000000000E+00 -0.59682917862E+02  0.59682917862E+02  0.00000000000E+00 0.  1.
         25    1    1    2    0    0  0.11649767425E+03  0.75018306848E+02  0.19075600471E+03  0.26685634300E+03  0.12500000000E+03 0.  0.
         25    1    1    2    0    0 -0.11649767425E+03 -0.75018306848E+02  0.38081789367E+03  0.42408339110E+03  0.12500000000E+03 0.  0.
</event>
<event>
 4    0  0.2270578E-002  0.2224418E+03  0.7546771E-02  0.1132076E+00
         21   -1    0    0  502  501  0.00000000000E+00  0.00000000000E+00  0.47512473109E+02  0.47512473109E+02  0.00000000000E+00 0.  1.
         21   -1    0    0  501  502 -0.00000000000E+00 -0.00000000000E+00 -0.10414181945E+04  0.10414181945E+04  0.00000000000E+00 0.  1.
         25    1    1    2    0    0 -0.46367244838E+01  0.10391752564E+03 -0.12546214235E+03  0.20539255223E+03  0.12500000000E+03 0.  0.
         25    1    1    2    0    0  0.46367244838E+01 -0.10391752564E+03 -0.86844357905E+03  0.88353811538E+03  0.12500000000E+03 0.  0.
</event>
<event>
 4    0  0.2270578E-002  0.1820719E+03  0.7546771E-02  0.1165813E+00
         21   -1    0    0  502  501  0.00000000000E+00  0.00000000000E+00  0.48276317127E+02  0.48276317127E+02  0.00000000000E+00 0.  1.
         21   -1    0    0  501  502 -0.00000000000E+00 -0.00000000000E+00 -0.68667552702E+03  0.68667552702E+03  0.00000000000E+00 0.  1.
         25    1    1    2    0    0  0.38173839681E+02  0.62290984694E+01 -0.57472902090E+03  0.58943573964E+03  0.12500000000E+03 0.  0.
         25    1    1    2    0    0 -0.38173839681E+02 -0.62290984694E+01 -0.63670188995E+02  0.14551610451E+03  0.12500000000E+03 0.  0.
</event>
<event>
 4    0  0.2270578E-002  0.2032652E+03  0.7546771E-02  0.1147013E+00
         21   -1    0    0  502  501  0.00000000000E+00  0.00000000000E+00  0.15858555373E+03  0.15858555373E+03  0.00000000000E+00 0.  1.
         21   -1    0    0  501  502 -0.00000000000E+00 -0.00000000000E+00 -0.26053279755E+03  0.26053279755E+03  0.00000000000E+00 0.  1.
         25    1    1    2    0    0 -0.28358356047E+02  0.79892620032E+02 -0.19121779315E+03  0.24367246769E+03  0.12500000000E+03 0.  0.
         25    1    1    2    0    0  0.28358356047E+02 -0.79892620032E+02  0.89270549330E+02  0.17544588360E+03  0.12500000000E+03 0.  0.
</event>
<event>
 4    0  0.2270578E-002  0.2947665E+03  0.7546771E-02  0.1087886E+00
         21   -1    0    0  502  501  0.00000000000E+00  0.00000000000E+00  0.14743275853E+03  0.14743275853E+03  0.00000000000E+00 0.  1.
         21   -1    0    0  501  502 -0.00000000000E+00 -0.00000000000E+00 -0.58933518703E+03  0.58933518703E+03  0.00000000000E+00 0.  1.
         25    1    1    2    0    0  0.55497651164E+02  0.20920033107E+03 -0.25664121746E+02  0.25125368644E+03  0.12500000000E+03 0.  0.
         25    1    1    2    0    0 -0.55497651164E+02 -0.20920033107E+03 -0.41623830675E+03  0.48551425913E+03  0.12500000000E+03 0.  0.
</event>
<event>
 4    0  0.2270578E-002  0.2088359E+03  0.7546771E-02  0.1142491E+00
         21   -1    0    0  502  501  0.00000000000E+00  0.00000000000E+00  0.61760745221E+02  0.61760745221E+02  0.00000000000E+00 0.  1.
         21   -1    0    0  501  502 -0.00000000000E+00 -0.00000000000E+00 -0.70615135971E+03  0.70615135971E+03  0.00000000000E+00 0.  1.
         25    1    1    2    0    0 -0.81026677699E+01 -0.11920955141E+03 -0.10691278980E+03  0.20330252088E+03  0.12500000000E+03 0.  0.
         25    1    1    2    0    0  0.81026677699E+01  0.11920955141E+03 -0.53747782468E+03  0.56460958405E+03  0.12500000000E+03 0.  0.
</event>
<event>
 4    0  0.2270578E-002  0.2433813E+03  0.7546771E-02  0.1117561E+00
         21   -1    0    0  502  501  0.00000000000E+00  0.00000000000E+00  0.21802074137E+03  0.21802074137E+03  0.00000000000E+00 0.  1.
         21   -1    0    0  501  502 -0.00000000000E+00 -0.00000000000E+00 -0.27169175187E+03  0.27169175187E+03  0.00000000000E+00 0.  1.
         25    1    1    2    0    0  0.10553678842E+03 -0.80005511797E+02 -0.18927778694E+03  0.26265943017E+03  0.12500000000E+03 0.  0.
         25    1    1    2    0    0 -0.10553678842E+03  0.80005511797E+02  0.13560677645E+03  0.22705306306E+03  0.12500000000E+03 0.  0.
</event>
<event>
 4    0  0.2270578E-002  0.2934656E+03  0.7546771E-02  0.1088553E+00
         21   -1    0    0  502  501  0.00000000000E+00  0.00000000000E+00  0.19337110121E+03  0.19337110121E+03  0.00000000000E+00 0. -1.
         21   -1    0    0  501  502 -0.00000000000E+00 -0.00000000000E+00 -0.44537199751E+03  0.44537199751E+03  0.00000000000E+00 0. -1.
         25    1    1    2    0    0  0.18306229638E+03  0.10078679697E+02 -0.33500520215E+03  0.40182940361E+03  0.12500000000E+03 0.  0.
         25    1    1    2    0    0 -0.18306229638E+03 -0.10078679697E+02  0.83004305849E+02  0.23691369511E+03  0.12500000000E+03 0.  0.
</event>
<event>
 4    0  0.2270578E-002  0.1956709E+03  0.7546771E-02  0.1153444E+00
         21   -1    0    0  502  501  0.00000000000E+00  0.00000000000E+00  0.13766565172E+02  0.13766565172E+02  0.00000000000E+00 0.  1.
         21   -1    0    0  501  502 -0.00000000000E+00 -0.00000000000E+00 -0.27811652014E+04  0.27811652014E+04  0.00000000000E+00 0.  1.
         25    1    1    2    0    0 -0.13271431726E+03 -0.28223125543E+02 -0.18494301586E+04  0.18586087664E+04  0.12500000000E+03 0.  0.
         25    1    1    2    0    0  0.13271431726E+03  0.28223125543E+02 -0.91796847763E+03  0.93632300022E+03  0.12500000000E+03 0.  0.
</event>
<event>
 4    0  0.2270578E-002  0.1916483E+03  0.7546771E-02  0.1156983E+00
         21   -1    0    0  502  501  0.00000000000E+00  0.00000000000E+00  0.50667264940E+02  0.50667264940E+02  0.00000000000E+00 0.  1.
         21   -1    0    0  501  502 -0.00000000000E+00 -0.00000000000E+00 -0.72490740532E+03  0.72490740532E+03  0.00000000000E+00 0.  1.
         25    1    1    2    0    0  0.29559314475E+02  0.12033036618E+03 -0.49056674857E+03  0.52118507740E+03  0.12500000000E+03 0.  0.
         25    1    1    2    0    0 -0.29559314475E+02 -0.12033036618E+03 -0.18367339180E+03  0.25438959286E+03  0.12500000000E+03 0.  0.
</event>
<event>
 4    0  0.2270578E-002  0.1882472E+03  0.7546771E-02  0.1160052E+00
         21   -1    0    0  502  501  0.00000000000E+00  0.00000000000E+00  0.13042528790E+03  0.13042528790E+03  0.00000000000E+00 0.  1.
         21   -1    0    0  501  502 -0.00000000000E+00 -0.00000000000E+00 -0.27170352686E+03  0.27170352686E+03  0.00000000000E+00 0.  1.
         25    1    1    2    0    0  0.15170029246E+02  0.38276229802E+02  0.73124016259E+02  0.15055670463E+03  0.12500000000E+03 0.  0.
         25    1    1    2    0    0 -0.15170029246E+02 -0.38276229802E+02 -0.21440225521E+03  0.25157211013E+03  0.12500000000E+03 0.  0.
</event>
<event>
 4    0  0.2270578E-002  0.2293341E+03  0.7546771E-02  0.1127109E+00
         21   -1    0    0  502  501  0.00000000000E+00  0.00000000000E+00  0.13625257354E+03  0.13625257354E+03  0.00000000000E+00 0.  1.
         21   -1    0    0  501  502 -0.00000000000E+00 -0.00000000000E+00 -0.38600473409E+03  0.38600473409E+03  0.00000000000E+00 0.  1.
         25    1    1    2    0    0  0.75238450940E+02 -0.11389162291E+03 -0.27906392710E+03  0.33486385543E+03  0.12500000000E+03 0.  0.
         25    1    1    2    0    0 -0.75238450940E+02  0.11389162291E+03  0.29311766545E+02  0.18739345220E+03  0.12500000000E+03 0.  0.
</event>
<event>
 4    0  0.2270578E-002  0.4825877E+03  0.7546771E-02  0.1018426E+00
         21   -1    0    0  502  501  0.00000000000E+00  0.00000000000E+00  0.19434108385E+04  0.19434108385E+04  0.00000000000E+00 0.  1.
         21   -1    0    0  501  502 -0.00000000000E+00 -0.00000000000E+00 -0.11983616928E+03  0.11983616928E+03  0.00000000000E+00 0.  1.
         25    1    1    2    0    0  0.32235803359E+03  0.33648176970E+03  0.88729914671E+03  0.10099799300E+04  0.12500000000E+03 0.  0.
         25    1    1    2    0    0 -0.32235803359E+03 -0.33648176970E+03  0.93627552252E+03  0.10532670778E+04  0.12500000000E+03 0.  0.
</event>
<event>
 4    0  0.2270578E-002  0.1993855E+03  0.7546771E-02  0.1150259E+00
         21   -1    0    0  502  501  0.00000000000E+00  0.00000000000E+00  0.12602417173E+03  0.12602417173E+03  0.00000000000E+00 0.  1.
         21   -1    0    0  501  502 -0.00000000000E+00 -0.00000000000E+00 -0.31545192099E+03  0.31545192099E+03  0.00000000000E+00 0.  1.
         25    1    1    2    0    0  0.10696434774E+02 -0.10551609926E+03  0.30937430187E+02  0.16682381577E+03  0.12500000000E+03 0.  0.
         25    1    1    2    0    0 -0.10696434774E+02  0.10551609926E+03 -0.22036517944E+03  0.27465227695E+03  0.12500000000E+03 0.  0.
</event>
<event>
 4    0  0.2270578E-002  0.1782996E+03  0.7546771E-02  0.1169459E+00
         21   -1    0    0  502  501  0.00000000000E+00  0.00000000000E+00  0.12242968596E+04  0.12242968596E+04  0.00000000000E+00 0. -1.
         21   -1    0    0  501  502 -0.00000000000E+00 -0.00000000000E+00 -0.25966535619E+02  0.25966535619E+02  0.00000000000E+00 0. -1.
         25    1    1    2    0    0  0.12212841429E+03  0.29385131369E+02  0.53020035536E+03  0.55903153072E+03  0.12500000000E+03 0.  0.
         25    1    1    2    0    0 -0.12212841429E+03 -0.29385131369E+02  0.66812996860E+03  0.69123186448E+03  0.12500000000E+03 0.  0.
</event>
<event>
 4    0  0.2270578E-002  0.2104673E+03  0.7546771E-02  0.1141196E+00
         21   -1    0    0  502  501  0.00000000000E+00  0.00000000000E+00  0.65011853855E+02  0.65011853855E+02  0.00000000000E+00 0.  1.
         21   -1    0    0  501  502 -0.00000000000E+00 -0.00000000000E+00 -0.68136007190E+03  0.68136007190E+03  0.00000000000E+00 0.  1.
         25    1    1    2    0    0  0.12806598183E+03 -0.82946818455E+02 -0.17799190340E+03  0.26568249485E+03  0.12500000000E+03 0.  0.
         25    1    1    2    0    0 -0.12806598183E+03  0.82946818455E+02 -0.43835631465E+03  0.48068943091E+03  0.12500000000E+03 0.  0.
</event>
<event>
 4    0  0.2270578E-002  0.2293103E+03  0.7546771E-02  0.1127126E+00
         21   -1    0    0  502  501  0.00000000000E+00  0.00000000000E+00  0.19249393816E+03  0.19249393816E+03  0.00000000000E+00 0. -1.
         21   -1    0    0  501  502 -0.00000000000E+00 -0.00000000000E+00 -0.27316824492E+03  0.27316824492E+03  0.00000000000E+00 0. -1.
         25    1    1    2    0    0  0.17751266983E+02  0.11362083020E+03  0.11608476202E+03  0.20573155448E+03  0.12500000000E+03 0.  0.
         25    1    1    2    0    0 -0.17751266983E+02 -0.11362083020E+03 -0.19675906878E+03  0.25993062860E+03  0.12500000000E+03 0.  0.
</event>
<event>
 4    0  0.2270578E-002  0.1715152E+03  0.7546771E-02  0.1176277E+00
         21   -1    0    0  502  501  0.00000000000E+00  0.00000000000E+00  0.21954382006E+04  0.21954382006E+04  0.00000000000E+00 0.  1.
         21   -1    0    0  501  502 -0.00000000000E+00 -0.00000000000E+00 -0.13399363313E+02  0.13399363313E+02  0.00000000000E+00 0.  1.
         25    1    1    2    0    0  0.51463797498E+02  0.10556252294E+03  0.10955970445E+04  0.11089408698E+04  0.12500000000E+03 0.  0.
         25    1    1    2    0    0 -0.51463797498E+02 -0.10556252294E+03  0.10864417928E+04  0.10998966942E+04  0.12500000000E+03 0.  0.
</event>
<event>
 4    0  0.2270578E-002  0.2199169E+03  0.7546771E-02  0.1133945E+00
         21   -1    0    0  502  501  0.00000000000E+00  0.00000000000E+00  0.60012551804E+03  0.60012551804E+03  0.00000000000E+00 0. -1.
         21   -1    0    0  501  502 -0.00000000000E+00 -0.00000000000E+00 -0.80588886844E+02  0.80588886844E+02  0.00000000000E+00 0. -1.
         25    1    1    2    0    0 -0.96441013961E+02 -0.12049789073E+03  0.11361587376E+03  0.22881035294E+03  0.12500000000E+03 0.  0.
         25    1    1    2    0    0  0.96441013961E+02  0.12049789073E+03  0.40592075743E+03  0.45190405194E+03  0.12500000000E+03 0.  0.
</event>
<event>
 4    0  0.2270578E-002  0.3236418E+03  0.7546771E-02  0.1073985E+00
         21   -1    0    0  502  501  0.00000000000E+00  0.00000000000E+00  0.56886979955E+03  0.56886979955E+03  0.00000000000E+00 0. -1.
         21   -1    0    0  501  502 -0.00000000000E+00 -0.00000000000E+00 -0.18412652802E+03  0.18412652802E+03  0.00000000000E+00 0. -1.
         25    1    1    2    0    0  0.20232516588E+03 -0.26479054295E+02  0.44586384077E+03  0.50601993791E+03  0.12500000000E+03 0.  0.
         25    1    1    2    0    0 -0.20232516588E+03  0.26479054295E+02 -0.61120569239E+02  0.24697638966E+03  0.12500000000E+03 0.  0.
</event>
<event>
 4    0  0.2270578E-002  0.2771380E+03  0.7546771E-02  0.1097262E+00
         21   -1    0    0  502  501  0.00000000000E+00  0.00000000000E+00  0.26678320009E+03  0.26678320009E+03  0.00000000000E+00 0.  1.
         21   -1    0    0  501  502 -0.00000000000E+00 -0.00000000000E+00 -0.28789477595E+03  0.28789477595E+03  0.00000000000E+00 0.  1.
         25    1    1    2    0    0 -0.43700272156E+02  0.47779218253E+02 -0.24945031840E+03  0.28643154301E+03  0.12500000000E+03 0.  0.
         25    1    1    2    0    0  0.43700272156E+02 -0.47779218253E+02  0.22833874254E+03  0.26824643302E+03  0.12500000000E+03 0.  0.
</event>
<event>
 4    0  0.2270578E-002  0.1929877E+03  0.7546771E-02  0.1155794E+00
         21   -1    0    0  502  501  0.00000000000E+00  0.00000000000E+00  0.42166423487E+02  0.42166423487E+02  0.00000000000E+00 0. -1.
         21   -1    0    0  501  502 -0.00000000000E+00 -0.00000000000E+00 -0.88326765577E+03  0.88326765577E+03  0.00000000000E+00 0. -1.
         25    1    1    2    0    0 -0.28705935799E+02 -0.41087540648E+02 -0.75197346004E+03  0.76393802193E+03  0.12500000000E+03 0.  0.
         25    1    1    2    0    0  0.28705935799E+02  0.41087540648E+02 -0.89127772242E+02  0.16149605732E+03  0.12500000000E+03 0.  0.
</event>
<event>
 4    0  0.2270578E-002  0.2665332E+03  0.7546771E-02  0.1103280E+00
         21   -1    0    0  502  501  0.00000000000E+00  0.00000000000E+00  0.27258128004E+03  0.27258128004E+03  0.00000000000E+00 0. -1.
         21   -1    0    0  501  502 -0.00000000000E+00 -0.00000000000E+00 -0.26061923355E+03  0.26061923355E+03  0.00000000000E+00 0. -1.
         25    1    1    2    0    0  0.16555130452E+03  0.64219840566E+02 -0.14860076298E+03  0.26313230343E+03  0.12500000000E+03 0.  0.
         25    1    1    2    0    0 -0.16555130452E+03 -0.64219840566E+02  0.16056280947E+03  0.27006821016E+03  0.12500000000E+03 0.  0.
</event>
<event>
 4    0  0.2270578E-002  0.3830185E+03  0.7546771E-02  0.1049824E+00
         21   -1    0    0  502  501  0.00000000000E+00  0.00000000000E+00  0.11993098712E+04  0.11993098712E+04  0.00000000000E+00 0. -1.
         21   -1    0    0  501  502 -0.00000000000E+00 -0.00000000000E+00 -0.12232301439E+03  0.12232301439E+03  0.00000000000E+00 0. -1.
         25    1    1    2    0    0 -0.14342946742E+03 -0.21067663125E+03  0.98213531237E+03  0.10223362592E+04  0.12500000000E+03 0.  0.
         25    1    1    2    0    0  0.14342946742E+03  0.21067663125E+03  0.94851544447E+02  0.29929662639E+03  0.12500000000E+03 0.  0.
</event>
<event>
 4    0  0.2270578E-002  0.2608861E+03  0.7546771E-02  0.1106612E+00
         21   -1    0    0  502  501  0.00000000000E+00  0.00000000000E+00  0.27774632736E+02  0.27774632736E+02  0.00000000000E+00 0. -1.
         21   -1    0    0  501  502 -0.00000000000E+00 -0.00000000000E+00 -0.24504940610E+04  0.24504940610E+04  0.00000000000E+00 0. -1.
         25    1    1    2    0    0  0.18467981627E+03  0.79344611876E+02 -0.69031007900E+03  0.72976380230E+03  0.12500000000E+03 0.  0.
         25    1    1    2    0    0 -0.18467981627E+03 -0.79344611876E+02 -0.17324093493E+04  0.17485048915E+04  0.12500000000E+03 0.  0.
</event>
<event>
 4    0  0.2270578E-002  0.2065910E+03  0.7546771E-02  0.1144294E+00
         21   -1    0    0  502  501  0.00000000000E+00  0.00000000000E+00  0.32945702622E+03  0.32945702622E+03  0.00000000000E+00 0. -1.
         21   -1    0    0  501  502 -0.00000000000E+00 -0.00000000000E+00 -0.12954600234E+03  0.12954600234E+03  0.00000000000E+00 0. -1.
         25    1    1    2    0    0  0.93025293301E+02  0.96308946899E+02  0.20607808799E+03  0.27572141157E+03  0.12500000000E+03 0.  0.
         25    1    1    2    0    0 -0.93025293301E+02 -0.96308946899E+02 -0.61670641193E+01  0.18328161699E+03  0.12500000000E+03 0.  0.
</event>
<event>
 4    0  0.2270578E-002  0.2057537E+03  0.7546771E-02  0.1144973E+00
         21   -1    0    0  502  501  0.00000000000E+00  0.00000000000E+00  0.12995623673E+04  0.12995623673E+04  0.00000000000E+00 0. -1.
         21   -1    0    0  501  502 -0.00000000000E+00 -0.00000000000E+00 -0.32576030902E+02  0.32576030902E+02  0.00000000000E+00 0. -1.
         25    1    1    2    0    0  0.23336809207E+02 -0.15067879852E+03  0.44305027238E+03  0.48494046113E+03  0.12500000000E+03 0.  0.
         25    1    1    2    0    0 -0.23336809207E+02  0.15067879852E+03  0.82393606398E+03  0.84719793703E+03  0.12500000000E+03 0.  0.
</event>
<event>
 4    0  0.2270578E-002  0.2313284E+03  0.7546771E-02  0.1125708E+00
         21   -1    0    0  502  501  0.00000000000E+00  0.00000000000E+00  0.30698768696E+03  0.30698768696E+03  0.00000000000E+00 0. -1.
         21   -1    0    0  501  502 -0.00000000000E+00 -0.00000000000E+00 -0.17431594483E+03  0.17431594483E+03  0.00000000000E+00 0. -1.
         25    1    1    2    0    0 -0.12350609904E+02 -0.61464786748E+02  0.25803814577E+03  0.29349470565E+03  0.12500000000E+03 0.  0.
         25    1    1    2    0    0  0.12350609904E+02  0.61464786748E+02 -0.12536640364E+03  0.18780892614E+03  0.12500000000E+03 0.  0.
</event>
<event>
 4    0  0.2270578E-002  0.1587989E+03  0.7546771E-02  0.1190059E+00
         21   -1    0    0  502  501  0.00000000000E+00  0.00000000000E+00  0.16357162734E+04  0.16357162734E+04  0.00000000000E+00 0. -1.
         21   -1    0    0  501  502 -0.00000000000E+00 -0.00000000000E+00 -0.15416542311E+02  0.15416542311E+02  0.00000000000E+00 0. -1.
         25    1    1    2    0    0  0.42010181367E+02  0.87774017933E+02  0.86779712276E+03  0.88213716611E+03  0.12500000000E+03 0.  0.
         25    1    1    2    0    0 -0.42010181367E+02 -0.87774017933E+02  0.75250260830E+03  0.76899564957E+03  0.12500000000E+03 0.  0.
</event>
<event>
 4    0  0.2270578E-002  0.3332842E+03  0.7546771E-02  0.1069693E+00
         21   -1    0    0  502  501  0.00000000000E+00  0.00000000000E+00  0.22158639577E+04  0.22158639577E+04  0.00000000000E+00 0. -1.
         21   -1    0    0  501  502 -0.00000000000E+00 -0.00000000000E+00 -0.50128695589E+02  0.50128695589E+02  0.00000000000E+00 0. -1.
         25    1    1    2    0    0 -0.19672165131E+03  0.17798140100E+03  0.16211968203E+04  0.16475074863E+04  0.12500000000E+03 0.  0.
         25    1    1    2    0    0  0.19672165131E+03 -0.17798140100E+03  0.54453844179E+03  0.61848516699E+03  0.12500000000E+03 0.  0.
</event>
<event>
 4    0  0.2270578E-002  0.2106642E+03  0.7546771E-02  0.1141041E+00
         21   -1    0    0  502  501  0.00000000000E+00  0.00000000000E+00  0.70029570559E+03  0.70029570559E+03  0.00000000000E+00 0. -1.
         21   -1    0    0  501  502 -0.00000000000E+00 -0.00000000000E+00 -0.63372367020E+02  0.63372367020E+02  0.00000000000E+00 0. -1.
         25    1    1    2    0    0 -0.54904291818E+01  0.15568492293E+03  0.43986641676E+03  0.48308943751E+03  0.12500000000E+03 0.  0.
         25    1    1    2    0    0  0.54904291818E+01 -0.15568492293E+03  0.19705692181E+03  0.28057863510E+03  0.12500000000E+03 0.  0.
</event>
<event>
 4    0  0.2270578E-002  0.2005271E+03  0.7546771E-02  0.1149295E+00
         21   -1    0    0  502  501  0.00000000000E+00  0.00000000000E+00  0.36864533511E+02  0.36864533511E+02  0.00000000000E+00 0.  1.
         21   -1    0    0  501  502 -0.00000000000E+00 -0.00000000000E+00 -0.10907807025E+04  0.10907807025E+04  0.00000000000E+00 0.  1.
         25    1    1    2    0    0  0.26680541112E+02  0.13964533619E+03 -0.34101436654E+03  0.39003649750E+03  0.12500000000E+03 0.  0.
         25    1    1    2    0    0 -0.26680541112E+02 -0.13964533619E+03 -0.71290180246E+03  0.73760873853E+03  0.12500000000E+03 0.  0.
</event>
<event>
 4    0  0.2270578E-002  0.4655497E+03  0.7546771E-02  0.1023184E+00
         21   -1    0    0  502  501  0.00000000000E+00  0.00000000000E+00  0.84613572853E+03  0.84613572853E+03  0.00000000000E+00 0. -1.
         21   -1    0    0  501  502 -0.00000000000E+00 -0.00000000000E+00 -0.25614863081E+03  0.25614863081E+03  0.00000000000E+00 0. -1.
         25    1    1    2    0    0 -0.50096529126E+02 -0.32594232567E+03 -0.64795282775E+02  0.35856866924E+03  0.12500000000E+03 0.  0.
         25    1    1    2    0    0  0.50096529126E+02  0.32594232567E+03  0.65478238049E+03  0.74371569010E+03  0.12500000000E+03 0.  0.
</event>
<event>
 4    0  0.2270578E-002  0.2225475E+03  0.7546771E-02  0.1131998E+00
         21   -1    0    0  502  501  0.00000000000E+00  0.00000000000E+00  0.84936015275E+03  0.84936015275E+03  0.00000000000E+00 0. -1.
         21   -1    0    0  501  502 -0.00000000000E+00 -0.00000000000E+00 -0.58311411110E+02  0.58311411110E+02  0.00000000000E+00 0. -1.
         25    1    1    2    0    0 -0.79574012428E+02 -0.12628079399E+03  0.61538373886E+03  0.64544636372E+03  0.12500000000E+03 0.  0.
         25    1    1    2    0    0  0.79574012428E+02  0.12628079399E+03  0.17566500278E+03  0.26222520014E+03  0.12500000000E+03 0.  0.
</event>
<event>
 4    0  0.2270578E-002  0.2285528E+03  0.7546771E-02  0.1127663E+00
         21   -1    0    0  502  501  0.00000000000E+00  0.00000000000E+00  0.55185898157E+03  0.55185898157E+03  0.00000000000E+00 0. -1.
         21   -1    0    0  501  502 -0.00000000000E+00 -0.00000000000E+00 -0.94655335665E+02  0.94655335665E+02  0.00000000000E+00 0. -1.
         25    1    1    2    0    0 -0.15128805452E+03 -0.60926006263E+01  0.63138014875E+02  0.20624404027E+03  0.12500000000E+03 0.  0.
         25    1    1    2    0    0  0.15128805452E+03  0.60926006263E+01  0.39406563103E+03  0.44027027697E+03  0.12500000000E+03 0.  0.
</event>
<event>
 4    0  0.2270578E-002  0.2170974E+03  0.7546771E-02  0.1136066E+00
         21   -1    0    0  502  501  0.00000000000E+00  0.00000000000E+00  0.31823386166E+03  0.31823386166E+03  0.00000000000E+00 0. -1.
         21   -1    0    0  501  502 -0.00000000000E+00 -0.00000000000E+00 -0.14810272128E+03  0.14810272128E+03  0.00000000000E+00 0. -1.
         25    1    1    2    0    0  0.14059175340E+03  0.19397645109E+02  0.19955890900E+03  0.27493829839E+03  0.12500000000E+03 0.  0.
         25    1    1    2    0    0 -0.14059175340E+03 -0.19397645109E+02 -0.29427768620E+02  0.19139828454E+03  0.12500000000E+03 0.  0.
</event>
<event>
 4    0  0.2270578E-002  0.2013326E+03  0.7546771E-02  0.1148620E+00
         21   -1    0    0  502  501  0.00000000000E+00  0.00000000000E+00  0.15149100895E+03  0.15149100895E+03  0.00000000000E+00 0. -1.
         21   -1    0    0  501  502 -0.00000000000E+00 -0.00000000000E+00 -0.26757243797E+03  0.26757243797E+03  0.00000000000E+00 0. -1.
         25    1    1    2    0    0 -0.64120533912E+02 -0.12880472901E+03  0.94678628503E+01  0.19083170992E+03  0.12500000000E+03 0.  0.
         25    1    1    2    0    0  0.64120533912E+02  0.12880472901E+03 -0.12554929188E+03  0.22823173700E+03  0.12500000000E+03 0.  0.
</event>
<event>
 4    0  0.2270578E-002  0.1765455E+03  0.7546771E-02  0.1171189E+00
         21   -1    0    0  502  501  0.00000000000E+00  0.00000000000E+00  0.42822806618E+02  0.42822806618E+02  0.00000000000E+00 0.  1.
         21   -1    0    0  501  502 -0.00000000000E+00 -0.00000000000E+00 -0.72784366629E+03  0.72784366629E+03  0.00000000000E+00 0.  1.
         25    1    1    2    0    0 -0.48133260778E+02  0.87402563518E+02 -0.50565793858E+03  0.53034985599E+03  0.12500000000E+03 0.  0.
         25    1    1    2    0    0  0.48133260778E+02 -0.87402563518E+02 -0.17936292110E+03  0.24031661692E+03  0.12500000000E+03 0.  0.
</event>
<event>
 4    0  0.2270578E-002  0.2277566E+03  0.7546771E-02  0.1128229E+00
         21   -1    0    0  502  501  0.00000000000E+00  0.00000000000E+00  0.11711087690E+03  0.11711087690E+03  0.00000000000E+00 0.  1.
         21   -1    0    0  501  502 -0.00000000000E+00 -0.00000000000E+00 -0.44293962624E+03  0.44293962624E+03  0.00000000000E+00 0.  1.
         25    1    1    2    0    0  0.14145918349E+03 -0.12221664772E+03 -0.20725187622E+03  0.30582012650E+03  0.12500000000E+03 0.  0.
         25    1    1    2    0    0 -0.14145918349E+03  0.12221664772E+03 -0.11857687311E+03  0.25423037664E+03  0.12500000000E+03 0.  0.
</event>
<event>
 4    0  0.2270578E-002  0.1910890E+03  0.7546771E-02  0.1157483E+00
         21   -1    0    0  502  501  0.00000000000E+00  0.00000000000E+00  0.32436713472E+03  0.32436713472E+03  0.00000000000E+00 0. -1.
         21   -1    0    0  501  502 -0.00000000000E+00 -0.00000000000E+00 -0.11257311608E+03  0.11257311608E+03  0.00000000000E+00 0. -1.
         25    1    1    2    0    0 -0.10529316914E+03 -0.41855016193E+02  0.33092907389E+01  0.16874372656E+03  0.12500000000E+03 0.  0.
         25    1    1    2    0    0  0.10529316914E+03  0.41855016193E+02  0.20848472790E+03  0.26819652424E+03  0.12500000000E+03 0.  0.
</event>
<event>
 4    0  0.2270578E-002  0.2676789E+03  0.7546771E-02  0.1102615E+00
         21   -1    0    0  502  501  0.00000000000E+00  0.00000000000E+00  0.99128970196E+03  0.99128970196E+03  0.00000000000E+00 0.  1.
         21   -1    0    0  501  502 -0.00000000000E+00 -0.00000000000E+00 -0.72281583883E+02  0.72281583883E+02  0.00000000000E+00 0.  1.
         25    1    1    2    0    0 -0.78721375081E+02 -0.14718774704E+03  0.12609087393E+03  0.24369078001E+03  0.12500000000E+03 0.  0.
         25    1    1    2    0    0  0.78721375081E+02  0.14718774704E+03  0.79291724415E+03  0.81988050584E+03  0.12500000000E+03 0.  0.
</event>
<event>
 4    0  0.2270578E-002  0.2631778E+03  0.7546771E-02  0.1105249E+00
         21   -1    0    0  502  501  0.00000000000E+00  0.00000000000E+00  0.32300476509E+03  0.32300476509E+03  0.00000000000E+00 0. -1.
         21   -1    0    0  501  502 -0.00000000000E+00 -0.00000000000E+00 -0.21443206573E+03  0.21443206573E+03  0.00000000000E+00 0. -1.
         25    1    1    2    0    0  0.15593813930E+03 -0.17042488313E+03  0.71256567123E+02  0.27214672961E+03  0.12500000000E+03 0.  0.
         25    1    1    2    0    0 -0.15593813930E+03  0.17042488313E+03  0.37316132240E+02  0.26529010122E+03  0.12500000000E+03 0.  0.
</event>
<event>
 4    0  0.2270578E-002  0.3041285E+03  0.7546771E-02  0.1083195E+00
         21   -1    0    0  502  501  0.00000000000E+00  0.00000000000E+00  0.25006262820E+03  0.25006262820E+03  0.00000000000E+00 0.  1.
         21   -1    0    0  501  502 -0.00000000000E+00 -0.00000000000E+00 -0.36988383292E+03  0.36988383292E+03  0.00000000000E+00 0.  1.
         25    1    1    2    0    0 -0.10600005527E+03 -0.24137142593E+03  0.27605437623E+02  0.29305841936E+03  0.12500000000E+03 0.  0.
         25    1    1    2    0    0  0.10600005527E+03  0.24137142593E+03 -0.14742664234E+03  0.32688804176E+03  0.12500000000E+03 0.  0.
</event>
<event>
 4    0  0.2270578E-002  0.1826724E+03  0.7546771E-02  0.1165241E+00
         21   -1    0    0  502  501  0.00000000000E+00  0.00000000000E+00  0.19590353741E+02  0.19590353741E+02  0.00000000000E+00 0.  1.
         21   -1    0    0  501  502 -0.00000000000E+00 -0.00000000000E+00 -0.17033483222E+04  0.17033483222E+04  0.00000000000E+00 0.  1.
         25    1    1    2    0    0  0.80301433188E+02  0.10177382913E+03 -0.69744813341E+03  0.72032293540E+03  0.12500000000E+03 0.  0.
         25    1    1    2    0    0 -0.80301433188E+02 -0.10177382913E+03 -0.98630983506E+03  0.10026157405E+04  0.12500000000E+03 0.  0.
</event>
<event>
 4    0  0.2270578E-002  0.2628761E+03  0.7546771E-02  0.1105427E+00
         21   -1    0    0  502  501  0.00000000000E+00  0.00000000000E+00  0.16752384342E+03  0.16752384342E+03  0.00000000000E+00 0. -1.
         21   -1    0    0  501  502 -0.00000000000E+00 -0.00000000000E+00 -0.41250145522E+03  0.41250145522E+03  0.00000000000E+00 0. -1.
         25    1    1    2    0    0  0.21246958134E+03 -0.39865198403E+02 -0.21310332975E+03  0.32828430695E+03  0.12500000000E+03 0.  0.
         25    1    1    2    0    0 -0.21246958134E+03  0.39865198403E+02 -0.31874282044E+02  0.25174099168E+03  0.12500000000E+03 0.  0.
</event>
<event>
 4    0  0.2270578E-002  0.2475394E+03  0.7546771E-02  0.1114870E+00
         21   -1    0    0  502  501  0.00000000000E+00  0.00000000000E+00  0.34225228690E+03  0.34225228690E+03  0.00000000000E+00 0. -1.
         21   -1    0    0  501  502 -0.00000000000E+00 -0.00000000000E+00 -0.17903682715E+03  0.17903682715E+03  0.00000000000E+00 0. -1.
         25    1    1    2    0    0 -0.20522007086E+03  0.33084667061E+02  0.29586756482E+02  0.24435680641E+03  0.12500000000E+03 0.  0.
         25    1    1    2    0    0  0.20522007086E+03 -0.33084667061E+02  0.13362870328E+03  0.27693230764E+03  0.12500000000E+03 0.  0.
</event>
<event>
 4    0  0.2270578E-002  0.1516517E+03  0.7546771E-02  0.1198458E+00
         21   -1    0    0  502  501  0.00000000000E+00  0.00000000000E+00  0.58900380521E+02  0.58900380521E+02  0.00000000000E+00 0. -1.
         21   -1    0    0  501  502 -0.00000000000E+00 -0.00000000000E+00 -0.39045968292E+03  0.39045968292E+03  0.00000000000E+00 0. -1.
         25    1    1    2    0    0  0.80698838106E+02  0.16847505282E+02 -0.13018895638E+03  0.19841951837E+03  0.12500000000E+03 0.  0.
         25    1    1    2    0    0 -0.80698838106E+02 -0.16847505282E+02 -0.20137034602E+03  0.25094054507E+03  0.12500000000E+03 0.  0.
</event>
<event>
 4    0  0.2270578E-002  0.1582243E+03  0.7546771E-02  0.1190716E+00
         21   -1    0    0  502  501  0.00000000000E+00  0.00000000000E+00  0.14080110368E+03  0.14080110368E+03  0.00000000000E+00 0. -1.
         21   -1    0    0  501  502 -0.00000000000E+00 -0.00000000000E+00 -0.17780357164E+03  0.17780357164E+03  0.00000000000E+00 0. -1.
         25    1    1    2    0    0  0.53964288354E+02  0.64931783998E+02 -0.66593380983E+02  0.16488771750E+03  0.12500000000E+03 0.  0.
         25    1    1    2    0    0 -0.53964288354E+02 -0.64931783998E+02  0.29590913024E+02  0.15371695783E+03  0.12500000000E+03 0.  0.
</event>
<event>
 4    0  0.2270578E-002  0.2295705E+03  0.7546771E-02  0.1126942E+00
         21   -1    0    0  502  501  0.00000000000E+00  0.00000000000E+00  0.90761498552E+02  0.90761498552E+02  0.00000000000E+00 0.  1.
         21   -1    0    0  501  502 -0.00000000000E+00 -0.00000000000E+00 -0.58067171520E+03  0.58067171520E+03  0.00000000000E+00 0.  1.
         25    1    1    2    0    0 -0.18262633546E+02 -0.16534406235E+03 -0.10313216223E+03  0.23223571135E+03  0.12500000000E+03 0.  0.
         25    1    1    2    0    0  0.18262633546E+02  0.16534406235E+03 -0.38677805441E+03  0.43919750240E+03  0.12500000000E+03 0.  0.
</event>
<event>
 4    0  0.2270578E-002  0.2432166E+03  0.7546771E-02  0.1117668E+00
         21   -1    0    0  502  501  0.00000000000E+00  0.00000000000E+00  0.85830635231E+02  0.85830635231E+02  0.00000000000E+00 0.  1.
         21   -1    0    0  501  502 -0.00000000000E+00 -0.00000000000E+00 -0.68919786707E+03  0.68919786707E+03  0.00000000000E+00 0.  1.
         25    1    1    2    0    0  0.44294542283E+02 -0.76150884488E+02 -0.35257844774E+00  0.15292510584E+03  0.12500000000E+03 0.  0.
         25    1    1    2    0    0 -0.44294542283E+02  0.76150884488E+02 -0.60301465339E+03  0.62210339646E+03  0.12500000000E+03 0.  0.
</event>
<event>
 4    0  0.2270578E-002  0.1928961E+03  0.7546771E-02  0.1155875E+00
         21   -1    0    0  502  501  0.00000000000E+00  0.00000000000E+00  0.52968389838E+03  0.52968389838E+03  0.00000000000E+00 0. -1.
         21   -1    0    0  501  502 -0.00000000000E+00 -0.00000000000E+00 -0.70247375322E+02  0.70247375322E+02  0.00000000000E+00 0. -1.
         25    1    1    2    0    0  0.13340797282E+03 -0.53033976678E+02  0.18119595783E+03  0.26280651634E+03  0.12500000000E+03 0.  0.
         25    1    1    2    0    0 -0.13340797282E+03  0.53033976678E+02  0.27824056522E+03  0.33712475737E+03  0.12500000000E+03 0.  0.
</event>
<event>
 4    0  0.2270578E-002  0.2622246E+03  0.7546771E-02  0.1105814E+00
         21   -1    0    0  502  501  0.00000000000E+00  0.00000000000E+00  0.56238071132E+02  0.56238071132E+02  0.00000000000E+00 0. -1.
         21   -1    0    0  501  502 -0.00000000000E+00 -0.00000000000E+00 -0.12226906349E+04  0.12226906349E+04  0.00000000000E+00 0. -1.
         25    1    1    2    0    0 -0.16202192535E+03 -0.95000701544E+02 -0.25732208552E+03  0.34222199416E+03  0.12500000000E+03 0.  0.
         25    1    1    2    0    0  0.16202192535E+03  0.95000701544E+02 -0.90913047826E+03  0.93670671189E+03  0.12500000000E+03 0.  0.
</event>
<event>
 4    0  0.2270578E-002  0.1868196E+03  0.7546771E-02  0.1161362E+00
         21   -1    0    0  502  501  0.00000000000E+00  0.00000000000E+00  0.77242799898E+02  0.77242799898E+02  0.00000000000E+00 0.  1.
         21   -1    0    0  501  502 -0.00000000000E+00 -0.00000000000E+00 -0.45184206443E+03  0.45184206443E+03  0.00000000000E+00 0.  1.
         25    1    1    2    0    0 -0.71998440015E+01 -0.94756768462E+02 -0.43966270827E+02  0.16306046699E+03  0.12500000000E+03 0.  0.
         25    1    1    2    0    0  0.71998440015E+01  0.94756768462E+02 -0.33063299371E+03  0.36602439734E+03  0.12500000000E+03 0.  0.
</event>
<event>
 4    0  0.2270578E-002  0.3806061E+03  0.7546771E-02  0.1050710E+00
         21   -1    0    0  502  501  0.00000000000E+00  0.00000000000E+00  0.78252710641E+03  0.78252710641E+03  0.00000000000E+00 0. -1.
         21   -1    0    0  501  502 -0.00000000000E+00 -0.00000000000E+00 -0.18511947658E+03  0.18511947658E+03  0.00000000000E+00 0. -1.
         25    1    1    2    0    0  0.13912069050E+03  0.25100482419E+03  0.57393373876E+03  0.65374530575E+03  0.12500000000E+03 0.  0.
         25    1    1    2    0    0 -0.13912069050E+03 -0.25100482419E+03  0.23473891071E+02  0.31390127724E+03  0.12500000000E+03 0.  0.
</event>
<event>
 4    0  0.2270578E-002  0.2287315E+03  0.7546771E-02  0.1127536E+00
         21   -1    0    0  502  501  0.00000000000E+00  0.00000000000E+00  0.86592729256E+02  0.86592729256E+02  0.00000000000E+00 0.  1.
         21   -1    0    0  501  502 -0.00000000000E+00 -0.00000000000E+00 -0.60418591800E+03  0.60418591800E+03  0.00000000000E+00 0.  1.
         25    1    1    2    0    0  0.54063806456E+02  0.18295405514E+03 -0.23272845189E+03  0.32585673812E+03  0.12500000000E+03 0.  0.
         25    1    1    2    0    0 -0.54063806456E+02 -0.18295405514E+03 -0.28486473686E+03  0.36492190914E+03  0.12500000000E+03 0.  0.
</event>
<event>
 4    0  0.2270578E-002  0.1773873E+03  0.7546771E-02  0.1170356E+00
         21   -1    0    0  502  501  0.00000000000E+00  0.00000000000E+00  0.68626183033E+02  0.68626183033E+02  0.00000000000E+00 0. -1.
         21   -1    0    0  501  502 -0.00000000000E+00 -0.00000000000E+00 -0.45851662583E+03  0.45851662583E+03  0.00000000000E+00 0. -1.
         25    1    1    2    0    0 -0.37591924014E+02 -0.74158449000E+02 -0.54544953741E+02  0.15972720585E+03  0.12500000000E+03 0.  0.
         25    1    1    2    0    0  0.37591924014E+02  0.74158449000E+02 -0.33534548905E+03  0.36741560301E+03  0.12500000000E+03 0.  0.
</event>
<event>
 4    0  0.2270578E-002  0.2656204E+03  0.7546771E-02  0.1103813E+00
         21   -1    0    0  502  501  0.00000000000E+00  0.00000000000E+00  0.14677149142E+03  0.14677149142E+03  0.00000000000E+00 0.  1.
         21   -1    0    0  501  502 -0.00000000000E+00 -0.00000000000E+00 -0.48070785018E+03  0.48070785018E+03  0.00000000000E+00 0.  1.
         25    1    1    2    0    0 -0.39397892547E+02 -0.24449631964E+02 -0.43832422341E+03  0.45815183430E+03  0.12500000000E+03 0.  0.
         25    1    1    2    0    0  0.39397892547E+02  0.24449631964E+02  0.10438786465E+03  0.16932750730E+03  0.12500000000E+03 0.  0.
</event>
<event>
 4    0  0.2270578E-002  0.2378614E+03  0.7546771E-02  0.1121226E+00
         21   -1    0    0  502  501  0.00000000000E+00  0.00000000000E+00  0.99297125873E+03  0.99297125873E+03  0.00000000000E+00 0. -1.
         21   -1    0    0  501  502 -0.00000000000E+00 -0.00000000000E+00 -0.56978535633E+02  0.56978535633E+02  0.00000000000E+00 0. -1.
         25    1    1    2    0    0 -0.20520684780E+02  0.73044623001E+02  0.88205693667E+03  0.89409510399E+03  0.12500000000E+03 0.  0.
         25    1    1    2    0    0  0.20520684780E+02 -0.73044623001E+02  0.53935786426E+02  0.15585469037E+03  0.12500000000E+03 0.  0.
</event>
<event>
 4    0  0.2270578E-002  0.2025798E+03  0.7546771E-02  0.1147581E+00
         21   -1    0    0  502  501  0.00000000000E+00  0.00000000000E+00  0.19502443873E+04  0.19502443873E+04  0.00000000000E+00 0. -1.
         21   -1    0    0  501  502 -0.00000000000E+00 -0.00000000000E+00 -0.21042786372E+02  0.21042786372E+02  0.00000000000E+00 0. -1.
         25    1    1    2    0    0  0.93737254391E+01 -0.11259660066E+03  0.41742133468E+03  0.45014601170E+03  0.12500000000E+03 0.  0.
         25    1    1    2    0    0 -0.93737254391E+01  0.11259660066E+03  0.15117802663E+04  0.15211411620E+04  0.12500000000E+03 0.  0.
</event>
<event>
 4    0  0.2270578E-002  0.1422143E+03  0.7546771E-02  0.1210380E+00
         21   -1    0    0  502  501  0.00000000000E+00  0.00000000000E+00  0.80936271865E+03  0.80936271865E+03  0.00000000000E+00 0. -1.
         21   -1    0    0  501  502 -0.00000000000E+00 -0.00000000000E+00 -0.24988698052E+02  0.24988698052E+02  0.00000000000E+00 0. -1.
         25    1    1    2    0    0  0.38366130907E+02 -0.18248385685E+02  0.54726964321E+03  0.56296893871E+03  0.12500000000E+03 0.  0.
         25    1    1    2    0    0 -0.38366130907E+02  0.18248385685E+02  0.23710437739E+03  0.27138247799E+03  0.12500000000E+03 0.  0.
</event>
<event>
 4    0  0.2270578E-002  0.2297304E+03  0.7546771E-02  0.1126830E+00
         21   -1    0    0  502  501  0.00000000000E+00  0.00000000000E+00  0.89446224378E+02  0.89446224378E+02  0.00000000000E+00 0. -1.
         21   -1    0    0  501  502 -0.00000000000E+00 -0.00000000000E+00 -0.59003117081E+03  0.59003117081E+03  0.00000000000E+00 0. -1.
         25    1    1    2    0    0  0.25706918793E+02 -0.18944129335E+03 -0.28658364122E+03  0.36647514611E+03  0.12500000000E+03 0.  0.
         25    1    1    2    0    0 -0.25706918793E+02  0.18944129335E+03 -0.21400130521E+03  0.31300224908E+03  0.12500000000E+03 0.  0.
</event>
<event>
 4    0  0.2270578E-002  0.2836934E+03  0.7546771E-02  0.1093689E+00
         21   -1    0    0  502  501  0.00000000000E+00  0.00000000000E+00  0.27268106384E+03  0.27268106384E+03  0.00000000000E+00 0. -1.
         21   -1    0    0  501  502 -0.00000000000E+00 -0.00000000000E+00 -0.29515051349E+03  0.29515051349E+03  0.00000000000E+00 0. -1.
         25    1    1    2    0    0 -0.13755426441E+03 -0.14690893371E+03 -0.16741327319E+03  0.29009587123E+03  0.12500000000E+03 0.  0.
         25    1    1    2    0    0  0.13755426441E+03  0.14690893371E+03  0.14494382354E+03  0.27773570610E+03  0.12500000000E+03 0.  0.
</event>
<event>
 4    0  0.2270578E-002  0.1856153E+03  0.7546771E-02  0.1162477E+00
         21   -1    0    0  502  501  0.00000000000E+00  0.00000000000E+00  0.39633441498E+03  0.39633441498E+03  0.00000000000E+00 0.  1.
         21   -1    0    0  501  502 -0.00000000000E+00 -0.00000000000E+00 -0.86929188369E+02  0.86929188369E+02  0.00000000000E+00 0.  1.
         25    1    1    2    0    0  0.10489897292E+03  0.36152115233E+02  0.49609833553E+02  0.17434708354E+03  0.12500000000E+03 0.  0.
         25    1    1    2    0    0 -0.10489897292E+03 -0.36152115233E+02  0.25979539306E+03  0.30891651981E+03  0.12500000000E+03 0.  0.
</event>
<event>
 4    0  0.2270578E-002  0.1439906E+03  0.7546771E-02  0.1208058E+00
         21   -1    0    0  502  501  0.00000000000E+00  0.00000000000E+00  0.38952919999E+02  0.38952919999E+02  0.00000000000E+00 0. -1.
         21   -1    0    0  501  502 -0.00000000000E+00 -0.00000000000E+00 -0.53226575814E+03  0.53226575814E+03  0.00000000000E+00 0. -1.
         25    1    1    2    0    0 -0.47638650619E+02  0.31604260182E+02 -0.16157177304E+03  0.21212898939E+03  0.12500000000E+03 0.  0.
         25    1    1    2    0    0  0.47638650619E+02 -0.31604260182E+02 -0.33174106510E+03  0.35908968875E+03  0.12500000000E+03 0.  0.
</event>
<event>
 4    0  0.2270578E-002  0.3098217E+03  0.7546771E-02  0.1080431E+00
         21   -1    0    0  502  501  0.00000000000E+00  0.00000000000E+00  0.92515800172E+03  0.92515800172E+03  0.00000000000E+00 0.  1.
         21   -1    0    0  501  502 -0.00000000000E+00 -0.00000000000E+00 -0.10375469258E+03  0.10375469258E+03  0.00000000000E+00 0.  1.
         25    1    1    2    0    0  0.22056785039E+03  0.17732708027E+03  0.43795669366E+03  0.53621463570E+03  0.12500000000E+03 0.  0.
         25    1    1    2    0    0 -0.22056785039E+03 -0.17732708027E+03  0.38344661549E+03  0.49269805860E+03  0.12500000000E+03 0.  0.
</event>
<event>
 4    0  0.2270578E-002  0.2483615E+03  0.7546771E-02  0.1114345E+00
         21   -1    0    0  502  501  0.00000000000E+00  0.00000000000E+00  0.91663682900E+02  0.91663682900E+02  0.00000000000E+00 0. -1.
         21   -1    0    0  501  502 -0.00000000000E+00 -0.00000000000E+00 -0.67293222371E+03  0.67293222371E+03  0.00000000000E+00 0. -1.
         25    1    1    2    0    0  0.18401523366E+03  0.18633175716E+02 -0.45819425817E+03  0.50968203782E+03  0.12500000000E+03 0.  0.
         25    1    1    2    0    0 -0.18401523366E+03 -0.18633175716E+02 -0.12307428264E+03  0.25491386880E+03  0.12500000000E+03 0.  0.
</event>
<event>
 4    0  0.2270578E-002  0.5122180E+03  0.7546771E-02  0.1010638E+00
         21   -1    0    0  502  501  0.00000000000E+00  0.00000000000E+00  0.21127624575E+04  0.21127624575E+04  0.00000000000E+00 0.  1.
         21   -1    0    0  501  502 -0.00000000000E+00 -0.00000000000E+00 -0.12418211327E+03  0.12418211327E+03  0.00000000000E+00 0.  1.
         25    1    1    2    0    0 -0.39693055038E+03 -0.55297961723E+02  0.35345099295E+03  0.54878441196E+03  0.12500000000E+03 0.  0.
         25    1    1    2    0    0  0.39693055038E+03  0.55297961723E+02  0.16351293513E+04  0.16881601588E+04  0.12500000000E+03 0.  0.
</event>
<event>
 4    0  0.2270578E-002  0.2081047E+03  0.7546771E-02  0.1143076E+00
         21   -1    0    0  502  501  0.00000000000E+00  0.00000000000E+00  0.86357994106E+02  0.86357994106E+02  0.00000000000E+00 0. -1.
         21   -1    0    0  501  502 -0.00000000000E+00 -0.00000000000E+00 -0.50148861763E+03  0.50148861763E+03  0.00000000000E+00 0. -1.
         25    1    1    2    0    0  0.31010178493E+02 -0.13118229189E+03 -0.34531512303E+03  0.39120066343E+03  0.12500000000E+03 0.  0.
         25    1    1    2    0    0 -0.31010178493E+02  0.13118229189E+03 -0.69815500491E+02  0.19664594830E+03  0.12500000000E+03 0.  0.
</event>
<event>
 4    0  0.2270578E-002  0.2523267E+03  0.7546771E-02  0.1111843E+00
         21   -1    0    0  502  501  0.00000000000E+00  0.00000000000E+00  0.68663104742E+03  0.68663104742E+03  0.00000000000E+00 0.  1.
         21   -1    0    0  501  502 -0.00000000000E+00 -0.00000000000E+00 -0.92726284367E+02  0.92726284367E+02  0.00000000000E+00 0.  1.
         25    1    1    2    0    0 -0.39300004057E+02 -0.10172915138E+02  0.62959865527E+03  0.64316984168E+03  0.12500000000E+03 0.  0.
         25    1    1    2    0    0  0.39300004057E+02  0.10172915138E+02 -0.35693892219E+02  0.13618749011E+03  0.12500000000E+03 0.  0.
</event>
<event>
 4    0  0.2270578E-002  0.2203130E+03  0.7546771E-02  0.1133650E+00
         21   -1    0    0  502  501  0.00000000000E+00  0.00000000000E+00  0.54227673082E+03  0.54227673082E+03  0.00000000000E+00 0. -1.
         21   -1    0    0  501  502 -0.00000000000E+00 -0.00000000000E+00 -0.89507445221E+02  0.89507445221E+02  0.00000000000E+00 0. -1.
         25    1    1    2    0    0 -0.10033760061E+03  0.12403376196E+03  0.10253599120E+03  0.22713572527E+03  0.12500000000E+03 0.  0.
         25    1    1    2    0    0  0.10033760061E+03 -0.12403376196E+03  0.35023329440E+03  0.40464845077E+03  0.12500000000E+03 0.  0.
</event>
<event>
 4    0  0.2270578E-002  0.2209136E+03  0.7546771E-02  0.1133204E+00
         21   -1    0    0  502  501  0.00000000000E+00  0.00000000000E+00  0.11713687330E+03  0.11713687330E+03  0.00000000000E+00 0. -1.
         21   -1    0    0  501  502 -0.00000000000E+00 -0.00000000000E+00 -0.41663072040E+03  0.41663072040E+03  0.00000000000E+00 0. -1.
         25    1    1    2    0    0  0.69671834589E+01 -0.96922550055E+02 -0.33586865726E+03  0.37131560334E+03  0.12500000000E+03 0.  0.
         25    1    1    2    0    0 -0.69671834589E+01  0.96922550055E+02  0.36374810166E+02  0.16245199035E+03  0.12500000000E+03 0.  0.
</event>
<event>
 4    0  0.2270578E-002  0.2661368E+03  0.7546771E-02  0.1103511E+00
         21   -1    0    0  502  501  0.00000000000E+00  0.00000000000E+00  0.67507133007E+03  0.67507133007E+03  0.00000000000E+00 0. -1.
         21   -1    0    0  501  502 -0.00000000000E+00 -0.00000000000E+00 -0.10492042420E+03  0.10492042420E+03  0.00000000000E+00 0. -1.
         25    1    1    2    0    0  0.59705519164E+01  0.44277730803E+01 -0.59054192199E+02  0.13844728340E+03  0.12500000000E+03 0.  0.
         25    1    1    2    0    0 -0.59705519164E+01 -0.44277730803E+01  0.62920509807E+03  0.64154447087E+03  0.12500000000E+03 0.  0.
</event>
<event>
 4    0  0.2270578E-002  0.2610519E+03  0.7546771E-02  0.1106513E+00
         21   -1    0    0  502  501  0.00000000000E+00  0.00000000000E+00  0.72291016851E+02  0.72291016851E+02  0.00000000000E+00 0. -1.
         21   -1    0    0  501  502 -0.00000000000E+00 -0.00000000000E+00 -0.94269106754E+03  0.94269106754E+03  0.00000000000E+00 0. -1.
         25    1    1    2    0    0 -0.75616637232E+02  0.44772259084E+02 -0.23724747132E+02  0.15462953999E+03  0.12500000000E+03 0.  0.
         25    1    1    2    0    0  0.75616637232E+02 -0.44772259084E+02 -0.84667530356E+03  0.86035254440E+03  0.12500000000E+03 0.  0.
</event>
<event>
 4    0  0.2270578E-002  0.2145852E+03  0.7546771E-02  0.1137986E+00
         21   -1    0    0  502  501  0.00000000000E+00  0.00000000000E+00  0.12326906039E+03  0.12326906039E+03  0.00000000000E+00 0. -1.
         21   -1    0    0  501  502 -0.00000000000E+00 -0.00000000000E+00 -0.37354730697E+03  0.37354730697E+03  0.00000000000E+00 0. -1.
         25    1    1    2    0    0  0.26180062963E+02 -0.15160093018E+03 -0.22027259095E+03  0.29633300871E+03  0.12500000000E+03 0.  0.
         25    1    1    2    0    0 -0.26180062963E+02  0.15160093018E+03 -0.30005655640E+02  0.20048335865E+03  0.12500000000E+03 0.  0.
</event>
<event>
 4    0  0.2270578E-002  0.1701956E+03  0.7546771E-02  0.1177644E+00
         21   -1    0    0  502  501  0.00000000000E+00  0.00000000000E+00  0.55057509910E+02  0.55057509910E+02  0.00000000000E+00 0. -1.
         21   -1    0    0  501  502 -0.00000000000E+00 -0.00000000000E+00 -0.52611450368E+03  0.52611450368E+03  0.00000000000E+00 0. -1.
         25    1    1    2    0    0  0.45806161251E+02  0.68927139396E+02 -0.37310013110E+03  0.40209185864E+03  0.12500000000E+03 0.  0.
         25    1    1    2    0    0 -0.45806161251E+02 -0.68927139396E+02 -0.97956862664E+02  0.17908015495E+03  0.12500000000E+03 0.  0.
</event>
<event>
 4    0  0.2270578E-002  0.2399483E+03  0.7546771E-02  0.1119827E+00
         21   -1    0    0  502  501  0.00000000000E+00  0.00000000000E+00  0.11283942594E+04  0.11283942594E+04  0.00000000000E+00 0.  1.
         21   -1    0    0  501  502 -0.00000000000E+00 -0.00000000000E+00 -0.51023997850E+02  0.51023997850E+02  0.00000000000E+00 0.  1.
         25    1    1    2    0    0 -0.19873779277E+03 -0.31299226212E+02  0.63303569986E+03  0.67589610824E+03  0.12500000000E+03 0.  0.
         25    1    1    2    0    0  0.19873779277E+03  0.31299226212E+02  0.44433456172E+03  0.50352214905E+03  0.12500000000E+03 0.  0.
</event>
<event>
 4    0  0.2270578E-002  0.1880867E+03  0.7546771E-02  0.1160198E+00
         21   -1    0    0  502  501  0.00000000000E+00  0.00000000000E+00  0.40569530641E+03  0.40569530641E+03  0.00000000000E+00 0.  1.
         21   -1    0    0  501  502 -0.00000000000E+00 -0.00000000000E+00 -0.87199982707E+02  0.87199982707E+02  0.00000000000E+00 0.  1.
         25    1    1    2    0    0 -0.81790525989E+02  0.11244392127E+03  0.13244922624E+03  0.22913123555E+03  0.12500000000E+03 0.  0.
         25    1    1    2    0    0  0.81790525989E+02 -0.11244392127E+03  0.18604609746E+03  0.26376405357E+03  0.12500000000E+03 0.  0.
</event>
<event>
 4    0  0.2270578E-002  0.2822775E+03  0.7546771E-02  0.1094451E+00
         21   -1    0    0  502  501  0.00000000000E+00  0.00000000000E+00  0.83777781025E+03  0.83777781025E+03  0.00000000000E+00 0. -1.
         21   -1    0    0  501  502 -0.00000000000E+00 -0.00000000000E+00 -0.95109470432E+02  0.95109470432E+02  0.00000000000E+00 0. -1.
         25    1    1    2    0    0  0.15946940175E+03  0.18939727886E+03  0.28462044417E+03  0.39741114299E+03  0.12500000000E+03 0.  0.
         25    1    1    2    0    0 -0.15946940175E+03 -0.18939727886E+03  0.45804789564E+03  0.53547613769E+03  0.12500000000E+03 0.  0.
</event>
<event>
 4    0  0.2270578E-002  0.2191426E+03  0.7546771E-02  0.1134524E+00
         21   -1    0    0  502  501  0.00000000000E+00  0.00000000000E+00  0.11298837275E+03  0.11298837275E+03  0.00000000000E+00 0. -1.
         21   -1    0    0  501  502 -0.00000000000E+00 -0.00000000000E+00 -0.42503041160E+03  0.42503041160E+03  0.00000000000E+00 0. -1.
         25    1    1    2    0    0  0.10298840235E+03 -0.10058205242E+03 -0.23381937973E+02  0.19208090824E+03  0.12500000000E+03 0.  0.
         25    1    1    2    0    0 -0.10298840235E+03  0.10058205242E+03 -0.28866010088E+03  0.34593787611E+03  0.12500000000E+03 0.  0.
</event>
<event>
 4    0  0.2270578E-002  0.3648002E+03  0.7546771E-02  0.1056699E+00
         21   -1    0    0  502  501  0.00000000000E+00  0.00000000000E+00  0.39767429580E+02  0.39767429580E+02  0.00000000000E+00 0.  1.
         21   -1    0    0  501  502 -0.00000000000E+00 -0.00000000000E+00 -0.33464373693E+04  0.33464373693E+04  0.00000000000E+00 0.  1.
         25    1    1    2    0    0 -0.13850749831E+03  0.16686170903E+03 -0.28850149418E+04  0.28958527883E+04  0.12500000000E+03 0.  0.
         25    1    1    2    0    0  0.13850749831E+03 -0.16686170903E+03 -0.42165499798E+03  0.49035201065E+03  0.12500000000E+03 0.  0.
</event>
<event>
 4    0  0.2270578E-002  0.1983400E+03  0.7546771E-02  0.1151147E+00
         21   -1    0    0  502  501  0.00000000000E+00  0.00000000000E+00  0.15351049338E+03  0.15351049338E+03  0.00000000000E+00 0.  1.
         21   -1    0    0  501  502 -0.00000000000E+00 -0.00000000000E+00 -0.25626098578E+03  0.25626098578E+03  0.00000000000E+00 0.  1.
         25    1    1    2    0    0 -0.40309185713E+02 -0.59667991099E+02  0.89237065886E+02  0.16962710144E+03  0.12500000000E+03 0.  0.
         25    1    1    2    0    0  0.40309185713E+02  0.59667991099E+02 -0.19198755828E+03  0.24014437772E+03  0.12500000000E+03 0.  0.
</event>
<event>
 4    0  0.2270578E-002  0.2561747E+03  0.7546771E-02  0.1109464E+00
         21   -1    0    0  502  501  0.00000000000E+00  0.00000000000E+00  0.29489600494E+03  0.29489600494E+03  0.00000000000E+00 0.  1.
         21   -1    0    0  501  502 -0.00000000000E+00 -0.00000000000E+00 -0.22253773119E+03  0.22253773119E+03  0.00000000000E+00 0.  1.
         25    1    1    2    0    0  0.87577421320E+02 -0.10605338620E+03  0.21423343787E+03  0.28361609854E+03  0.12500000000E+03 0.  0.
         25    1    1    2    0    0 -0.87577421320E+02  0.10605338620E+03 -0.14187516413E+03  0.23381763759E+03  0.12500000000E+03 0.  0.
</event>
<event>
 4    0  0.2270578E-002  0.1581128E+03  0.7546771E-02  0.1190844E+00
         21   -1    0    0  502  501  0.00000000000E+00  0.00000000000E+00  0.13471515960E+03  0.13471515960E+03  0.00000000000E+00 0.  1.
         21   -1    0    0  501  502 -0.00000000000E+00 -0.00000000000E+00 -0.18557426387E+03  0.18557426387E+03  0.00000000000E+00 0.  1.
         25    1    1    2    0    0  0.24469882166E+02  0.28928258394E+02 -0.11567591103E+03  0.17447502875E+03  0.12500000000E+03 0.  0.
         25    1    1    2    0    0 -0.24469882166E+02 -0.28928258394E+02  0.64816806762E+02  0.14581439471E+03  0.12500000000E+03 0.  0.
</event>
<event>
 4    0  0.2270578E-002  0.3439397E+03  0.7546771E-02  0.1065130E+00
         21   -1    0    0  502  501  0.00000000000E+00  0.00000000000E+00  0.88276414973E+03  0.88276414973E+03  0.00000000000E+00 0.  1.
         21   -1    0    0  501  502 -0.00000000000E+00 -0.00000000000E+00 -0.13400468921E+03  0.13400468921E+03  0.00000000000E+00 0.  1.
         25    1    1    2    0    0  0.11068644443E+03  0.24004116083E+03  0.10668767891E+03  0.31125312642E+03  0.12500000000E+03 0.  0.
         25    1    1    2    0    0 -0.11068644443E+03 -0.24004116083E+03  0.64207178161E+03  0.70551571252E+03  0.12500000000E+03 0.  0.
</event>
<event>
 4    0  0.2270578E-002  0.1790181E+03  0.7546771E-02  0.1168757E+00
         21   -1    0    0  502  501  0.00000000000E+00  0.00000000000E+00  0.12008969071E+03  0.12008969071E+03  0.00000000000E+00 0. -1.
         21   -1    0    0  501  502 -0.00000000000E+00 -0.00000000000E+00 -0.26686301688E+03  0.26686301688E+03  0.00000000000E+00 0. -1.
         25    1    1    2    0    0  0.19910888826E+02 -0.71715261841E+02  0.39360247066E+02  0.15071082019E+03  0.12500000000E+03 0.  0.
         25    1    1    2    0    0 -0.19910888826E+02  0.71715261841E+02 -0.18613357323E+03  0.23624188739E+03  0.12500000000E+03 0.  0.
</event>
<event>
 4    0  0.2270578E-002  0.3211820E+03  0.7546771E-02  0.1075107E+00
         21   -1    0    0  502  501  0.00000000000E+00  0.00000000000E+00  0.95822170542E+02  0.95822170542E+02  0.00000000000E+00 0. -1.
         21   -1    0    0  501  502 -0.00000000000E+00 -0.00000000000E+00 -0.10765553968E+04  0.10765553968E+04  0.00000000000E+00 0. -1.
         25    1    1    2    0    0 -0.20034628143E+03 -0.96249302899E+01 -0.88730604215E+03  0.91824195298E+03  0.12500000000E+03 0.  0.
         25    1    1    2    0    0  0.20034628143E+03  0.96249302899E+01 -0.93427184131E+02  0.25413561439E+03  0.12500000000E+03 0.  0.
</event>
<event>
 4    0  0.2270578E-002  0.1897019E+03  0.7546771E-02  0.1158730E+00
         21   -1    0    0  502  501  0.00000000000E+00  0.00000000000E+00  0.14161179442E+03  0.14161179442E+03  0.00000000000E+00 0.  1.
         21   -1    0    0  501  502 -0.00000000000E+00 -0.00000000000E+00 -0.25412303395E+03  0.25412303395E+03  0.00000000000E+00 0.  1.
         25    1    1    2    0    0  0.13303151543E+03 -0.92429777079E+01 -0.32858118678E+01  0.18280758544E+03  0.12500000000E+03 0.  0.
         25    1    1    2    0    0 -0.13303151543E+03  0.92429777079E+01 -0.10922542767E+03  0.21292724293E+03  0.12500000000E+03 0.  0.
</event>
<event>
 4    0  0.2270578E-002  0.2045301E+03  0.7546771E-02  0.1145972E+00
         21   -1    0    0  502  501  0.00000000000E+00  0.00000000000E+00  0.19613984729E+03  0.19613984729E+03  0.00000000000E+00 0.  1.
         21   -1    0    0  501  502 -0.00000000000E+00 -0.00000000000E+00 -0.21327934196E+03  0.21327934196E+03  0.00000000000E+00 0.  1.
         25    1    1    2    0    0 -0.11705846705E+03  0.98737541025E+02 -0.61111434276E+02  0.20690914459E+03  0.12500000000E+03 0.  0.
         25    1    1    2    0    0  0.11705846705E+03 -0.98737541025E+02  0.43971939603E+02  0.20251004466E+03  0.12500000000E+03 0.  0.
</event>
<event>
 4    0  0.2270578E-002  0.2998312E+03  0.7546771E-02  0.1085325E+00
         21   -1    0    0  502  501  0.00000000000E+00  0.00000000000E+00  0.12366903193E+04  0.12366903193E+04  0.00000000000E+00 0. -1.
         21   -1    0    0  501  502 -0.00000000000E+00 -0.00000000000E+00 -0.72693038359E+02  0.72693038359E+02  0.00000000000E+00 0. -1.
         25    1    1    2    0    0 -0.62725294125E+02  0.23659093387E+03  0.84369537144E+03  0.88733117397E+03  0.12500000000E+03 0.  0.
         25    1    1    2    0    0  0.62725294125E+02 -0.23659093387E+03  0.32030190945E+03  0.42205218364E+03  0.12500000000E+03 0.  0.
</event>
<event>
 4    0  0.2270578E-002  0.6093669E+03  0.7546771E-02  0.9886161E-01
         21   -1    0    0  502  501  0.00000000000E+00  0.00000000000E+00  0.22477480236E+03  0.22477480236E+03  0.00000000000E+00 0.  1.
         21   -1    0    0  501  502 -0.00000000000E+00 -0.00000000000E+00 -0.16520001218E+04  0.16520001218E+04  0.00000000000E+00 0. -1.
         25    1    1    2    0    0 -0.42399267978E+03  0.14973612048E+03 -0.13169704711E+04  0.13972211422E+04  0.12500000000E+03 0.  0.
         25    1    1    2    0    0  0.42399267978E+03 -0.14973612048E+03 -0.11025484835E+03  0.47955378204E+03  0.12500000000E+03 0.  0.
</event>
<event>
 4    0  0.2270578E-002  0.1818559E+03  0.7546771E-02  0.1166019E+00
         21   -1    0    0  502  501  0.00000000000E+00  0.00000000000E+00  0.62204705719E+02  0.62204705719E+02  0.00000000000E+00 0.  1.
         21   -1    0    0  501  502 -0.00000000000E+00 -0.00000000000E+00 -0.53165703468E+03  0.53165703468E+03  0.00000000000E+00 0.  1.
         25    1    1    2    0    0  0.12286321233E+03  0.47522190207E+02 -0.21899358580E+03  0.28449414427E+03  0.12500000000E+03 0.  0.
         25    1    1    2    0    0 -0.12286321233E+03 -0.47522190207E+02 -0.25045874316E+03  0.30936759613E+03  0.12500000000E+03 0.  0.
</event>
<event>
 4    0  0.2270578E-002  0.2239344E+03  0.7546771E-02  0.1130983E+00
         21   -1    0    0  502  501  0.00000000000E+00  0.00000000000E+00  0.13608447627E+03  0.13608447627E+03  0.00000000000E+00 0. -1.
         21   -1    0    0  501  502 -0.00000000000E+00 -0.00000000000E+00 -0.36849616372E+03  0.36849616372E+03  0.00000000000E+00 0. -1.
         25    1    1    2    0    0 -0.16772723248E+03  0.78874702075E+02 -0.13080703555E+03  0.25901568233E+03  0.12500000000E+03 0.  0.
         25    1    1    2    0    0  0.16772723248E+03 -0.78874702075E+02 -0.10160465189E+03  0.24556495766E+03  0.12500000000E+03 0.  0.
</event>
<event>
 4    0  0.2270578E-002  0.2008434E+03  0.7546771E-02  0.1149029E+00
         21   -1    0    0  502  501  0.00000000000E+00  0.00000000000E+00  0.16962681021E+03  0.16962681021E+03  0.00000000000E+00 0. -1.
         21   -1    0    0  501  502 -0.00000000000E+00 -0.00000000000E+00 -0.23780483936E+03  0.23780483936E+03  0.00000000000E+00 0. -1.
         25    1    1    2    0    0 -0.38256351803E+02  0.48663873119E+02  0.11248146769E+03  0.17918928978E+03  0.12500000000E+03 0.  0.
         25    1    1    2    0    0  0.38256351803E+02 -0.48663873119E+02 -0.18065949684E+03  0.22824235978E+03  0.12500000000E+03 0.  0.
</event>
<event>
 4    0  0.2270578E-002  0.1755586E+03  0.7546771E-02  0.1172172E+00
         21   -1    0    0  502  501  0.00000000000E+00  0.00000000000E+00  0.10746821407E+03  0.10746821407E+03  0.00000000000E+00 0. -1.
         21   -1    0    0  501  502 -0.00000000000E+00 -0.00000000000E+00 -0.28679017885E+03  0.28679017885E+03  0.00000000000E+00 0. -1.
         25    1    1    2    0    0 -0.23779221245E+02 -0.96179723060E+02 -0.73015412315E+01  0.15966935522E+03  0.12500000000E+03 0.  0.
         25    1    1    2    0    0  0.23779221245E+02  0.96179723060E+02 -0.17202042355E+03  0.23458903770E+03  0.12500000000E+03 0.  0.
</event>
<event>
 4    0  0.2270578E-002  0.1983506E+03  0.7546771E-02  0.1151138E+00
         21   -1    0    0  502  501  0.00000000000E+00  0.00000000000E+00  0.38761757973E+03  0.38761757973E+03  0.00000000000E+00 0.  1.
         21   -1    0    0  501  502 -0.00000000000E+00 -0.00000000000E+00 -0.10149944714E+03  0.10149944714E+03  0.00000000000E+00 0.  1.
         25    1    1    2    0    0  0.14058294142E+03 -0.39478357207E+02  0.82708622049E+02  0.20925539483E+03  0.12500000000E+03 0.  0.
         25    1    1    2    0    0 -0.14058294142E+03  0.39478357207E+02  0.20340951055E+03  0.27986163204E+03  0.12500000000E+03 0.  0.
</event>
<event>
 4    0  0.2270578E-002  0.3176706E+03  0.7546771E-02  0.1076726E+00
         21   -1    0    0  502  501  0.00000000000E+00  0.00000000000E+00  0.63755713448E+03  0.63755713448E+03  0.00000000000E+00 0. -1.
         21   -1    0    0  501  502 -0.00000000000E+00 -0.00000000000E+00 -0.15828322140E+03  0.15828322140E+03  0.00000000000E+00 0. -1.
         25    1    1    2    0    0 -0.12239031513E+03  0.15346132753E+03  0.51050353574E+03  0.56104244785E+03  0.12500000000E+03 0.  0.
         25    1    1    2    0    0  0.12239031513E+03 -0.15346132753E+03 -0.31229622667E+02  0.23479790803E+03  0.12500000000E+03 0.  0.
</event>
<event>
 4    0  0.2270578E-002  0.1366818E+03  0.7546771E-02  0.1217865E+00
         21   -1    0    0  502  501  0.00000000000E+00  0.00000000000E+00  0.41435379741E+02  0.41435379741E+02  0.00000000000E+00 0.  1.
         21   -1    0    0  501  502 -0.00000000000E+00 -0.00000000000E+00 -0.45086850410E+03  0.45086850410E+03  0.00000000000E+00 0.  1.
         25    1    1    2    0    0 -0.44676195193E+02  0.22036490025E+01 -0.14619135562E+03  0.19747843159E+03  0.12500000000E+03 0.  0.
         25    1    1    2    0    0  0.44676195193E+02 -0.22036490025E+01 -0.26324176874E+03  0.29482545225E+03  0.12500000000E+03 0.  0.
</event>
<event>
 4    0  0.2270578E-002  0.1978900E+03  0.7546771E-02  0.1151532E+00
         21   -1    0    0  502  501  0.00000000000E+00  0.00000000000E+00  0.13711729245E+03  0.13711729245E+03  0.00000000000E+00 0. -1.
         21   -1    0    0  501  502 -0.00000000000E+00 -0.00000000000E+00 -0.28559814859E+03  0.28559814859E+03  0.00000000000E+00 0. -1.
         25    1    1    2    0    0  0.44948619720E+02 -0.12147571516E+03 -0.16204688262E+03  0.24220016506E+03  0.12500000000E+03 0.  0.
         25    1    1    2    0    0 -0.44948619720E+02  0.12147571516E+03  0.13566026483E+02  0.18051527598E+03  0.12500000000E+03 0.  0.
</event>
<event>
 4    0  0.2270578E-002  0.2724953E+03  0.7546771E-02  0.1099860E+00
         21   -1    0    0  502  501  0.00000000000E+00  0.00000000000E+00  0.50498818728E+03  0.50498818728E+03  0.00000000000E+00 0. -1.
         21   -1    0    0  501  502 -0.00000000000E+00 -0.00000000000E+00 -0.14704045036E+03  0.14704045036E+03  0.00000000000E+00 0. -1.
         25    1    1    2    0    0  0.16024357181E+03 -0.11059758479E+03  0.67629802770E+01  0.23147476314E+03  0.12500000000E+03 0.  0.
         25    1    1    2    0    0 -0.16024357181E+03  0.11059758479E+03  0.35118475664E+03  0.42055387450E+03  0.12500000000E+03 0.  0.
</event>
<event>
 4    0  0.2270578E-002  0.2372958E+03  0.7546771E-02  0.1121607E+00
         21   -1    0    0  502  501  0.00000000000E+00  0.00000000000E+00  0.28014273678E+03  0.28014273678E+03  0.00000000000E+00 0. -1.
         21   -1    0    0  501  502 -0.00000000000E+00 -0.00000000000E+00 -0.20100217135E+03  0.20100217135E+03  0.00000000000E+00 0. -1.
         25    1    1    2    0    0  0.15458930573E+03 -0.46802414969E+02  0.16205233472E+03  0.26071877316E+03  0.12500000000E+03 0.  0.
         25    1    1    2    0    0 -0.15458930573E+03  0.46802414969E+02 -0.82911769282E+02  0.22042613497E+03  0.12500000000E+03 0.  0.
</event>
<event>
 4    0  0.2270578E-002  0.3274123E+03  0.7546771E-02  0.1072288E+00
         21   -1    0    0  502  501  0.00000000000E+00  0.00000000000E+00  0.13746245088E+04  0.13746245088E+04  0.00000000000E+00 0. -1.
         21   -1    0    0  501  502 -0.00000000000E+00 -0.00000000000E+00 -0.77984080656E+02  0.77984080656E+02  0.00000000000E+00 0. -1.
         25    1    1    2    0    0 -0.10533999622E+03  0.28327563394E+03  0.61451514754E+03  0.69612891489E+03  0.12500000000E+03 0.  0.
         25    1    1    2    0    0  0.10533999622E+03 -0.28327563394E+03  0.68212528057E+03  0.75647967453E+03  0.12500000000E+03 0.  0.
</event>
<event>
 4    0  0.2270578E-002  0.2136823E+03  0.7546771E-02  0.1138683E+00
         21   -1    0    0  502  501  0.00000000000E+00  0.00000000000E+00  0.16545695215E+03  0.16545695215E+03  0.00000000000E+00 0.  1.
         21   -1    0    0  501  502 -0.00000000000E+00 -0.00000000000E+00 -0.27596383214E+03  0.27596383214E+03  0.00000000000E+00 0.  1.
         25    1    1    2    0    0  0.91474939069E+02  0.13817922228E+03 -0.10765643999E+03  0.23382914921E+03  0.12500000000E+03 0.  0.
         25    1    1    2    0    0 -0.91474939069E+02 -0.13817922228E+03 -0.28504400006E+01  0.20759163508E+03  0.12500000000E+03 0.  0.
</event>
<event>
 4    0  0.2270578E-002  0.2260077E+03  0.7546771E-02  0.1129482E+00
         21   -1    0    0  502  501  0.00000000000E+00  0.00000000000E+00  0.15456533407E+03  0.15456533407E+03  0.00000000000E+00 0. -1.
         21   -1    0    0  501  502 -0.00000000000E+00 -0.00000000000E+00 -0.33047169368E+03  0.33047169368E+03  0.00000000000E+00 0. -1.
         25    1    1    2    0    0 -0.68870894284E+02 -0.93822699854E+02 -0.24678178392E+03  0.30012022252E+03  0.12500000000E+03 0.  0.
         25    1    1    2    0    0  0.68870894284E+02  0.93822699854E+02  0.70875424306E+02  0.18491680523E+03  0.12500000000E+03 0.  0.
</event>
<event>
 4    0  0.2270578E-002  0.2907289E+03  0.7546771E-02  0.1089969E+00
         21   -1    0    0  502  501  0.00000000000E+00  0.00000000000E+00  0.12506545775E+03  0.12506545775E+03  0.00000000000E+00 0.  1.
         21   -1    0    0  501  502 -0.00000000000E+00 -0.00000000000E+00 -0.67583238282E+03  0.67583238282E+03  0.00000000000E+00 0.  1.
         25    1    1    2    0    0  0.20971601546E+03  0.96338252857E+02 -0.10314600483E+03  0.28200348299E+03  0.12500000000E+03 0.  0.
         25    1    1    2    0    0 -0.20971601546E+03 -0.96338252857E+02 -0.44762092023E+03  0.51889435759E+03  0.12500000000E+03 0.  0.
</event>
<event>
 4    0  0.2270578E-002  0.2028785E+03  0.7546771E-02  0.1147333E+00
         21   -1    0    0  502  501  0.00000000000E+00  0.00000000000E+00  0.15144581477E+03  0.15144581477E+03  0.00000000000E+00 0.  1.
         21   -1    0    0  501  502 -0.00000000000E+00 -0.00000000000E+00 -0.27177816930E+03  0.27177816930E+03  0.00000000000E+00 0.  1.
         25    1    1    2    0    0  0.13067560145E+03 -0.36607697251E+02 -0.14816897144E+03  0.23663321916E+03  0.12500000000E+03 0.  0.
         25    1    1    2    0    0 -0.13067560145E+03  0.36607697251E+02  0.27836616904E+02  0.18659076492E+03  0.12500000000E+03 0.  0.
</event>
<event>
 4    0  0.2270578E-002  0.2583763E+03  0.7546771E-02  0.1108123E+00
         21   -1    0    0  502  501  0.00000000000E+00  0.00000000000E+00  0.15032884099E+04  0.15032884099E+04  0.00000000000E+00 0. -1.
         21   -1    0    0  501  502 -0.00000000000E+00 -0.00000000000E+00 -0.44408172667E+02  0.44408172667E+02  0.00000000000E+00 0. -1.
         25    1    1    2    0    0  0.18013591853E+02  0.22332382406E+03  0.63784505952E+03  0.68750951982E+03  0.12500000000E+03 0.  0.
         25    1    1    2    0    0 -0.18013591853E+02 -0.22332382406E+03  0.82103517775E+03  0.86018706279E+03  0.12500000000E+03 0.  0.
</event>
<event>
 4    0  0.2270578E-002  0.2284081E+03  0.7546771E-02  0.1127765E+00
         21   -1    0    0  502  501  0.00000000000E+00  0.00000000000E+00  0.58491210745E+02  0.58491210745E+02  0.00000000000E+00 0.  1.
         21   -1    0    0  501  502 -0.00000000000E+00 -0.00000000000E+00 -0.89193309139E+03  0.89193309139E+03  0.00000000000E+00 0.  1.
         25    1    1    2    0    0 -0.15073527448E+03  0.98022001947E+02 -0.28163298208E+03  0.35675141546E+03  0.12500000000E+03 0.  0.
         25    1    1    2    0    0  0.15073527448E+03 -0.98022001947E+02 -0.55180889856E+03  0.59367288667E+03  0.12500000000E+03 0.  0.
</event>
<event>
 4    0  0.2270578E-002  0.2325726E+03  0.7546771E-02  0.1124842E+00
         21   -1    0    0  502  501  0.00000000000E+00  0.00000000000E+00  0.20254262863E+03  0.20254262863E+03  0.00000000000E+00 0.  1.
         21   -1    0    0  501  502 -0.00000000000E+00 -0.00000000000E+00 -0.26705499036E+03  0.26705499036E+03  0.00000000000E+00 0.  1.
         25    1    1    2    0    0 -0.18371196327E+03  0.58735966253E+02  0.36513971213E+01  0.22986589978E+03  0.12500000000E+03 0.  0.
         25    1    1    2    0    0  0.18371196327E+03 -0.58735966253E+02 -0.68163758848E+02  0.23973171922E+03  0.12500000000E+03 0.  0.
</event>
<event>
 4    0  0.2270578E-002  0.1722724E+03  0.7546771E-02  0.1175499E+00
         21   -1    0    0  502  501  0.00000000000E+00  0.00000000000E+00  0.75426003732E+02  0.75426003732E+02  0.00000000000E+00 0. -1.
         21   -1    0    0  501  502 -0.00000000000E+00 -0.00000000000E+00 -0.39346870054E+03  0.39346870054E+03  0.00000000000E+00 0. -1.
         25    1    1    2    0    0  0.10175073824E+03 -0.23392077556E+02 -0.82611690314E+02  0.18262007940E+03  0.12500000000E+03 0.  0.
         25    1    1    2    0    0 -0.10175073824E+03  0.23392077556E+02 -0.23543100649E+03  0.28627462487E+03  0.12500000000E+03 0.  0.
</event>
<event>
 4    0  0.2270578E-002  0.1342081E+03  0.7546771E-02  0.1221342E+00
         21   -1    0    0  502  501  0.00000000000E+00  0.00000000000E+00  0.10521983540E+03  0.10521983540E+03  0.00000000000E+00 0. -1.
         21   -1    0    0  501  502 -0.00000000000E+00 -0.00000000000E+00 -0.17118257406E+03  0.17118257406E+03  0.00000000000E+00 0. -1.
         25    1    1    2    0    0  0.19468241139E+02  0.19329501259E+02  0.86461530047E+01  0.12826690140E+03  0.12500000000E+03 0.  0.
         25    1    1    2    0    0 -0.19468241139E+02 -0.19329501259E+02 -0.74608891663E+02  0.14813550806E+03  0.12500000000E+03 0.  0.
</event>
<event>
 4    0  0.2270578E-002  0.1924844E+03  0.7546771E-02  0.1156239E+00
         21   -1    0    0  502  501  0.00000000000E+00  0.00000000000E+00  0.95243073762E+03  0.95243073762E+03  0.00000000000E+00 0.  1.
         21   -1    0    0  501  502 -0.00000000000E+00 -0.00000000000E+00 -0.38900716953E+02  0.38900716953E+02  0.00000000000E+00 0.  1.
         25    1    1    2    0    0 -0.42446448563E+02 -0.12237926402E+03  0.28122631473E+03  0.33390361686E+03  0.12500000000E+03 0.  0.
         25    1    1    2    0    0  0.42446448563E+02  0.12237926402E+03  0.63230370594E+03  0.65742783772E+03  0.12500000000E+03 0.  0.
</event>
<event>
 4    0  0.2270578E-002  0.2690454E+03  0.7546771E-02  0.1101827E+00
         21   -1    0    0  502  501  0.00000000000E+00  0.00000000000E+00  0.15176328830E+03  0.15176328830E+03  0.00000000000E+00 0. -1.
         21   -1    0    0  501  502 -0.00000000000E+00 -0.00000000000E+00 -0.47696277983E+03  0.47696277983E+03  0.00000000000E+00 0. -1.
         25    1    1    2    0    0 -0.12630491734E+03  0.20150802611E+03 -0.17920732809E+03  0.32295306652E+03  0.12500000000E+03 0.  0.
         25    1    1    2    0    0  0.12630491734E+03 -0.20150802611E+03 -0.14599216344E+03  0.30577300161E+03  0.12500000000E+03 0.  0.
</event>
<event>
 4    0  0.2270578E-002  0.1743945E+03  0.7546771E-02  0.1173341E+00
         21   -1    0    0  502  501  0.00000000000E+00  0.00000000000E+00  0.73487326963E+02  0.73487326963E+02  0.00000000000E+00 0.  1.
         21   -1    0    0  501  502 -0.00000000000E+00 -0.00000000000E+00 -0.41385945942E+03  0.41385945942E+03  0.00000000000E+00 0.  1.
         25    1    1    2    0    0  0.11352902722E+03  0.21069564844E+02 -0.11687648860E+03  0.20644098472E+03  0.12500000000E+03 0.  0.
         25    1    1    2    0    0 -0.11352902722E+03 -0.21069564844E+02 -0.22349564386E+03  0.28090580167E+03  0.12500000000E+03 0.  0.
</event>
<event>
 4    0  0.2270578E-002  0.1710566E+03  0.7546771E-02  0.1176750E+00
         21   -1    0    0  502  501  0.00000000000E+00  0.00000000000E+00  0.32749106700E+03  0.32749106700E+03  0.00000000000E+00 0.  1.
         21   -1    0    0  501  502 -0.00000000000E+00 -0.00000000000E+00 -0.89347090983E+02  0.89347090983E+02  0.00000000000E+00 0.  1.
         25    1    1    2    0    0  0.39309697342E+02  0.68028336900E+02  0.22432461243E+03  0.26855099827E+03  0.12500000000E+03 0.  0.
         25    1    1    2    0    0 -0.39309697342E+02 -0.68028336900E+02  0.13819363582E+02  0.14828715971E+03  0.12500000000E+03 0.  0.
</event>
<event>
 4    0  0.2270578E-002  0.2059429E+03  0.7546771E-02  0.1144820E+00
         21   -1    0    0  502  501  0.00000000000E+00  0.00000000000E+00  0.56930988432E+03  0.56930988432E+03  0.00000000000E+00 0. -1.
         21   -1    0    0  501  502 -0.00000000000E+00 -0.00000000000E+00 -0.74498040381E+02  0.74498040381E+02  0.00000000000E+00 0. -1.
         25    1    1    2    0    0 -0.67349141400E+02  0.92018333161E+02  0.43092032930E+03  0.46294774078E+03  0.12500000000E+03 0.  0.
         25    1    1    2    0    0  0.67349141400E+02 -0.92018333161E+02  0.63891514632E+02  0.18086018392E+03  0.12500000000E+03 0.  0.
</event>
<event>
 4    0  0.2270578E-002  0.1954798E+03  0.7546771E-02  0.1153610E+00
         21   -1    0    0  502  501  0.00000000000E+00  0.00000000000E+00  0.17552089738E+03  0.17552089738E+03  0.00000000000E+00 0. -1.
         21   -1    0    0  501  502 -0.00000000000E+00 -0.00000000000E+00 -0.21770832465E+03  0.21770832465E+03  0.00000000000E+00 0. -1.
         25    1    1    2    0    0 -0.38734676365E+02  0.13936162273E+03 -0.62138987366E+02  0.20101813548E+03  0.12500000000E+03 0.  0.
         25    1    1    2    0    0  0.38734676365E+02 -0.13936162273E+03  0.19951560101E+02  0.19221108655E+03  0.12500000000E+03 0.  0.
</event>
<event>
 4    0  0.2270578E-002  0.1721858E+03  0.7546771E-02  0.1175587E+00
         21   -1    0    0  502  501  0.00000000000E+00  0.00000000000E+00  0.51874014759E+02  0.51874014759E+02  0.00000000000E+00 0. -1.
         21   -1    0    0  501  502 -0.00000000000E+00 -0.00000000000E+00 -0.57153747779E+03  0.57153747779E+03  0.00000000000E+00 0. -1.
         25    1    1    2    0    0  0.58125119090E+02  0.10206547591E+03 -0.23255383535E+03  0.28896743273E+03  0.12500000000E+03 0.  0.
         25    1    1    2    0    0 -0.58125119090E+02 -0.10206547591E+03 -0.28710962768E+03  0.33444405982E+03  0.12500000000E+03 0.  0.
</event>
<event>
 4    0  0.2270578E-002  0.2030431E+03  0.7546771E-02  0.1147197E+00
         21   -1    0    0  502  501  0.00000000000E+00  0.00000000000E+00  0.91580003438E+02  0.91580003438E+02  0.00000000000E+00 0. -1.
         21   -1    0    0  501  502 -0.00000000000E+00 -0.00000000000E+00 -0.45016925760E+03  0.45016925760E+03  0.00000000000E+00 0. -1.
         25    1    1    2    0    0 -0.38699324910E+02  0.31175897155E+02 -0.38219647482E+03  0.40517739285E+03  0.12500000000E+03 0.  0.
         25    1    1    2    0    0  0.38699324910E+02 -0.31175897155E+02  0.23607220663E+02  0.13657186818E+03  0.12500000000E+03 0.  0.
</event>
<event>
 4    0  0.2270578E-002  0.1973706E+03  0.7546771E-02  0.1151977E+00
         21   -1    0    0  502  501  0.00000000000E+00  0.00000000000E+00  0.27595379015E+02  0.27595379015E+02  0.00000000000E+00 0.  1.
         21   -1    0    0  501  502 -0.00000000000E+00 -0.00000000000E+00 -0.14116549084E+04  0.14116549084E+04  0.00000000000E+00 0.  1.
         25    1    1    2    0    0 -0.66132737701E+02 -0.12992565138E+03 -0.52590625320E+03  0.55987195057E+03  0.12500000000E+03 0.  0.
         25    1    1    2    0    0  0.66132737701E+02  0.12992565138E+03 -0.85815327616E+03  0.87937833682E+03  0.12500000000E+03 0.  0.
</event>
<event>
 4    0  0.2270578E-002  0.1826637E+03  0.7546771E-02  0.1165250E+00
         21   -1    0    0  502  501  0.00000000000E+00  0.00000000000E+00  0.10063777032E+03  0.10063777032E+03  0.00000000000E+00 0. -1.
         21   -1    0    0  501  502 -0.00000000000E+00 -0.00000000000E+00 -0.33154581057E+03  0.33154581057E+03  0.00000000000E+00 0. -1.
         25    1    1    2    0    0  0.69610394276E+02 -0.86855576173E+02 -0.28912384766E+02  0.16985412593E+03  0.12500000000E+03 0.  0.
         25    1    1    2    0    0 -0.69610394276E+02  0.86855576173E+02 -0.20199565548E+03  0.26232945496E+03  0.12500000000E+03 0.  0.
</event>
<event>
 4    0  0.2270578E-002  0.1990841E+03  0.7546771E-02  0.1150514E+00
         21   -1    0    0  502  501  0.00000000000E+00  0.00000000000E+00  0.81432629161E+03  0.81432629161E+03  0.00000000000E+00 0.  1.
         21   -1    0    0  501  502 -0.00000000000E+00 -0.00000000000E+00 -0.48671477065E+02  0.48671477065E+02  0.00000000000E+00 0.  1.
         25    1    1    2    0    0 -0.76708371843E+02  0.93726022635E+02  0.17335182599E+03  0.24565137330E+03  0.12500000000E+03 0.  0.
         25    1    1    2    0    0  0.76708371843E+02 -0.93726022635E+02  0.59230298856E+03  0.61734639538E+03  0.12500000000E+03 0.  0.
</event>
<event>
 4    0  0.2270578E-002  0.2023066E+03  0.7546771E-02  0.1147807E+00
         21   -1    0    0  502  501  0.00000000000E+00  0.00000000000E+00  0.12259377864E+04  0.12259377864E+04  0.00000000000E+00 0. -1.
         21   -1    0    0  501  502 -0.00000000000E+00 -0.00000000000E+00 -0.33385036545E+02  0.33385036545E+02  0.00000000000E+00 0. -1.
         25    1    1    2    0    0  0.45074526727E+01  0.13993072452E+03  0.83130056252E+03  0.85222447163E+03  0.12500000000E+03 0.  0.
         25    1    1    2    0    0 -0.45074526727E+01 -0.13993072452E+03  0.36125218738E+03  0.40709835137E+03  0.12500000000E+03 0.  0.
</event>
<event>
 4    0  0.2270578E-002  0.2057429E+03  0.7546771E-02  0.1144982E+00
         21   -1    0    0  502  501  0.00000000000E+00  0.00000000000E+00  0.27149946203E+03  0.27149946203E+03  0.00000000000E+00 0. -1.
         21   -1    0    0  501  502 -0.00000000000E+00 -0.00000000000E+00 -0.15591248015E+03  0.15591248015E+03  0.00000000000E+00 0. -1.
         25    1    1    2    0    0  0.33568998907E+02 -0.72464793882E+02  0.20588486652E+03  0.25375500448E+03  0.12500000000E+03 0.  0.
         25    1    1    2    0    0 -0.33568998907E+02  0.72464793882E+02 -0.90297884638E+02  0.17365693770E+03  0.12500000000E+03 0.  0.
</event>
<event>
 4    0  0.2270578E-002  0.3009105E+03  0.7546771E-02  0.1084786E+00
         21   -1    0    0  502  501  0.00000000000E+00  0.00000000000E+00  0.11448654932E+03  0.11448654932E+03  0.00000000000E+00 0. -1.
         21   -1    0    0  501  502 -0.00000000000E+00 -0.00000000000E+00 -0.79089763635E+03  0.79089763635E+03  0.00000000000E+00 0. -1.
         25    1    1    2    0    0 -0.20733045718E+03 -0.12335179922E+03 -0.53273747537E+03  0.59802659013E+03  0.12500000000E+03 0.  0.
         25    1    1    2    0    0  0.20733045718E+03  0.12335179922E+03 -0.14367361166E+03  0.30735759554E+03  0.12500000000E+03 0.  0.
</event>
<event>
 4    0  0.2270578E-002  0.2381771E+03  0.7546771E-02  0.1121013E+00
         21   -1    0    0  502  501  0.00000000000E+00  0.00000000000E+00  0.10647795890E+04  0.10647795890E+04  0.00000000000E+00 0. -1.
         21   -1    0    0  501  502 -0.00000000000E+00 -0.00000000000E+00 -0.53277081049E+02  0.53277081049E+02  0.00000000000E+00 0. -1.
         25    1    1    2    0    0 -0.14887755763E+03  0.13714960690E+03  0.47911317813E+03  0.53492894790E+03  0.12500000000E+03 0.  0.
         25    1    1    2    0    0  0.14887755763E+03 -0.13714960690E+03  0.53238932984E+03  0.58312772217E+03  0.12500000000E+03 0.  0.
</event>
<event>
 4    0  0.2270578E-002  0.1637460E+03  0.7546771E-02  0.1184531E+00
         21   -1    0    0  502  501  0.00000000000E+00  0.00000000000E+00  0.12724822942E+04  0.12724822942E+04  0.00000000000E+00 0.  1.
         21   -1    0    0  501  502 -0.00000000000E+00 -0.00000000000E+00 -0.21071206868E+02  0.21071206868E+02  0.00000000000E+00 0.  1.
         25    1    1    2    0    0  0.12656880555E+02 -0.14487637620E+02  0.10365243074E+04  0.10442115342E+04  0.12500000000E+03 0.  0.
         25    1    1    2    0    0 -0.12656880555E+02  0.14487637620E+02  0.21488677999E+03  0.24934196695E+03  0.12500000000E+03 0.  0.
</event>
<event>
 4    0  0.2270578E-002  0.2274467E+03  0.7546771E-02  0.1128450E+00
         21   -1    0    0  502  501  0.00000000000E+00  0.00000000000E+00  0.54756357397E+03  0.54756357397E+03  0.00000000000E+00 0. -1.
         21   -1    0    0  501  502 -0.00000000000E+00 -0.00000000000E+00 -0.94476675516E+02  0.94476675516E+02  0.00000000000E+00 0. -1.
         25    1    1    2    0    0  0.56711095543E+02  0.12822156351E+03  0.40756760761E+03  0.44876861798E+03  0.12500000000E+03 0.  0.
         25    1    1    2    0    0 -0.56711095543E+02 -0.12822156351E+03  0.45519290846E+02  0.19327163151E+03  0.12500000000E+03 0.  0.
</event>
<event>
 4    0  0.2270578E-002  0.2546947E+03  0.7546771E-02  0.1110373E+00
         21   -1    0    0  502  501  0.00000000000E+00  0.00000000000E+00  0.61296557572E+02  0.61296557572E+02  0.00000000000E+00 0.  1.
         21   -1    0    0  501  502 -0.00000000000E+00 -0.00000000000E+00 -0.10582877030E+04  0.10582877030E+04  0.00000000000E+00 0.  1.
         25    1    1    2    0    0  0.49154225906E+02 -0.13042080568E+03 -0.87802984199E+03  0.89776785858E+03  0.12500000000E+03 0.  0.
         25    1    1    2    0    0 -0.49154225906E+02  0.13042080568E+03 -0.11896130344E+03  0.22181640200E+03  0.12500000000E+03 0.  0.
</event>
<event>
 4    0  0.2270578E-002  0.2027570E+03  0.7546771E-02  0.1147434E+00
         21   -1    0    0  502  501  0.00000000000E+00  0.00000000000E+00  0.10673193395E+04  0.10673193395E+04  0.00000000000E+00 0.  1.
         21   -1    0    0  501  502 -0.00000000000E+00 -0.00000000000E+00 -0.38517417487E+02  0.38517417487E+02  0.00000000000E+00 0.  1.
         25    1    1    2    0    0  0.10470280526E+03  0.17422937900E+02  0.18922229189E+03  0.25039231606E+03  0.12500000000E+03 0.  0.
         25    1    1    2    0    0 -0.10470280526E+03 -0.17422937900E+02  0.83957963017E+03  0.85544444097E+03  0.12500000000E+03 0.  0.
</event>
<event>
 4    0  0.2270578E-002  0.2542876E+03  0.7546771E-02  0.1110625E+00
         21   -1    0    0  502  501  0.00000000000E+00  0.00000000000E+00  0.25757322720E+03  0.25757322720E+03  0.00000000000E+00 0.  1.
         21   -1    0    0  501  502 -0.00000000000E+00 -0.00000000000E+00 -0.25104396095E+03  0.25104396095E+03  0.00000000000E+00 0.  1.
         25    1    1    2    0    0  0.43239270664E+02  0.20412531319E+03  0.77435596283E+02  0.25526074823E+03  0.12500000000E+03 0.  0.
         25    1    1    2    0    0 -0.43239270664E+02 -0.20412531319E+03 -0.70906330025E+02  0.25335643992E+03  0.12500000000E+03 0.  0.
</event>
<event>
 4    0  0.2270578E-002  0.1785725E+03  0.7546771E-02  0.1169192E+00
         21   -1    0    0  502  501  0.00000000000E+00  0.00000000000E+00  0.25291088272E+03  0.25291088272E+03  0.00000000000E+00 0.  1.
         21   -1    0    0  501  502 -0.00000000000E+00 -0.00000000000E+00 -0.12608445379E+03  0.12608445379E+03  0.00000000000E+00 0.  1.
         25    1    1    2    0    0 -0.17507719264E+02 -0.20787240408E+02  0.19563352249E+03  0.23374367311E+03  0.12500000000E+03 0.  0.
         25    1    1    2    0    0  0.17507719264E+02  0.20787240408E+02 -0.68807093553E+02  0.14525166340E+03  0.12500000000E+03 0.  0.
</event>
<event>
 4    0  0.2270578E-002  0.2239812E+03  0.7546771E-02  0.1130949E+00
         21   -1    0    0  502  501  0.00000000000E+00  0.00000000000E+00  0.90085001250E+02  0.90085001250E+02  0.00000000000E+00 0. -1.
         21   -1    0    0  501  502 -0.00000000000E+00 -0.00000000000E+00 -0.55689132983E+03  0.55689132983E+03  0.00000000000E+00 0. -1.
         25    1    1    2    0    0  0.24335480866E+02 -0.34262268521E+02  0.28070406722E+02  0.13482976825E+03  0.12500000000E+03 0.  0.
         25    1    1    2    0    0 -0.24335480866E+02  0.34262268521E+02 -0.49487673530E+03  0.51214656283E+03  0.12500000000E+03 0.  0.
</event>
<event>
 4    0  0.2270578E-002  0.2045098E+03  0.7546771E-02  0.1145989E+00
         21   -1    0    0  502  501  0.00000000000E+00  0.00000000000E+00  0.18830608231E+03  0.18830608231E+03  0.00000000000E+00 0.  1.
         21   -1    0    0  501  502 -0.00000000000E+00 -0.00000000000E+00 -0.22210775903E+03  0.22210775903E+03  0.00000000000E+00 0.  1.
         25    1    1    2    0    0  0.96976782670E+02  0.77929028270E+02  0.86998327479E+02  0.19664978721E+03  0.12500000000E+03 0.  0.
         25    1    1    2    0    0 -0.96976782670E+02 -0.77929028270E+02 -0.12080000420E+03  0.21376405413E+03  0.12500000000E+03 0.  0.
</event>
<event>
 4    0  0.2270578E-002  0.3091304E+03  0.7546771E-02  0.1080763E+00
         21   -1    0    0  502  501  0.00000000000E+00  0.00000000000E+00  0.28602758840E+03  0.28602758840E+03  0.00000000000E+00 0.  1.
         21   -1    0    0  501  502 -0.00000000000E+00 -0.00000000000E+00 -0.33409936230E+03  0.33409936230E+03  0.00000000000E+00 0.  1.
         25    1    1    2    0    0  0.21402502137E+03  0.70669721864E+02  0.14717117284E+03  0.29679163310E+03  0.12500000000E+03 0.  0.
         25    1    1    2    0    0 -0.21402502137E+03 -0.70669721864E+02 -0.19524294673E+03  0.32333531760E+03  0.12500000000E+03 0.  0.
</event>
<event>
 4    0  0.2270578E-002  0.2352454E+03  0.7546771E-02  0.1123001E+00
         21   -1    0    0  502  501  0.00000000000E+00  0.00000000000E+00  0.59632629041E+03  0.59632629041E+03  0.00000000000E+00 0.  1.
         21   -1    0    0  501  502 -0.00000000000E+00 -0.00000000000E+00 -0.92802180117E+02  0.92802180117E+02  0.00000000000E+00 0. -1.
         25    1    1    2    0    0  0.17026721979E+03  0.74302514534E+02  0.14610447380E+03  0.26736362330E+03  0.12500000000E+03 0.  0.
         25    1    1    2    0    0 -0.17026721979E+03 -0.74302514534E+02  0.35741963649E+03  0.42176484722E+03  0.12500000000E+03 0.  0.
</event>
<event>
 4    0  0.2270578E-002  0.1963481E+03  0.7546771E-02  0.1152857E+00
         21   -1    0    0  502  501  0.00000000000E+00  0.00000000000E+00  0.10564566749E+04  0.10564566749E+04  0.00000000000E+00 0. -1.
         21   -1    0    0  501  502 -0.00000000000E+00 -0.00000000000E+00 -0.36492338317E+02  0.36492338317E+02  0.00000000000E+00 0. -1.
         25    1    1    2    0    0  0.84629230492E+02 -0.95960029129E+02  0.73535442907E+03  0.75679691476E+03  0.12500000000E+03 0.  0.
         25    1    1    2    0    0 -0.84629230492E+02  0.95960029129E+02  0.28460990756E+03  0.33615209850E+03  0.12500000000E+03 0.  0.
</event>
<event>
 4    0  0.2270578E-002  0.1750578E+03  0.7546771E-02  0.1172674E+00
         21   -1    0    0  502  501  0.00000000000E+00  0.00000000000E+00  0.24981305620E+03  0.24981305620E+03  0.00000000000E+00 0. -1.
         21   -1    0    0  501  502 -0.00000000000E+00 -0.00000000000E+00 -0.12267271211E+03  0.12267271211E+03  0.00000000000E+00 0. -1.
         25    1    1    2    0    0  0.48304081104E+02  0.85641258009E+02  0.14140570959E+03  0.21281044154E+03  0.12500000000E+03 0.  0.
         25    1    1    2    0    0 -0.48304081104E+02 -0.85641258009E+02 -0.14265365502E+02  0.15967532676E+03  0.12500000000E+03 0.  0.
</event>
<event>
 4    0  0.2270578E-002  0.1913587E+03  0.7546771E-02  0.1157242E+00
         21   -1    0    0  502  501  0.00000000000E+00  0.00000000000E+00  0.12011173248E+03  0.12011173248E+03  0.00000000000E+00 0. -1.
         21   -1    0    0  501  502 -0.00000000000E+00 -0.00000000000E+00 -0.30486726907E+03  0.30486726907E+03  0.00000000000E+00 0. -1.
         25    1    1    2    0    0  0.68180196894E+02  0.11260684129E+03 -0.15959562017E+03  0.24171181587E+03  0.12500000000E+03 0.  0.
         25    1    1    2    0    0 -0.68180196894E+02 -0.11260684129E+03 -0.25159916420E+02  0.18326718568E+03  0.12500000000E+03 0.  0.
</event>
<event>
 4    0  0.2270578E-002  0.1547332E+03  0.7546771E-02  0.1194775E+00
         21   -1    0    0  502  501  0.00000000000E+00  0.00000000000E+00  0.31750531978E+02  0.31750531978E+02  0.00000000000E+00 0. -1.
         21   -1    0    0  501  502 -0.00000000000E+00 -0.00000000000E+00 -0.75407775506E+03  0.75407775506E+03  0.00000000000E+00 0. -1.
         25    1    1    2    0    0  0.66562106135E+02  0.25933644348E+02 -0.21719844197E+03  0.26058248421E+03  0.12500000000E+03 0.  0.
         25    1    1    2    0    0 -0.66562106135E+02 -0.25933644348E+02 -0.50512878111E+03  0.52524580283E+03  0.12500000000E+03 0.  0.
</event>
<event>
 4    0  0.2270578E-002  0.3740382E+03  0.7546771E-02  0.1053160E+00
         21   -1    0    0  502  501  0.00000000000E+00  0.00000000000E+00  0.95312878977E+02  0.95312878977E+02  0.00000000000E+00 0. -1.
         21   -1    0    0  501  502 -0.00000000000E+00 -0.00000000000E+00 -0.14678455149E+04  0.14678455149E+04  0.00000000000E+00 0. -1.
         25    1    1    2    0    0  0.17367586752E+03 -0.29556595715E+03 -0.85803155195E+03  0.93239781538E+03  0.12500000000E+03 0.  0.
         25    1    1    2    0    0 -0.17367586752E+03  0.29556595715E+03 -0.51450108399E+03  0.63076057851E+03  0.12500000000E+03 0.  0.
</event>
<event>
 4    0  0.2270578E-002  0.3257133E+03  0.7546771E-02  0.1073049E+00
         21   -1    0    0  502  501  0.00000000000E+00  0.00000000000E+00  0.20837335833E+03  0.20837335833E+03  0.00000000000E+00 0.  1.
         21   -1    0    0  501  502 -0.00000000000E+00 -0.00000000000E+00 -0.50913020857E+03  0.50913020857E+03  0.00000000000E+00 0.  1.
         25    1    1    2    0    0 -0.60744400157E+02 -0.24980794913E+02  0.17290750872E+03  0.22323962201E+03  0.12500000000E+03 0.  0.
         25    1    1    2    0    0  0.60744400157E+02  0.24980794913E+02 -0.47366435896E+03  0.49426394488E+03  0.12500000000E+03 0.  0.
</event>
<event>
 4    0  0.2270578E-002  0.2013804E+03  0.7546771E-02  0.1148580E+00
         21   -1    0    0  502  501  0.00000000000E+00  0.00000000000E+00  0.30791152672E+03  0.30791152672E+03  0.00000000000E+00 0.  1.
         21   -1    0    0  501  502 -0.00000000000E+00 -0.00000000000E+00 -0.13170687279E+03  0.13170687279E+03  0.00000000000E+00 0.  1.
         25    1    1    2    0    0 -0.10001826700E+03 -0.13118376196E+02  0.22068095954E+03  0.27294840434E+03  0.12500000000E+03 0.  0.
         25    1    1    2    0    0  0.10001826700E+03  0.13118376196E+02 -0.44476305615E+02  0.16666999517E+03  0.12500000000E+03 0.  0.
</event>
<event>
 4    0  0.2270578E-002  0.2126883E+03  0.7546771E-02  0.1139455E+00
         21   -1    0    0  502  501  0.00000000000E+00  0.00000000000E+00  0.51995246129E+03  0.51995246129E+03  0.00000000000E+00 0. -1.
         21   -1    0    0  501  502 -0.00000000000E+00 -0.00000000000E+00 -0.87000874621E+02  0.87000874621E+02  0.00000000000E+00 0. -1.
         25    1    1    2    0    0  0.12008357578E+02 -0.13040440221E+03  0.57191760259E+02  0.18985627777E+03  0.12500000000E+03 0.  0.
         25    1    1    2    0    0 -0.12008357578E+02  0.13040440221E+03  0.37575982641E+03  0.41709705815E+03  0.12500000000E+03 0.  0.
</event>
<event>
 4    0  0.2270578E-002  0.1896410E+03  0.7546771E-02  0.1158786E+00
         21   -1    0    0  502  501  0.00000000000E+00  0.00000000000E+00  0.34828472415E+02  0.34828472415E+02  0.00000000000E+00 0. -1.
         21   -1    0    0  501  502 -0.00000000000E+00 -0.00000000000E+00 -0.10325949372E+04  0.10325949372E+04  0.00000000000E+00 0. -1.
         25    1    1    2    0    0  0.93016363132E+02 -0.88336194925E+02 -0.32350354025E+03  0.36977678090E+03  0.12500000000E+03 0.  0.
         25    1    1    2    0    0 -0.93016363132E+02  0.88336194925E+02 -0.67426292455E+03  0.69764662872E+03  0.12500000000E+03 0.  0.
</event>
<event>
 4    0  0.2270578E-002  0.2782723E+03  0.7546771E-02  0.1096636E+00
         21   -1    0    0  502  501  0.00000000000E+00  0.00000000000E+00  0.27195167198E+03  0.27195167198E+03  0.00000000000E+00 0.  1.
         21   -1    0    0  501  502 -0.00000000000E+00 -0.00000000000E+00 -0.28473982047E+03  0.28473982047E+03  0.00000000000E+00 0.  1.
         25    1    1    2    0    0 -0.15491171141E+03  0.46020600760E+02  0.18258683049E+03  0.27400453408E+03  0.12500000000E+03 0.  0.
         25    1    1    2    0    0  0.15491171141E+03 -0.46020600760E+02 -0.19537497898E+03  0.28268695838E+03  0.12500000000E+03 0.  0.
</event>
<event>
 4    0  0.2270578E-002  0.2397568E+03  0.7546771E-02  0.1119955E+00
         21   -1    0    0  502  501  0.00000000000E+00  0.00000000000E+00  0.39930397903E+03  0.39930397903E+03  0.00000000000E+00 0. -1.
         21   -1    0    0  501  502 -0.00000000000E+00 -0.00000000000E+00 -0.14395880586E+03  0.14395880586E+03  0.00000000000E+00 0. -1.
         25    1    1    2    0    0  0.15354761155E+03  0.12441101360E+03  0.18765833024E+03  0.29982597991E+03  0.12500000000E+03 0.  0.
         25    1    1    2    0    0 -0.15354761155E+03 -0.12441101360E+03  0.67686842927E+02  0.24343680499E+03  0.12500000000E+03 0.  0.
</event>
<event>
 4    0  0.2270578E-002  0.1805579E+03  0.7546771E-02  0.1167264E+00
         21   -1    0    0  502  501  0.00000000000E+00  0.00000000000E+00  0.42821500543E+03  0.42821500543E+03  0.00000000000E+00 0.  1.
         21   -1    0    0  501  502 -0.00000000000E+00 -0.00000000000E+00 -0.76132676295E+02  0.76132676295E+02  0.00000000000E+00 0.  1.
         25    1    1    2    0    0 -0.28144300929E+02 -0.12644239018E+03  0.15646956629E+03  0.23851101627E+03  0.12500000000E+03 0.  0.
         25    1    1    2    0    0  0.28144300929E+02  0.12644239018E+03  0.19561276285E+03  0.26583666545E+03  0.12500000000E+03 0.  0.
</event>
<event>
 4    0  0.2270578E-002  0.2983943E+03  0.7546771E-02  0.1086046E+00
         21   -1    0    0  502  501  0.00000000000E+00  0.00000000000E+00  0.10538588334E+03  0.10538588334E+03  0.00000000000E+00 0.  1.
         21   -1    0    0  501  502 -0.00000000000E+00 -0.00000000000E+00 -0.84488709526E+03  0.84488709526E+03  0.00000000000E+00 0.  1.
         25    1    1    2    0    0 -0.11431743119E+02 -0.10071946439E+03  0.30357124532E+02  0.16377316712E+03  0.12500000000E+03 0.  0.
         25    1    1    2    0    0  0.11431743119E+02  0.10071946439E+03 -0.76985833645E+03  0.78649981148E+03  0.12500000000E+03 0.  0.
</event>
<event>
 4    0  0.2270578E-002  0.2701270E+03  0.7546771E-02  0.1101207E+00
         21   -1    0    0  502  501  0.00000000000E+00  0.00000000000E+00  0.11636827424E+03  0.11636827424E+03  0.00000000000E+00 0.  1.
         21   -1    0    0  501  502 -0.00000000000E+00 -0.00000000000E+00 -0.62704884206E+03  0.62704884206E+03  0.00000000000E+00 0.  1.
         25    1    1    2    0    0 -0.16652774460E+03 -0.18262928823E+02 -0.19884431690E+02  0.20996527073E+03  0.12500000000E+03 0.  0.
         25    1    1    2    0    0  0.16652774460E+03  0.18262928823E+02 -0.49079613614E+03  0.53345184557E+03  0.12500000000E+03 0.  0.
</event>
<event>
 4    0  0.2270578E-002  0.2393717E+03  0.7546771E-02  0.1120212E+00
         21   -1    0    0  502  501  0.00000000000E+00  0.00000000000E+00  0.12061464725E+04  0.12061464725E+04  0.00000000000E+00 0. -1.
         21   -1    0    0  501  502 -0.00000000000E+00 -0.00000000000E+00 -0.47505696293E+02  0.47505696293E+02  0.00000000000E+00 0. -1.
         25    1    1    2    0    0  0.18888822466E+03  0.94016801610E+00  0.37658051130E+03  0.43945139302E+03  0.12500000000E+03 0.  0.
         25    1    1    2    0    0 -0.18888822466E+03 -0.94016801610E+00  0.78206026494E+03  0.81420077581E+03  0.12500000000E+03 0.  0.
</event>
<event>
 4    0  0.2270578E-002  0.1994131E+03  0.7546771E-02  0.1150235E+00
         21   -1    0    0  502  501  0.00000000000E+00  0.00000000000E+00  0.15698554992E+04  0.15698554992E+04  0.00000000000E+00 0. -1.
         21   -1    0    0  501  502 -0.00000000000E+00 -0.00000000000E+00 -0.25330726841E+02  0.25330726841E+02  0.00000000000E+00 0. -1.
         25    1    1    2    0    0  0.55762776071E+02 -0.36654720421E+02  0.13334696617E+04  0.13409770298E+04  0.12500000000E+03 0.  0.
         25    1    1    2    0    0 -0.55762776071E+02  0.36654720421E+02  0.21105511061E+03  0.25420919621E+03  0.12500000000E+03 0.  0.
</event>
<event>
 4    0  0.2270578E-002  0.2671385E+03  0.7546771E-02  0.1102929E+00
         21   -1    0    0  502  501  0.00000000000E+00  0.00000000000E+00  0.96644053572E+03  0.96644053572E+03  0.00000000000E+00 0. -1.
         21   -1    0    0  501  502 -0.00000000000E+00 -0.00000000000E+00 -0.73841067358E+02  0.73841067358E+02  0.00000000000E+00 0. -1.
         25    1    1    2    0    0 -0.82375820402E+01  0.16645272673E+03  0.77189731211E+03  0.79951537099E+03  0.12500000000E+03 0.  0.
         25    1    1    2    0    0  0.82375820402E+01 -0.16645272673E+03  0.12070215625E+03  0.24076623210E+03  0.12500000000E+03 0.  0.
</event>
<event>
 4    0  0.2270578E-002  0.3139084E+03  0.7546771E-02  0.1078488E+00
         21   -1    0    0  502  501  0.00000000000E+00  0.00000000000E+00  0.95507235083E+02  0.95507235083E+02  0.00000000000E+00 0.  1.
         21   -1    0    0  501  502 -0.00000000000E+00 -0.00000000000E+00 -0.10317380894E+04  0.10317380894E+04  0.00000000000E+00 0.  1.
         25    1    1    2    0    0  0.26794286632E+03 -0.13098729225E+01 -0.65743951954E+03  0.72086532531E+03  0.12500000000E+03 0.  0.
         25    1    1    2    0    0 -0.26794286632E+03  0.13098729225E+01 -0.27879133474E+03  0.40637999914E+03  0.12500000000E+03 0.  0.
</event>
<event>
 4    0  0.2270578E-002  0.2859841E+03  0.7546771E-02  0.1092465E+00
         21   -1    0    0  502  501  0.00000000000E+00  0.00000000000E+00  0.62832899506E+02  0.62832899506E+02  0.00000000000E+00 0. -1.
         21   -1    0    0  501  502 -0.00000000000E+00 -0.00000000000E+00 -0.13016572256E+04  0.13016572256E+04  0.00000000000E+00 0. -1.
         25    1    1    2    0    0 -0.21512500138E+03 -0.59005088117E+02 -0.92493292507E+03  0.95962820015E+03  0.12500000000E+03 0.  0.
         25    1    1    2    0    0  0.21512500138E+03  0.59005088117E+02 -0.31389140102E+03  0.40486192495E+03  0.12500000000E+03 0.  0.
</event>
<event>
 4    0  0.2270578E-002  0.1634756E+03  0.7546771E-02  0.1184828E+00
         21   -1    0    0  502  501  0.00000000000E+00  0.00000000000E+00  0.19271942810E+02  0.19271942810E+02  0.00000000000E+00 0. -1.
         21   -1    0    0  501  502 -0.00000000000E+00 -0.00000000000E+00 -0.13866939601E+04  0.13866939601E+04  0.00000000000E+00 0. -1.
         25    1    1    2    0    0  0.26398886907E+02  0.48886411934E+02 -0.10686357854E+04  0.10773551987E+04  0.12500000000E+03 0.  0.
         25    1    1    2    0    0 -0.26398886907E+02 -0.48886411934E+02 -0.29878623190E+03  0.32861070414E+03  0.12500000000E+03 0.  0.
</event>
<event>
 4    0  0.2270578E-002  0.2932664E+03  0.7546771E-02  0.1088656E+00
         21   -1    0    0  502  501  0.00000000000E+00  0.00000000000E+00  0.48018603705E+03  0.48018603705E+03  0.00000000000E+00 0. -1.
         21   -1    0    0  501  502 -0.00000000000E+00 -0.00000000000E+00 -0.17910803761E+03  0.17910803761E+03  0.00000000000E+00 0. -1.
         25    1    1    2    0    0  0.12372020967E+03 -0.92289589668E+02  0.39307447187E+03  0.44040503980E+03  0.12500000000E+03 0.  0.
         25    1    1    2    0    0 -0.12372020967E+03  0.92289589668E+02 -0.91996472430E+02  0.21888903486E+03  0.12500000000E+03 0.  0.
</event>
<event>
 4    0  0.2270578E-002  0.1822360E+03  0.7546771E-02  0.1165656E+00
         21   -1    0    0  502  501  0.00000000000E+00  0.00000000000E+00  0.12016872788E+03  0.12016872788E+03  0.00000000000E+00 0. -1.
         21   -1    0    0  501  502 -0.00000000000E+00 -0.00000000000E+00 -0.27636106434E+03  0.27636106434E+03  0.00000000000E+00 0. -1.
         25    1    1    2    0    0  0.10443822628E+03  0.26488944121E+02 -0.16219987823E+03  0.23139318868E+03  0.12500000000E+03 0.  0.
         25    1    1    2    0    0 -0.10443822628E+03 -0.26488944121E+02  0.60075417765E+01  0.16513660354E+03  0.12500000000E+03 0.  0.
</event>
<event>
 4    0  0.2270578E-002  0.1774653E+03  0.7546771E-02  0.1170279E+00
         21   -1    0    0  502  501  0.00000000000E+00  0.00000000000E+00  0.76277764467E+02  0.76277764467E+02  0.00000000000E+00 0.  1.
         21   -1    0    0  501  502 -0.00000000000E+00 -0.00000000000E+00 -0.41288496047E+03  0.41288496047E+03  0.00000000000E+00 0.  1.
         25    1    1    2    0    0 -0.24101465236E+02  0.73359650668E+02 -0.30547648513E+03  0.33897404317E+03  0.12500000000E+03 0.  0.
         25    1    1    2    0    0  0.24101465236E+02 -0.73359650668E+02 -0.31130710872E+02  0.15018868177E+03  0.12500000000E+03 0.  0.
</event>
<event>
 4    0  0.2270578E-002  0.2465079E+03  0.7546771E-02  0.1115532E+00
         21   -1    0    0  502  501  0.00000000000E+00  0.00000000000E+00  0.41060652065E+03  0.41060652065E+03  0.00000000000E+00 0.  1.
         21   -1    0    0  501  502 -0.00000000000E+00 -0.00000000000E+00 -0.14799123335E+03  0.14799123335E+03  0.00000000000E+00 0.  1.
         25    1    1    2    0    0 -0.84414420300E+01 -0.20991960685E+03  0.16720255683E+03  0.29617426339E+03  0.12500000000E+03 0.  0.
         25    1    1    2    0    0  0.84414420300E+01  0.20991960685E+03  0.95412730476E+02  0.26242349061E+03  0.12500000000E+03 0.  0.
</event>
<event>
 4    0  0.2270578E-002  0.2169487E+03  0.7546771E-02  0.1136179E+00
         21   -1    0    0  502  501  0.00000000000E+00  0.00000000000E+00  0.19373461199E+03  0.19373461199E+03  0.00000000000E+00 0. -1.
         21   -1    0    0  501  502 -0.00000000000E+00 -0.00000000000E+00 -0.24294435140E+03  0.24294435140E+03  0.00000000000E+00 0. -1.
         25    1    1    2    0    0  0.49747609304E+02 -0.16862296125E+03 -0.13656719247E+01  0.21572063590E+03  0.12500000000E+03 0.  0.
         25    1    1    2    0    0 -0.49747609304E+02  0.16862296125E+03 -0.47844067488E+02  0.22095832749E+03  0.12500000000E+03 0.  0.
</event>
<event>
 4    0  0.2270578E-002  0.1911927E+03  0.7546771E-02  0.1157390E+00
         21   -1    0    0  502  501  0.00000000000E+00  0.00000000000E+00  0.10230360414E+03  0.10230360414E+03  0.00000000000E+00 0.  1.
         21   -1    0    0  501  502 -0.00000000000E+00 -0.00000000000E+00 -0.35731549529E+03  0.35731549529E+03  0.00000000000E+00 0.  1.
         25    1    1    2    0    0 -0.14133995497E+03 -0.33071781828E+01 -0.16439205138E+03  0.25027518225E+03  0.12500000000E+03 0.  0.
         25    1    1    2    0    0  0.14133995497E+03  0.33071781828E+01 -0.90619839780E+02  0.20934391718E+03  0.12500000000E+03 0.  0.
</event>
<event>
 4    0  0.2270578E-002  0.1803502E+03  0.7546771E-02  0.1167465E+00
         21   -1    0    0  502  501  0.00000000000E+00  0.00000000000E+00  0.13305343457E+03  0.13305343457E+03  0.00000000000E+00 0.  1.
         21   -1    0    0  501  502 -0.00000000000E+00 -0.00000000000E+00 -0.24445955780E+03  0.24445955780E+03  0.00000000000E+00 0.  1.
         25    1    1    2    0    0 -0.48895560787E+02  0.68980103723E+02  0.47652918331E+02  0.15825558821E+03  0.12500000000E+03 0.  0.
         25    1    1    2    0    0  0.48895560787E+02 -0.68980103723E+02 -0.15905904157E+03  0.21925740416E+03  0.12500000000E+03 0.  0.
</event>
<event>
 4    0  0.2270578E-002  0.2213489E+03  0.7546771E-02  0.1132881E+00
         21   -1    0    0  502  501  0.00000000000E+00  0.00000000000E+00  0.80355004532E+03  0.80355004532E+03  0.00000000000E+00 0.  1.
         21   -1    0    0  501  502 -0.00000000000E+00 -0.00000000000E+00 -0.60973571088E+02  0.60973571088E+02  0.00000000000E+00 0.  1.
         25    1    1    2    0    0  0.11883181127E+03  0.78391969606E+02  0.14773972434E+03  0.24024638690E+03  0.12500000000E+03 0.  0.
         25    1    1    2    0    0 -0.11883181127E+03 -0.78391969606E+02  0.59483674989E+03  0.62427722951E+03  0.12500000000E+03 0.  0.
</event>
<event>
 4    0  0.2270578E-002  0.2506191E+03  0.7546771E-02  0.1112914E+00
         21   -1    0    0  502  501  0.00000000000E+00  0.00000000000E+00  0.37801192888E+03  0.37801192888E+03  0.00000000000E+00 0.  1.
         21   -1    0    0  501  502 -0.00000000000E+00 -0.00000000000E+00 -0.16615859509E+03  0.16615859509E+03  0.00000000000E+00 0.  1.
         25    1    1    2    0    0 -0.16677267163E+03  0.97984464908E+02  0.21324083663E+03  0.31386419638E+03  0.12500000000E+03 0.  0.
         25    1    1    2    0    0  0.16677267163E+03 -0.97984464908E+02 -0.13875028428E+01  0.23030632759E+03  0.12500000000E+03 0.  0.
</event>
<event>
 4    0  0.2270578E-002  0.1876258E+03  0.7546771E-02  0.1160620E+00
         21   -1    0    0  502  501  0.00000000000E+00  0.00000000000E+00  0.71099077468E+03  0.71099077468E+03  0.00000000000E+00 0. -1.
         21   -1    0    0  501  502 -0.00000000000E+00 -0.00000000000E+00 -0.49513195999E+02  0.49513195999E+02  0.00000000000E+00 0. -1.
         25    1    1    2    0    0 -0.45107376370E+02  0.76773171673E+02  0.54948226010E+03  0.57051253225E+03  0.12500000000E+03 0.  0.
         25    1    1    2    0    0  0.45107376370E+02 -0.76773171673E+02  0.11199531858E+03  0.18999143843E+03  0.12500000000E+03 0.  0.
</event>
<event>
 4    0  0.2270578E-002  0.3366837E+03  0.7546771E-02  0.1068217E+00
         21   -1    0    0  502  501  0.00000000000E+00  0.00000000000E+00  0.11840260627E+03  0.11840260627E+03  0.00000000000E+00 0.  1.
         21   -1    0    0  501  502 -0.00000000000E+00 -0.00000000000E+00 -0.95737692287E+03  0.95737692287E+03  0.00000000000E+00 0.  1.
         25    1    1    2    0    0 -0.36810075889E+02 -0.78962918082E+02  0.60171041043E+02  0.16381598914E+03  0.12500000000E+03 0.  0.
         25    1    1    2    0    0  0.36810075889E+02  0.78962918082E+02 -0.89914535764E+03  0.91196353999E+03  0.12500000000E+03 0.  0.
</event>
<event>
 4    0  0.2270578E-002  0.1697406E+03  0.7546771E-02  0.1178119E+00
         21   -1    0    0  502  501  0.00000000000E+00  0.00000000000E+00  0.15504590091E+03  0.15504590091E+03  0.00000000000E+00 0. -1.
         21   -1    0    0  501  502 -0.00000000000E+00 -0.00000000000E+00 -0.18582794249E+03  0.18582794249E+03  0.00000000000E+00 0. -1.
         25    1    1    2    0    0 -0.10336258305E+03  0.21433838333E+02  0.30000938017E+02  0.16633787687E+03  0.12500000000E+03 0.  0.
         25    1    1    2    0    0  0.10336258305E+03 -0.21433838333E+02 -0.60782979597E+02  0.17453596652E+03  0.12500000000E+03 0.  0.
</event>
<event>
 4    0  0.2270578E-002  0.1857150E+03  0.7546771E-02  0.1162384E+00
         21   -1    0    0  502  501  0.00000000000E+00  0.00000000000E+00  0.46722576184E+02  0.46722576184E+02  0.00000000000E+00 0. -1.
         21   -1    0    0  501  502 -0.00000000000E+00 -0.00000000000E+00 -0.73818818972E+03  0.73818818972E+03  0.00000000000E+00 0. -1.
         25    1    1    2    0    0  0.85168083364E+02  0.10548582426E+03 -0.39223274035E+03  0.43341940906E+03  0.12500000000E+03 0.  0.
         25    1    1    2    0    0 -0.85168083364E+02 -0.10548582426E+03 -0.29923287319E+03  0.35149135685E+03  0.12500000000E+03 0.  0.
</event>
<event>
 4    0  0.2270578E-002  0.1901824E+03  0.7546771E-02  0.1158297E+00
         21   -1    0    0  502  501  0.00000000000E+00  0.00000000000E+00  0.26090413433E+03  0.26090413433E+03  0.00000000000E+00 0. -1.
         21   -1    0    0  501  502 -0.00000000000E+00 -0.00000000000E+00 -0.13863073344E+03  0.13863073344E+03  0.00000000000E+00 0. -1.
         25    1    1    2    0    0  0.11897975372E+03 -0.79781318145E+02  0.66184192352E+02  0.20131216515E+03  0.12500000000E+03 0.  0.
         25    1    1    2    0    0 -0.11897975372E+03  0.79781318145E+02  0.56089208538E+02  0.19822270262E+03  0.12500000000E+03 0.  0.
</event>
<event>
 4    0  0.2270578E-002  0.1829583E+03  0.7546771E-02  0.1164970E+00
         21   -1    0    0  502  501  0.00000000000E+00  0.00000000000E+00  0.18610286707E+03  0.18610286707E+03  0.00000000000E+00 0. -1.
         21   -1    0    0  501  502 -0.00000000000E+00 -0.00000000000E+00 -0.17986684568E+03  0.17986684568E+03  0.00000000000E+00 0. -1.
         25    1    1    2    0    0 -0.21774226622E+02 -0.11715285181E+03 -0.57304568547E+02  0.18195527255E+03  0.12500000000E+03 0.  0.
         25    1    1    2    0    0  0.21774226622E+02  0.11715285181E+03  0.63540589943E+02  0.18401444020E+03  0.12500000000E+03 0.  0.
</event>
<event>
 4    0  0.2270578E-002  0.2135655E+03  0.7546771E-02  0.1138773E+00
         21   -1    0    0  502  501  0.00000000000E+00  0.00000000000E+00  0.64595247237E+03  0.64595247237E+03  0.00000000000E+00 0.  1.
         21   -1    0    0  501  502 -0.00000000000E+00 -0.00000000000E+00 -0.70609258377E+02  0.70609258377E+02  0.00000000000E+00 0.  1.
         25    1    1    2    0    0  0.12947572264E+03 -0.69101615862E+02  0.13349306587E+03  0.23448751502E+03  0.12500000000E+03 0.  0.
         25    1    1    2    0    0 -0.12947572264E+03  0.69101615862E+02  0.44185014812E+03  0.48207421572E+03  0.12500000000E+03 0.  0.
</event>
<event>
 4    0  0.2270578E-002  0.3277465E+03  0.7546771E-02  0.1072138E+00
         21   -1    0    0  502  501  0.00000000000E+00  0.00000000000E+00  0.26291379676E+03  0.26291379676E+03  0.00000000000E+00 0.  1.
         21   -1    0    0  501  502 -0.00000000000E+00 -0.00000000000E+00 -0.40856650759E+03  0.40856650759E+03  0.00000000000E+00 0.  1.
         25    1    1    2    0    0  0.10538801201E+03  0.28091767975E+03 -0.29711887901E+02  0.32638806987E+03  0.12500000000E+03 0.  0.
         25    1    1    2    0    0 -0.10538801201E+03 -0.28091767975E+03 -0.11594082293E+03  0.34509223447E+03  0.12500000000E+03 0.  0.
</event>
<event>
 4    0  0.2270578E-002  0.1994703E+03  0.7546771E-02  0.1150187E+00
         21   -1    0    0  502  501  0.00000000000E+00  0.00000000000E+00  0.60015327179E+02  0.60015327179E+02  0.00000000000E+00 0.  1.
         21   -1    0    0  501  502 -0.00000000000E+00 -0.00000000000E+00 -0.66297089066E+03  0.66297089066E+03  0.00000000000E+00 0.  1.
         25    1    1    2    0    0  0.56206936496E+02 -0.13379472992E+01 -0.56411496940E+03  0.58052709541E+03  0.12500000000E+03 0.  0.
         25    1    1    2    0    0 -0.56206936496E+02  0.13379472992E+01 -0.38840594087E+02  0.14245912243E+03  0.12500000000E+03 0.  0.
</event>
<event>
 4    0  0.2270578E-002  0.2325276E+03  0.7546771E-02  0.1124873E+00
         21   -1    0    0  502  501  0.00000000000E+00  0.00000000000E+00  0.68078731440E+02  0.68078731440E+02  0.00000000000E+00 0. -1.
         21   -1    0    0  501  502 -0.00000000000E+00 -0.00000000000E+00 -0.79421387182E+03  0.79421387182E+03  0.00000000000E+00 0. -1.
         25    1    1    2    0    0 -0.15015501811E+03 -0.12606383354E+03 -0.35873765166E+03  0.42750008457E+03  0.12500000000E+03 0.  0.
         25    1    1    2    0    0  0.15015501811E+03  0.12606383354E+03 -0.36739748872E+03  0.43479251869E+03  0.12500000000E+03 0.  0.
</event>
<event>
 4    0  0.2270578E-002  0.2288963E+03  0.7546771E-02  0.1127419E+00
         21   -1    0    0  502  501  0.00000000000E+00  0.00000000000E+00  0.11210605322E+03  0.11210605322E+03  0.00000000000E+00 0. -1.
         21   -1    0    0  501  502 -0.00000000000E+00 -0.00000000000E+00 -0.46735656246E+03  0.46735656246E+03  0.00000000000E+00 0. -1.
         25    1    1    2    0    0 -0.14622176935E+03 -0.42881634453E+02 -0.32496098772E+03  0.38005826388E+03  0.12500000000E+03 0.  0.
         25    1    1    2    0    0  0.14622176935E+03  0.42881634453E+02 -0.30289521516E+02  0.19940435180E+03  0.12500000000E+03 0.  0.
</event>
<event>
 4    0  0.2270578E-002  0.1896085E+03  0.7546771E-02  0.1158815E+00
         21   -1    0    0  502  501  0.00000000000E+00  0.00000000000E+00  0.94054768283E+02  0.94054768283E+02  0.00000000000E+00 0.  1.
         21   -1    0    0  501  502 -0.00000000000E+00 -0.00000000000E+00 -0.38223892141E+03  0.38223892141E+03  0.00000000000E+00 0.  1.
         25    1    1    2    0    0  0.74600867174E+02  0.23807030870E+02 -0.29373094123E+03  0.32868667442E+03  0.12500000000E+03 0.  0.
         25    1    1    2    0    0 -0.74600867174E+02 -0.23807030870E+02  0.55467881001E+01  0.14760701528E+03  0.12500000000E+03 0.  0.
</event>
<event>
 4    0  0.2270578E-002  0.2903994E+03  0.7546771E-02  0.1090141E+00
         21   -1    0    0  502  501  0.00000000000E+00  0.00000000000E+00  0.14539560362E+03  0.14539560362E+03  0.00000000000E+00 0.  1.
         21   -1    0    0  501  502 -0.00000000000E+00 -0.00000000000E+00 -0.58001606189E+03  0.58001606189E+03  0.00000000000E+00 0.  1.
         25    1    1    2    0    0 -0.30905410365E+02 -0.25042672152E+03 -0.30596297785E+03  0.41582091224E+03  0.12500000000E+03 0.  0.
         25    1    1    2    0    0  0.30905410365E+02  0.25042672152E+03 -0.12865748043E+03  0.30959075327E+03  0.12500000000E+03 0.  0.
</event>
<event>
 4    0  0.2270578E-002  0.2217052E+03  0.7546771E-02  0.1132618E+00
         21   -1    0    0  502  501  0.00000000000E+00  0.00000000000E+00  0.84182186046E+02  0.84182186046E+02  0.00000000000E+00 0.  1.
         21   -1    0    0  501  502 -0.00000000000E+00 -0.00000000000E+00 -0.58389089758E+03  0.58389089758E+03  0.00000000000E+00 0.  1.
         25    1    1    2    0    0 -0.98965772636E+02 -0.91716776559E+02 -0.63355551295E+02  0.19453821510E+03  0.12500000000E+03 0.  0.
         25    1    1    2    0    0  0.98965772636E+02  0.91716776559E+02 -0.43635316024E+03  0.47353486852E+03  0.12500000000E+03 0.  0.
</event>
<event>
 4    0  0.2270578E-002  0.2508888E+03  0.7546771E-02  0.1112744E+00
         21   -1    0    0  502  501  0.00000000000E+00  0.00000000000E+00  0.75013083392E+02  0.75013083392E+02  0.00000000000E+00 0. -1.
         21   -1    0    0  501  502 -0.00000000000E+00 -0.00000000000E+00 -0.83912259910E+03  0.83912259910E+03  0.00000000000E+00 0. -1.
         25    1    1    2    0    0 -0.38656962806E+02 -0.87021715984E+02 -0.25741165452E+02  0.15923174126E+03  0.12500000000E+03 0.  0.
         25    1    1    2    0    0  0.38656962806E+02  0.87021715984E+02 -0.73836835026E+03  0.75490394123E+03  0.12500000000E+03 0.  0.
</event>
<event>
 4    0  0.2270578E-002  0.1603549E+03  0.7546771E-02  0.1188297E+00
         21   -1    0    0  502  501  0.00000000000E+00  0.00000000000E+00  0.16914149883E+04  0.16914149883E+04  0.00000000000E+00 0.  1.
         21   -1    0    0  501  502 -0.00000000000E+00 -0.00000000000E+00 -0.15202467112E+02  0.15202467112E+02  0.00000000000E+00 0.  1.
         25    1    1    2    0    0  0.90913819231E+02 -0.76644143080E+01  0.10616430670E+04  0.10728630236E+04  0.12500000000E+03 0.  0.
         25    1    1    2    0    0 -0.90913819231E+02  0.76644143080E+01  0.61456945413E+03  0.63375443172E+03  0.12500000000E+03 0.  0.
</event>
<event>
 4    0  0.2270578E-002  0.2426157E+03  0.7546771E-02  0.1118062E+00
         21   -1    0    0  502  501  0.00000000000E+00  0.00000000000E+00  0.67870878694E+03  0.67870878694E+03  0.00000000000E+00 0.  1.
         21   -1    0    0  501  502 -0.00000000000E+00 -0.00000000000E+00 -0.86726998045E+02  0.86726998045E+02  0.00000000000E+00 0.  1.
         25    1    1    2    0    0 -0.15209231124E+03 -0.14176141205E+03  0.29125677514E+03  0.37905656326E+03  0.12500000000E+03 0.  0.
         25    1    1    2    0    0  0.15209231124E+03  0.14176141205E+03  0.30072501375E+03  0.38637922172E+03  0.12500000000E+03 0.  0.
</event>
<event>
 4    0  0.2270578E-002  0.3068611E+03  0.7546771E-02  0.1081860E+00
         21   -1    0    0  502  501  0.00000000000E+00  0.00000000000E+00  0.66234791299E+02  0.66234791299E+02  0.00000000000E+00 0. -1.
         21   -1    0    0  501  502 -0.00000000000E+00 -0.00000000000E+00 -0.14216653408E+04  0.14216653408E+04  0.00000000000E+00 0. -1.
         25    1    1    2    0    0 -0.54006581879E+02 -0.27499214839E+03 -0.67493558757E+03  0.74141785784E+03  0.12500000000E+03 0.  0.
         25    1    1    2    0    0  0.54006581879E+02  0.27499214839E+03 -0.68049496188E+03  0.74648227421E+03  0.12500000000E+03 0.  0.
</event>
<event>
 4    0  0.2270578E-002  0.1913448E+03  0.7546771E-02  0.1157254E+00
         21   -1    0    0  502  501  0.00000000000E+00  0.00000000000E+00  0.37306804451E+02  0.37306804451E+02  0.00000000000E+00 0. -1.
         21   -1    0    0  501  502 -0.00000000000E+00 -0.00000000000E+00 -0.98139794990E+03  0.98139794990E+03  0.00000000000E+00 0. -1.
         25    1    1    2    0    0  0.24914604631E+01  0.45083185167E+02 -0.10561114785E+03  0.16975693067E+03  0.12500000000E+03 0.  0.
         25    1    1    2    0    0 -0.24914604631E+01 -0.45083185167E+02 -0.83847999760E+03  0.84894782368E+03  0.12500000000E+03 0.  0.
</event>
<event>
 4    0  0.2270578E-002  0.2092420E+03  0.7546771E-02  0.1142168E+00
         21   -1    0    0  502  501  0.00000000000E+00  0.00000000000E+00  0.25559987846E+02  0.25559987846E+02  0.00000000000E+00 0.  1.
         21   -1    0    0  501  502 -0.00000000000E+00 -0.00000000000E+00 -0.17129194028E+04  0.17129194028E+04  0.00000000000E+00 0.  1.
         25    1    1    2    0    0 -0.15460071781E+03  0.35315806618E+02 -0.10715426926E+04  0.10904023708E+04  0.12500000000E+03 0.  0.
         25    1    1    2    0    0  0.15460071781E+03 -0.35315806618E+02 -0.61581672232E+03  0.64807701983E+03  0.12500000000E+03 0.  0.
</event>
<event>
 4    0  0.2270578E-002  0.2266212E+03  0.7546771E-02  0.1129041E+00
         21   -1    0    0  502  501  0.00000000000E+00  0.00000000000E+00  0.77268808423E+02  0.77268808423E+02  0.00000000000E+00 0.  1.
         21   -1    0    0  501  502 -0.00000000000E+00 -0.00000000000E+00 -0.66465598167E+03  0.66465598167E+03  0.00000000000E+00 0.  1.
         25    1    1    2    0    0 -0.70804480393E+01 -0.33319173353E+02 -0.59805584066E+03  0.61192817275E+03  0.12500000000E+03 0.  0.
         25    1    1    2    0    0  0.70804480393E+01  0.33319173353E+02  0.10668667409E+02  0.12999661735E+03  0.12500000000E+03 0.  0.
</event>
<event>
 4    0  0.2270578E-002  0.1777266E+03  0.7546771E-02  0.1170022E+00
         21   -1    0    0  502  501  0.00000000000E+00  0.00000000000E+00  0.41463578372E+03  0.41463578372E+03  0.00000000000E+00 0.  1.
         21   -1    0    0  501  502 -0.00000000000E+00 -0.00000000000E+00 -0.76179460838E+02  0.76179460838E+02  0.00000000000E+00 0.  1.
         25    1    1    2    0    0 -0.10364092338E+03  0.53550623869E+02  0.23620299070E+03  0.29159211774E+03  0.12500000000E+03 0.  0.
         25    1    1    2    0    0  0.10364092338E+03 -0.53550623869E+02  0.10225333219E+03  0.19922312682E+03  0.12500000000E+03 0.  0.
</event>
<event>
 4    0  0.2270578E-002  0.1937191E+03  0.7546771E-02  0.1155149E+00
         21   -1    0    0  502  501  0.00000000000E+00  0.00000000000E+00  0.33556993460E+03  0.33556993460E+03  0.00000000000E+00 0. -1.
         21   -1    0    0  501  502 -0.00000000000E+00 -0.00000000000E+00 -0.11183089892E+03  0.11183089892E+03  0.00000000000E+00 0. -1.
         25    1    1    2    0    0 -0.56502619107E+01 -0.78334019145E+02  0.25671773553E+03  0.29613702867E+03  0.12500000000E+03 0.  0.
         25    1    1    2    0    0  0.56502619107E+01  0.78334019145E+02 -0.32978699838E+02  0.15126380485E+03  0.12500000000E+03 0.  0.
</event>
<event>
 4    0  0.2270578E-002  0.2075129E+03  0.7546771E-02  0.1143551E+00
         21   -1    0    0  502  501  0.00000000000E+00  0.00000000000E+00  0.38370509196E+03  0.38370509196E+03  0.00000000000E+00 0. -1.
         21   -1    0    0  501  502 -0.00000000000E+00 -0.00000000000E+00 -0.11222579140E+03  0.11222579140E+03  0.00000000000E+00 0. -1.
         25    1    1    2    0    0  0.82074871883E+02 -0.19459411267E+02  0.30608315124E+03  0.34121378746E+03  0.12500000000E+03 0.  0.
         25    1    1    2    0    0 -0.82074871883E+02  0.19459411267E+02 -0.34603850680E+02  0.15471709590E+03  0.12500000000E+03 0.  0.
</event>
<event>
 4    0  0.2270578E-002  0.3095371E+03  0.7546771E-02  0.1080568E+00
         21   -1    0    0  502  501  0.00000000000E+00  0.00000000000E+00  0.43589827748E+03  0.43589827748E+03  0.00000000000E+00 0.  1.
         21   -1    0    0  501  502 -0.00000000000E+00 -0.00000000000E+00 -0.21980641403E+03  0.21980641403E+03  0.00000000000E+00 0.  1.
         25    1    1    2    0    0 -0.12427459273E+03 -0.10845808992E+03  0.35184117456E+03  0.40819669742E+03  0.12500000000E+03 0.  0.
         25    1    1    2    0    0  0.12427459273E+03  0.10845808992E+03 -0.13574931111E+03  0.24750799408E+03  0.12500000000E+03 0.  0.
</event>
<event>
 4    0  0.2270578E-002  0.2306509E+03  0.7546771E-02  0.1126182E+00
         21   -1    0    0  502  501  0.00000000000E+00  0.00000000000E+00  0.10354263941E+03  0.10354263941E+03  0.00000000000E+00 0.  1.
         21   -1    0    0  501  502 -0.00000000000E+00 -0.00000000000E+00 -0.51379659459E+03  0.51379659459E+03  0.00000000000E+00 0.  1.
         25    1    1    2    0    0  0.11333413273E+03  0.14163305610E+03 -0.29658280550E+03  0.36944676036E+03  0.12500000000E+03 0.  0.
         25    1    1    2    0    0 -0.11333413273E+03 -0.14163305610E+03 -0.11367114969E+03  0.24789247365E+03  0.12500000000E+03 0.  0.
</event>
<event>
 4    0  0.2270578E-002  0.1861957E+03  0.7546771E-02  0.1161938E+00
         21   -1    0    0  502  501  0.00000000000E+00  0.00000000000E+00  0.46536362101E+03  0.46536362101E+03  0.00000000000E+00 0. -1.
         21   -1    0    0  501  502 -0.00000000000E+00 -0.00000000000E+00 -0.74498368201E+02  0.74498368201E+02  0.00000000000E+00 0. -1.
         25    1    1    2    0    0  0.45446767374E+02 -0.31440305996E+02  0.12114071158E+02  0.13720660416E+03  0.12500000000E+03 0.  0.
         25    1    1    2    0    0 -0.45446767374E+02  0.31440305996E+02  0.37875118165E+03  0.40265538504E+03  0.12500000000E+03 0.  0.
</event>
<event>
 4    0  0.2270578E-002  0.1669831E+03  0.7546771E-02  0.1181031E+00
         21   -1    0    0  502  501  0.00000000000E+00  0.00000000000E+00  0.66490389046E+03  0.66490389046E+03  0.00000000000E+00 0. -1.
         21   -1    0    0  501  502 -0.00000000000E+00 -0.00000000000E+00 -0.41935925559E+02  0.41935925559E+02  0.00000000000E+00 0. -1.
         25    1    1    2    0    0 -0.24681066295E+02  0.10172600027E+03  0.38782561191E+03  0.42070302996E+03  0.12500000000E+03 0.  0.
         25    1    1    2    0    0  0.24681066295E+02 -0.10172600027E+03  0.23514235299E+03  0.28613678606E+03  0.12500000000E+03 0.  0.
</event>
<event>
 4    0  0.2270578E-002  0.4689563E+03  0.7546771E-02  0.1022215E+00
         21   -1    0    0  502  501  0.00000000000E+00  0.00000000000E+00  0.89004841731E+03  0.89004841731E+03  0.00000000000E+00 0.  1.
         21   -1    0    0  501  502 -0.00000000000E+00 -0.00000000000E+00 -0.24708770283E+03  0.24708770283E+03  0.00000000000E+00 0.  1.
         25    1    1    2    0    0  0.89652333522E+02 -0.37028862503E+03  0.26627911997E+02  0.40185227688E+03  0.12500000000E+03 0.  0.
         25    1    1    2    0    0 -0.89652333522E+02  0.37028862503E+03  0.61633280249E+03  0.73528384326E+03  0.12500000000E+03 0.  0.
</event>
<event>
 4    0  0.2270578E-002  0.2136513E+03  0.7546771E-02  0.1138707E+00
         21   -1    0    0  502  501  0.00000000000E+00  0.00000000000E+00  0.35359199333E+02  0.35359199333E+02  0.00000000000E+00 0. -1.
         21   -1    0    0  501  502 -0.00000000000E+00 -0.00000000000E+00 -0.12909482882E+04  0.12909482882E+04  0.00000000000E+00 0. -1.
         25    1    1    2    0    0 -0.30068690514E+02  0.16682199043E+03 -0.51639089150E+03  0.55769010702E+03  0.12500000000E+03 0.  0.
         25    1    1    2    0    0  0.30068690514E+02 -0.16682199043E+03 -0.73919819739E+03  0.76861738054E+03  0.12500000000E+03 0.  0.
</event>
<event>
 4    0  0.2270578E-002  0.2010219E+03  0.7546771E-02  0.1148880E+00
         21   -1    0    0  502  501  0.00000000000E+00  0.00000000000E+00  0.45867674535E+03  0.45867674535E+03  0.00000000000E+00 0. -1.
         21   -1    0    0  501  502 -0.00000000000E+00 -0.00000000000E+00 -0.88100832285E+02  0.88100832285E+02  0.00000000000E+00 0. -1.
         25    1    1    2    0    0 -0.97860807627E+02 -0.12331976338E+03  0.18603447536E+03  0.27389473842E+03  0.12500000000E+03 0.  0.
         25    1    1    2    0    0  0.97860807627E+02  0.12331976338E+03  0.18454143770E+03  0.27288283922E+03  0.12500000000E+03 0.  0.
</event>
<event>
 4    0  0.2270578E-002  0.3270015E+03  0.7546771E-02  0.1072471E+00
         21   -1    0    0  502  501  0.00000000000E+00  0.00000000000E+00  0.61300924481E+02  0.61300924481E+02  0.00000000000E+00 0. -1.
         21   -1    0    0  501  502 -0.00000000000E+00 -0.00000000000E+00 -0.17443451402E+04  0.17443451402E+04  0.00000000000E+00 0. -1.
         25    1    1    2    0    0  0.78119658543E+02  0.27281551553E+03 -0.11280989245E+04  0.11699415242E+04  0.12500000000E+03 0.  0.
         25    1    1    2    0    0 -0.78119658543E+02 -0.27281551553E+03 -0.55494529126E+03  0.63570454054E+03  0.12500000000E+03 0.  0.
</event>
<event>
 4    0  0.2270578E-002  0.1748012E+03  0.7546771E-02  0.1172931E+00
         21   -1    0    0  502  501  0.00000000000E+00  0.00000000000E+00  0.21881822608E+03  0.21881822608E+03  0.00000000000E+00 0. -1.
         21   -1    0    0  501  502 -0.00000000000E+00 -0.00000000000E+00 -0.13963850960E+03  0.13963850960E+03  0.00000000000E+00 0. -1.
         25    1    1    2    0    0 -0.85278051388E+02  0.87471316109E+02  0.36901668191E+02  0.17863457198E+03  0.12500000000E+03 0.  0.
         25    1    1    2    0    0  0.85278051388E+02 -0.87471316109E+02  0.42278048285E+02  0.17982216370E+03  0.12500000000E+03 0.  0.
</event>
<event>
 4    0  0.2270578E-002  0.2601515E+03  0.7546771E-02  0.1107052E+00
         21   -1    0    0  502  501  0.00000000000E+00  0.00000000000E+00  0.41218628607E+03  0.41218628607E+03  0.00000000000E+00 0.  1.
         21   -1    0    0  501  502 -0.00000000000E+00 -0.00000000000E+00 -0.16419466483E+03  0.16419466483E+03  0.00000000000E+00 0.  1.
         25    1    1    2    0    0 -0.11634578224E+03 -0.12958438708E+03 -0.39285535188E+02  0.21793762340E+03  0.12500000000E+03 0.  0.
         25    1    1    2    0    0  0.11634578224E+03  0.12958438708E+03  0.28727715642E+03  0.35844332749E+03  0.12500000000E+03 0.  0.
</event>
<event>
 4    0  0.2270578E-002  0.2471373E+03  0.7546771E-02  0.1115127E+00
         21   -1    0    0  502  501  0.00000000000E+00  0.00000000000E+00  0.85125659281E+03  0.85125659281E+03  0.00000000000E+00 0. -1.
         21   -1    0    0  501  502 -0.00000000000E+00 -0.00000000000E+00 -0.71749045270E+02  0.71749045270E+02  0.00000000000E+00 0. -1.
         25    1    1    2    0    0  0.18559157862E+03  0.99890452467E+02  0.44967098652E+03  0.51210480633E+03  0.12500000000E+03 0.  0.
         25    1    1    2    0    0 -0.18559157862E+03 -0.99890452467E+02  0.32983656102E+03  0.41090083175E+03  0.12500000000E+03 0.  0.
</event>
<event>
 4    0  0.2270578E-002  0.2789389E+03  0.7546771E-02  0.1096270E+00
         21   -1    0    0  502  501  0.00000000000E+00  0.00000000000E+00  0.10117592835E+04  0.10117592835E+04  0.00000000000E+00 0.  1.
         21   -1    0    0  501  502 -0.00000000000E+00 -0.00000000000E+00 -0.76902598039E+02  0.76902598039E+02  0.00000000000E+00 0.  1.
         25    1    1    2    0    0 -0.13696793562E+03  0.16499879521E+03  0.71578313438E+03  0.75759838521E+03  0.12500000000E+03 0.  0.
         25    1    1    2    0    0  0.13696793562E+03 -0.16499879521E+03  0.21907355104E+03  0.33106349629E+03  0.12500000000E+03 0.  0.
</event>
<event>
 4    0  0.2270578E-002  0.2551358E+03  0.7546771E-02  0.1110101E+00
         21   -1    0    0  502  501  0.00000000000E+00  0.00000000000E+00  0.79493026430E+02  0.79493026430E+02  0.00000000000E+00 0.  1.
         21   -1    0    0  501  502 -0.00000000000E+00 -0.00000000000E+00 -0.81886758872E+03  0.81886758872E+03  0.00000000000E+00 0.  1.
         25    1    1    2    0    0 -0.92234855776E+02  0.15663435116E+03 -0.14403621321E+03  0.26346350658E+03  0.12500000000E+03 0.  0.
         25    1    1    2    0    0  0.92234855776E+02 -0.15663435116E+03 -0.59533834908E+03  0.63489710857E+03  0.12500000000E+03 0.  0.
</event>
<event>
 4    0  0.2270578E-002  0.3415430E+03  0.7546771E-02  0.1066141E+00
         21   -1    0    0  502  501  0.00000000000E+00  0.00000000000E+00  0.19513159618E+03  0.19513159618E+03  0.00000000000E+00 0.  1.
         21   -1    0    0  501  502 -0.00000000000E+00 -0.00000000000E+00 -0.59781007506E+03  0.59781007506E+03  0.00000000000E+00 0.  1.
         25    1    1    2    0    0 -0.22953486947E+03  0.17609757873E+03 -0.35415402359E+03  0.47407455739E+03  0.12500000000E+03 0.  0.
         25    1    1    2    0    0  0.22953486947E+03 -0.17609757873E+03 -0.48524455297E+02  0.31886711385E+03  0.12500000000E+03 0.  0.
</event>
<event>
 4    0  0.2270578E-002  0.2121764E+03  0.7546771E-02  0.1139854E+00
         21   -1    0    0  502  501  0.00000000000E+00  0.00000000000E+00  0.13937235419E+03  0.13937235419E+03  0.00000000000E+00 0.  1.
         21   -1    0    0  501  502 -0.00000000000E+00 -0.00000000000E+00 -0.32301127169E+03  0.32301127169E+03  0.00000000000E+00 0.  1.
         25    1    1    2    0    0  0.41499730219E+02 -0.73040393221E+02  0.71029483698E+02  0.16651520713E+03  0.12500000000E+03 0.  0.
         25    1    1    2    0    0 -0.41499730219E+02  0.73040393221E+02 -0.25466840120E+03  0.29586841876E+03  0.12500000000E+03 0.  0.
</event>
<event>
 4    0  0.2270578E-002  0.1936794E+03  0.7546771E-02  0.1155184E+00
         21   -1    0    0  502  501  0.00000000000E+00  0.00000000000E+00  0.41947476434E+02  0.41947476434E+02  0.00000000000E+00 0. -1.
         21   -1    0    0  501  502 -0.00000000000E+00 -0.00000000000E+00 -0.89425387493E+03  0.89425387493E+03  0.00000000000E+00 0. -1.
         25    1    1    2    0    0  0.20205728368E+02  0.60541014550E+02 -0.74872544371E+03  0.76176654952E+03  0.12500000000E+03 0.  0.
         25    1    1    2    0    0 -0.20205728368E+02 -0.60541014550E+02 -0.10358095479E+03  0.17443480185E+03  0.12500000000E+03 0.  0.
</event>
<event>
 4    0  0.2270578E-002  0.1842335E+03  0.7546771E-02  0.1163768E+00
         21   -1    0    0  502  501  0.00000000000E+00  0.00000000000E+00  0.86351037776E+02  0.86351037776E+02  0.00000000000E+00 0.  1.
         21   -1    0    0  501  502 -0.00000000000E+00 -0.00000000000E+00 -0.39306957444E+03  0.39306957444E+03  0.00000000000E+00 0.  1.
         25    1    1    2    0    0 -0.12065558879E+03 -0.26741388457E+01 -0.73660401497E+02  0.18872142664E+03  0.12500000000E+03 0.  0.
         25    1    1    2    0    0  0.12065558879E+03  0.26741388457E+01 -0.23305813517E+03  0.29069918558E+03  0.12500000000E+03 0.  0.
</event>
<event>
 4    0  0.2270578E-002  0.2424771E+03  0.7546771E-02  0.1118154E+00
         21   -1    0    0  502  501  0.00000000000E+00  0.00000000000E+00  0.46814945959E+02  0.46814945959E+02  0.00000000000E+00 0.  1.
         21   -1    0    0  501  502 -0.00000000000E+00 -0.00000000000E+00 -0.12559056849E+04  0.12559056849E+04  0.00000000000E+00 0.  1.
         25    1    1    2    0    0 -0.17888544486E+03 -0.98900154144E+02 -0.70465784050E+03  0.74427744494E+03  0.12500000000E+03 0.  0.
         25    1    1    2    0    0  0.17888544486E+03  0.98900154144E+02 -0.50443289847E+03  0.55844318595E+03  0.12500000000E+03 0.  0.
</event>
<event>
 4    0  0.2270578E-002  0.2305313E+03  0.7546771E-02  0.1126266E+00
         21   -1    0    0  502  501  0.00000000000E+00  0.00000000000E+00  0.38163584669E+03  0.38163584669E+03  0.00000000000E+00 0. -1.
         21   -1    0    0  501  502 -0.00000000000E+00 -0.00000000000E+00 -0.13925489746E+03  0.13925489746E+03  0.00000000000E+00 0. -1.
         25    1    1    2    0    0  0.10685938388E+03 -0.14131454966E+03  0.20965110576E+03  0.30160788454E+03  0.12500000000E+03 0.  0.
         25    1    1    2    0    0 -0.10685938388E+03  0.14131454966E+03  0.32729843472E+02  0.21928285962E+03  0.12500000000E+03 0.  0.
</event>
<event>
 4    0  0.2270578E-002  0.2216602E+03  0.7546771E-02  0.1132651E+00
         21   -1    0    0  502  501  0.00000000000E+00  0.00000000000E+00  0.19067774405E+03  0.19067774405E+03  0.00000000000E+00 0.  1.
         21   -1    0    0  501  502 -0.00000000000E+00 -0.00000000000E+00 -0.25767683449E+03  0.25767683449E+03  0.00000000000E+00 0.  1.
         25    1    1    2    0    0  0.25545800581E+02 -0.13197659597E+03  0.92160443703E+02  0.20539950632E+03  0.12500000000E+03 0.  0.
         25    1    1    2    0    0 -0.25545800581E+02  0.13197659597E+03 -0.15915953415E+03  0.24295507223E+03  0.12500000000E+03 0.  0.
</event>
<event>
 4    0  0.2270578E-002  0.3411720E+03  0.7546771E-02  0.1066298E+00
         21   -1    0    0  502  501  0.00000000000E+00  0.00000000000E+00  0.11410510219E+03  0.11410510219E+03  0.00000000000E+00 0.  1.
         21   -1    0    0  501  502 -0.00000000000E+00 -0.00000000000E+00 -0.10200977410E+04  0.10200977410E+04  0.00000000000E+00 0.  1.
         25    1    1    2    0    0 -0.79656102983E+02  0.29905924222E+03 -0.33555598318E+03  0.47329097070E+03  0.12500000000E+03 0.  0.
         25    1    1    2    0    0  0.79656102983E+02 -0.29905924222E+03 -0.57043665561E+03  0.66091187246E+03  0.12500000000E+03 0.  0.
</event>
<event>
 4    0  0.2270578E-002  0.1949482E+03  0.7546771E-02  0.1154073E+00
         21   -1    0    0  502  501  0.00000000000E+00  0.00000000000E+00  0.85783366427E+02  0.85783366427E+02  0.00000000000E+00 0.  1.
         21   -1    0    0  501  502 -0.00000000000E+00 -0.00000000000E+00 -0.44303212909E+03  0.44303212909E+03  0.00000000000E+00 0.  1.
         25    1    1    2    0    0  0.13983114748E+03 -0.10914776535E+02 -0.10804598924E+03  0.21672752004E+03  0.12500000000E+03 0.  0.
         25    1    1    2    0    0 -0.13983114748E+03  0.10914776535E+02 -0.24920277342E+03  0.31208797547E+03  0.12500000000E+03 0.  0.
</event>
<event>
 4    0  0.2270578E-002  0.2242600E+03  0.7546771E-02  0.1130746E+00
         21   -1    0    0  502  501  0.00000000000E+00  0.00000000000E+00  0.34422470867E+02  0.34422470867E+02  0.00000000000E+00 0.  1.
         21   -1    0    0  501  502 -0.00000000000E+00 -0.00000000000E+00 -0.14610378380E+04  0.14610378380E+04  0.00000000000E+00 0.  1.
         25    1    1    2    0    0  0.12195991846E+03 -0.11948902137E+03 -0.46568361775E+03  0.51150569868E+03  0.12500000000E+03 0.  0.
         25    1    1    2    0    0 -0.12195991846E+03  0.11948902137E+03 -0.96093174943E+03  0.98395461024E+03  0.12500000000E+03 0.  0.
</event>
<event>
 4    0  0.2270578E-002  0.3045559E+03  0.7546771E-02  0.1082985E+00
         21   -1    0    0  502  501  0.00000000000E+00  0.00000000000E+00  0.13993162431E+03  0.13993162431E+03  0.00000000000E+00 0.  1.
         21   -1    0    0  501  502 -0.00000000000E+00 -0.00000000000E+00 -0.66285458135E+03  0.66285458135E+03  0.00000000000E+00 0.  1.
         25    1    1    2    0    0  0.76459013478E+02 -0.66674187276E+02  0.79271526405E+02  0.17944470705E+03  0.12500000000E+03 0.  0.
         25    1    1    2    0    0 -0.76459013478E+02  0.66674187276E+02 -0.60219448345E+03  0.62334149861E+03  0.12500000000E+03 0.  0.
</event>
<event>
 4    0  0.2270578E-002  0.1880101E+03  0.7546771E-02  0.1160268E+00
         21   -1    0    0  502  501  0.00000000000E+00  0.00000000000E+00  0.47645164395E+03  0.47645164395E+03  0.00000000000E+00 0.  1.
         21   -1    0    0  501  502 -0.00000000000E+00 -0.00000000000E+00 -0.74189668399E+02  0.74189668399E+02  0.00000000000E+00 0.  1.
         25    1    1    2    0    0  0.90688152109E+01 -0.13817727971E+03  0.23539858155E+03  0.30035428453E+03  0.12500000000E+03 0.  0.
         25    1    1    2    0    0 -0.90688152109E+01  0.13817727971E+03  0.16686339400E+03  0.25028702782E+03  0.12500000000E+03 0.  0.
</event>
<event>
 4    0  0.2270578E-002  0.2318564E+03  0.7546771E-02  0.1125340E+00
         21   -1    0    0  502  501  0.00000000000E+00  0.00000000000E+00  0.30806340235E+03  0.30806340235E+03  0.00000000000E+00 0. -1.
         21   -1    0    0  501  502 -0.00000000000E+00 -0.00000000000E+00 -0.17450108472E+03  0.17450108472E+03  0.00000000000E+00 0. -1.
         25    1    1    2    0    0 -0.53174843286E+02 -0.17659716453E+03  0.13356385302E+03  0.25976609731E+03  0.12500000000E+03 0.  0.
         25    1    1    2    0    0  0.53174843286E+02  0.17659716453E+03 -0.15353981078E-02  0.22279838976E+03  0.12500000000E+03 0.  0.
</event>
<event>
 4    0  0.2270578E-002  0.2273860E+03  0.7546771E-02  0.1128493E+00
         21   -1    0    0  502  501  0.00000000000E+00  0.00000000000E+00  0.62668468422E+03  0.62668468422E+03  0.00000000000E+00 0.  1.
         21   -1    0    0  501  502 -0.00000000000E+00 -0.00000000000E+00 -0.82504608923E+02  0.82504608923E+02  0.00000000000E+00 0.  1.
         25    1    1    2    0    0 -0.75472670181E+02 -0.17387137920E+03  0.25286433419E+03  0.33984224568E+03  0.12500000000E+03 0.  0.
         25    1    1    2    0    0  0.75472670181E+02  0.17387137920E+03  0.29131574111E+03  0.36934704746E+03  0.12500000000E+03 0.  0.
</event>
<event>
 4    0  0.2270578E-002  0.2488174E+03  0.7546771E-02  0.1114055E+00
         21   -1    0    0  502  501  0.00000000000E+00  0.00000000000E+00  0.49523030402E+03  0.49523030402E+03  0.00000000000E+00 0. -1.
         21   -1    0    0  501  502 -0.00000000000E+00 -0.00000000000E+00 -0.12501270393E+03  0.12501270393E+03  0.00000000000E+00 0. -1.
         25    1    1    2    0    0  0.20147170682E+03 -0.75328197665E+02  0.17954968980E+03  0.30680331993E+03  0.12500000000E+03 0.  0.
         25    1    1    2    0    0 -0.20147170682E+03  0.75328197665E+02  0.19066791029E+03  0.31343968802E+03  0.12500000000E+03 0.  0.
</event>
<event>
 4    0  0.2270578E-002  0.1820646E+03  0.7546771E-02  0.1165820E+00
         21   -1    0    0  502  501  0.00000000000E+00  0.00000000000E+00  0.65703957199E+02  0.65703957199E+02  0.00000000000E+00 0.  1.
         21   -1    0    0  501  502 -0.00000000000E+00 -0.00000000000E+00 -0.50449826699E+03  0.50449826699E+03  0.00000000000E+00 0.  1.
         25    1    1    2    0    0 -0.41665387362E+02 -0.12562754292E+03 -0.21616947119E+03  0.28261727534E+03  0.12500000000E+03 0.  0.
         25    1    1    2    0    0  0.41665387362E+02  0.12562754292E+03 -0.22262483860E+03  0.28758494885E+03  0.12500000000E+03 0.  0.
</event>
<event>
 4    0  0.2270578E-002  0.2420734E+03  0.7546771E-02  0.1118419E+00
         21   -1    0    0  502  501  0.00000000000E+00  0.00000000000E+00  0.15798151496E+03  0.15798151496E+03  0.00000000000E+00 0.  1.
         21   -1    0    0  501  502 -0.00000000000E+00 -0.00000000000E+00 -0.37092662999E+03  0.37092662999E+03  0.00000000000E+00 0.  1.
         25    1    1    2    0    0 -0.41695911108E+02 -0.51218096854E+02 -0.32114102137E+03  0.35088231369E+03  0.12500000000E+03 0.  0.
         25    1    1    2    0    0  0.41695911108E+02  0.51218096854E+02  0.10819590634E+03  0.17802583126E+03  0.12500000000E+03 0.  0.
</event>
<event>
 4    0  0.2270578E-002  0.1883645E+03  0.7546771E-02  0.1159945E+00
         21   -1    0    0  502  501  0.00000000000E+00  0.00000000000E+00  0.47813658876E+03  0.47813658876E+03  0.00000000000E+00 0.  1.
         21   -1    0    0  501  502 -0.00000000000E+00 -0.00000000000E+00 -0.74207197530E+02  0.74207197530E+02  0.00000000000E+00 0.  1.
         25    1    1    2    0    0 -0.97725950540E+02  0.28527157918E+02  0.59121451016E+02  0.17171053002E+03  0.12500000000E+03 0.  0.
         25    1    1    2    0    0  0.97725950540E+02 -0.28527157918E+02  0.34480794021E+03  0.38063325627E+03  0.12500000000E+03 0.  0.
</event>
<event>
 4    0  0.2270578E-002  0.2589345E+03  0.7546771E-02  0.1107785E+00
         21   -1    0    0  502  501  0.00000000000E+00  0.00000000000E+00  0.21518540202E+03  0.21518540202E+03  0.00000000000E+00 0.  1.
         21   -1    0    0  501  502 -0.00000000000E+00 -0.00000000000E+00 -0.31157826264E+03  0.31157826264E+03  0.00000000000E+00 0.  1.
         25    1    1    2    0    0 -0.12811170238E+03 -0.18046276410E+03 -0.98468733891E+02  0.27258119720E+03  0.12500000000E+03 0.  0.
         25    1    1    2    0    0  0.12811170238E+03  0.18046276410E+03  0.20758732727E+01  0.25418246745E+03  0.12500000000E+03 0.  0.
</event>
<event>
 4    0  0.2270578E-002  0.2056068E+03  0.7546771E-02  0.1145093E+00
         21   -1    0    0  502  501  0.00000000000E+00  0.00000000000E+00  0.42581843192E+03  0.42581843192E+03  0.00000000000E+00 0.  1.
         21   -1    0    0  501  502 -0.00000000000E+00 -0.00000000000E+00 -0.99277414660E+02  0.99277414660E+02  0.00000000000E+00 0.  1.
         25    1    1    2    0    0  0.11151314106E+03  0.11649493151E+03  0.13089295953E+03  0.24241331760E+03  0.12500000000E+03 0.  0.
         25    1    1    2    0    0 -0.11151314106E+03 -0.11649493151E+03  0.19564805773E+03  0.28268252898E+03  0.12500000000E+03 0.  0.
</event>
<event>
 4    0  0.2270578E-002  0.1838215E+03  0.7546771E-02  0.1164155E+00
         21   -1    0    0  502  501  0.00000000000E+00  0.00000000000E+00  0.54165183550E+02  0.54165183550E+02  0.00000000000E+00 0.  1.
         21   -1    0    0  501  502 -0.00000000000E+00 -0.00000000000E+00 -0.62383870935E+03  0.62383870935E+03  0.00000000000E+00 0.  1.
         25    1    1    2    0    0 -0.92987916229E+02 -0.97365396737E+02 -0.27338417998E+03  0.32937923874E+03  0.12500000000E+03 0.  0.
         25    1    1    2    0    0  0.92987916229E+02  0.97365396737E+02 -0.29628934582E+03  0.34862465417E+03  0.12500000000E+03 0.  0.
</event>
<event>
 4    0  0.2270578E-002  0.3185784E+03  0.7546771E-02  0.1076305E+00
         21   -1    0    0  502  501  0.00000000000E+00  0.00000000000E+00  0.90580120665E+03  0.90580120665E+03  0.00000000000E+00 0.  1.
         21   -1    0    0  501  502 -0.00000000000E+00 -0.00000000000E+00 -0.11204685838E+03  0.11204685838E+03  0.00000000000E+00 0.  1.
         25    1    1    2    0    0  0.15364856548E+03 -0.60923769849E+02  0.10340069274E+02  0.20748856460E+03  0.12500000000E+03 0.  0.
         25    1    1    2    0    0 -0.15364856548E+03  0.60923769849E+02  0.78341427900E+03  0.81035950044E+03  0.12500000000E+03 0.  0.
</event>
<event>
 4    0  0.2270578E-002  0.2673817E+03  0.7546771E-02  0.1102788E+00
         21   -1    0    0  502  501  0.00000000000E+00  0.00000000000E+00  0.11346216708E+03  0.11346216708E+03  0.00000000000E+00 0.  1.
         21   -1    0    0  501  502 -0.00000000000E+00 -0.00000000000E+00 -0.63010392474E+03  0.63010392474E+03  0.00000000000E+00 0.  1.
         25    1    1    2    0    0  0.19978442129E+03  0.53500159810E+02 -0.99225021337E+02  0.26124066864E+03  0.12500000000E+03 0.  0.
         25    1    1    2    0    0 -0.19978442129E+03 -0.53500159810E+02 -0.41741673632E+03  0.48232542318E+03  0.12500000000E+03 0.  0.
</event>
<event>
 4    0  0.2270578E-002  0.3525819E+03  0.7546771E-02  0.1061560E+00
         21   -1    0    0  502  501  0.00000000000E+00  0.00000000000E+00  0.63997886679E+03  0.63997886679E+03  0.00000000000E+00 0. -1.
         21   -1    0    0  501  502 -0.00000000000E+00 -0.00000000000E+00 -0.19424699469E+03  0.19424699469E+03  0.00000000000E+00 0. -1.
         25    1    1    2    0    0 -0.26371890293E+02  0.26107289100E+03 -0.13248773473E+02  0.29095542788E+03  0.12500000000E+03 0.  0.
         25    1    1    2    0    0  0.26371890293E+02 -0.26107289100E+03  0.45898064557E+03  0.54327043360E+03  0.12500000000E+03 0.  0.
</event>
<event>
 4    0  0.2270578E-002  0.2296863E+03  0.7546771E-02  0.1126861E+00
         21   -1    0    0  502  501  0.00000000000E+00  0.00000000000E+00  0.37236098727E+03  0.37236098727E+03  0.00000000000E+00 0. -1.
         21   -1    0    0  501  502 -0.00000000000E+00 -0.00000000000E+00 -0.14167921436E+03  0.14167921436E+03  0.00000000000E+00 0. -1.
         25    1    1    2    0    0 -0.37329989432E+02 -0.66667572307E+02 -0.82608236568E+02  0.16818803185E+03  0.12500000000E+03 0.  0.
         25    1    1    2    0    0  0.37329989432E+02  0.66667572307E+02  0.31329000948E+03  0.34585216979E+03  0.12500000000E+03 0.  0.
</event>
<event>
 4    0  0.2270578E-002  0.2313621E+03  0.7546771E-02  0.1125685E+00
         21   -1    0    0  502  501  0.00000000000E+00  0.00000000000E+00  0.20905425459E+03  0.20905425459E+03  0.00000000000E+00 0.  1.
         21   -1    0    0  501  502 -0.00000000000E+00 -0.00000000000E+00 -0.25605031834E+03  0.25605031834E+03  0.00000000000E+00 0.  1.
         25    1    1    2    0    0 -0.57739724524E+02 -0.11771819304E+03  0.12115883168E+03  0.21793556675E+03  0.12500000000E+03 0.  0.
         25    1    1    2    0    0  0.57739724524E+02  0.11771819304E+03 -0.16815489543E+03  0.24716900618E+03  0.12500000000E+03 0.  0.
</event>
<event>
 4    0  0.2270578E-002  0.2139633E+03  0.7546771E-02  0.1138465E+00
         21   -1    0    0  502  501  0.00000000000E+00  0.00000000000E+00  0.67849970606E+03  0.67849970606E+03  0.00000000000E+00 0.  1.
         21   -1    0    0  501  502 -0.00000000000E+00 -0.00000000000E+00 -0.67472799612E+02  0.67472799612E+02  0.00000000000E+00 0.  1.
         25    1    1    2    0    0 -0.35330563488E+02 -0.38138188814E+02  0.59434499211E+03  0.60956848656E+03  0.12500000000E+03 0.  0.
         25    1    1    2    0    0  0.35330563488E+02  0.38138188814E+02  0.16681914333E+02  0.13640401911E+03  0.12500000000E+03 0.  0.
</event>
<event>
 4    0  0.2270578E-002  0.2856685E+03  0.7546771E-02  0.1092633E+00
         21   -1    0    0  502  501  0.00000000000E+00  0.00000000000E+00  0.42887590214E+03  0.42887590214E+03  0.00000000000E+00 0.  1.
         21   -1    0    0  501  502 -0.00000000000E+00 -0.00000000000E+00 -0.19027997667E+03  0.19027997667E+03  0.00000000000E+00 0.  1.
         25    1    1    2    0    0  0.13596293049E+03 -0.16712870140E+03  0.27087441985E+03  0.36798895721E+03  0.12500000000E+03 0.  0.
         25    1    1    2    0    0 -0.13596293049E+03  0.16712870140E+03 -0.32278494385E+02  0.25116692159E+03  0.12500000000E+03 0.  0.
</event>
<event>
 4    0  0.2270578E-002  0.3810105E+03  0.7546771E-02  0.1050561E+00
         21   -1    0    0  502  501  0.00000000000E+00  0.00000000000E+00  0.23216348553E+03  0.23216348553E+03  0.00000000000E+00 0.  1.
         21   -1    0    0  501  502 -0.00000000000E+00 -0.00000000000E+00 -0.62528788018E+03  0.62528788018E+03  0.00000000000E+00 0.  1.
         25    1    1    2    0    0  0.32767852928E+02  0.35154358600E+03 -0.11789730062E+03  0.39265939252E+03  0.12500000000E+03 0.  0.
         25    1    1    2    0    0 -0.32767852928E+02 -0.35154358600E+03 -0.27522709403E+03  0.46479197318E+03  0.12500000000E+03 0.  0.
</event>
<event>
 4    0  0.2270578E-002  0.3595211E+03  0.7546771E-02  0.1058774E+00
         21   -1    0    0  502  501  0.00000000000E+00  0.00000000000E+00  0.31907072272E+03  0.31907072272E+03  0.00000000000E+00 0.  1.
         21   -1    0    0  501  502 -0.00000000000E+00 -0.00000000000E+00 -0.40509963371E+03  0.40509963371E+03  0.00000000000E+00 0.  1.
         25    1    1    2    0    0  0.15778748193E+03 -0.28436727658E+03 -0.13235332909E+03  0.37269832460E+03  0.12500000000E+03 0.  0.
         25    1    1    2    0    0 -0.15778748193E+03  0.28436727658E+03  0.46324418091E+02  0.35147203182E+03  0.12500000000E+03 0.  0.
</event>
<event>
 4    0  0.2270578E-002  0.3021835E+03  0.7546771E-02  0.1084154E+00
         21   -1    0    0  502  501  0.00000000000E+00  0.00000000000E+00  0.62089573677E+03  0.62089573677E+03  0.00000000000E+00 0.  1.
         21   -1    0    0  501  502 -0.00000000000E+00 -0.00000000000E+00 -0.14706961048E+03  0.14706961048E+03  0.00000000000E+00 0.  1.
         25    1    1    2    0    0  0.21990327634E+03  0.57263552353E+02  0.39839480387E+02  0.26239045251E+03  0.12500000000E+03 0.  0.
         25    1    1    2    0    0 -0.21990327634E+03 -0.57263552353E+02  0.43398664590E+03  0.50557489474E+03  0.12500000000E+03 0.  0.
</event>
<event>
 4    0  0.2270578E-002  0.1997843E+03  0.7546771E-02  0.1149921E+00
         21   -1    0    0  502  501  0.00000000000E+00  0.00000000000E+00  0.10720742255E+03  0.10720742255E+03  0.00000000000E+00 0.  1.
         21   -1    0    0  501  502 -0.00000000000E+00 -0.00000000000E+00 -0.37230428347E+03  0.37230428347E+03  0.00000000000E+00 0.  1.
         25    1    1    2    0    0 -0.45729781187E+00  0.14287059726E+03 -0.20726748411E+03  0.28106409706E+03  0.12500000000E+03 0.  0.
         25    1    1    2    0    0  0.45729781187E+00 -0.14287059726E+03 -0.57829376807E+02  0.19844760897E+03  0.12500000000E+03 0.  0.
</event>
<event>
 4    0  0.2270578E-002  0.2015303E+03  0.7546771E-02  0.1148454E+00
         21   -1    0    0  502  501  0.00000000000E+00  0.00000000000E+00  0.94299258864E+03  0.94299258864E+03  0.00000000000E+00 0.  1.
         21   -1    0    0  501  502 -0.00000000000E+00 -0.00000000000E+00 -0.43069751714E+02  0.43069751714E+02  0.00000000000E+00 0.  1.
         25    1    1    2    0    0  0.91389637317E+02 -0.60954047336E+02  0.72806004042E+03  0.74683591514E+03  0.12500000000E+03 0.  0.
         25    1    1    2    0    0 -0.91389637317E+02  0.60954047336E+02  0.17186279651E+03  0.23922642522E+03  0.12500000000E+03 0.  0.
</event>
<event>
 4    0  0.2270578E-002  0.2190436E+03  0.7546771E-02  0.1134598E+00
         21   -1    0    0  502  501  0.00000000000E+00  0.00000000000E+00  0.21447174793E+04  0.21447174793E+04  0.00000000000E+00 0.  1.
         21   -1    0    0  501  502 -0.00000000000E+00 -0.00000000000E+00 -0.22371285070E+02  0.22371285070E+02  0.00000000000E+00 0.  1.
         25    1    1    2    0    0  0.38074359618E+02 -0.20790774824E+02  0.19246983279E+04  0.19292409301E+04  0.12500000000E+03 0.  0.
         25    1    1    2    0    0 -0.38074359618E+02  0.20790774824E+02  0.19764786637E+03  0.23784783426E+03  0.12500000000E+03 0.  0.
</event>
<event>
 4    0  0.2270578E-002  0.1971726E+03  0.7546771E-02  0.1152147E+00
         21   -1    0    0  502  501  0.00000000000E+00  0.00000000000E+00  0.49070996455E+03  0.49070996455E+03  0.00000000000E+00 0. -1.
         21   -1    0    0  501  502 -0.00000000000E+00 -0.00000000000E+00 -0.79226131529E+02  0.79226131529E+02  0.00000000000E+00 0. -1.
         25    1    1    2    0    0  0.11410175173E+03  0.86073295643E+02  0.12893513764E+03  0.22951490516E+03  0.12500000000E+03 0.  0.
         25    1    1    2    0    0 -0.11410175173E+03 -0.86073295643E+02  0.28254869537E+03  0.34042119092E+03  0.12500000000E+03 0.  0.
</event>
<event>
 4    0  0.2270578E-002  0.3667044E+03  0.7546771E-02  0.1055960E+00
         21   -1    0    0  502  501  0.00000000000E+00  0.00000000000E+00  0.54379619669E+03  0.54379619669E+03  0.00000000000E+00 0. -1.
         21   -1    0    0  501  502 -0.00000000000E+00 -0.00000000000E+00 -0.24728403493E+03  0.24728403493E+03  0.00000000000E+00 0. -1.
         25    1    1    2    0    0 -0.25854933519E+03  0.18942660204E+03  0.11320768040E+02  0.34421411371E+03  0.12500000000E+03 0.  0.
         25    1    1    2    0    0  0.25854933519E+03 -0.18942660204E+03  0.28519139372E+03  0.44686611791E+03  0.12500000000E+03 0.  0.
</event>
<event>
 4    0  0.2270578E-002  0.1844792E+03  0.7546771E-02  0.1163537E+00
         21   -1    0    0  502  501  0.00000000000E+00  0.00000000000E+00  0.52581970617E+03  0.52581970617E+03  0.00000000000E+00 0.  1.
         21   -1    0    0  501  502 -0.00000000000E+00 -0.00000000000E+00 -0.64722884067E+02  0.64722884067E+02  0.00000000000E+00 0.  1.
         25    1    1    2    0    0  0.66281953876E+02 -0.79263898542E+02  0.89812189874E+02  0.18538417535E+03  0.12500000000E+03 0.  0.
         25    1    1    2    0    0 -0.66281953876E+02  0.79263898542E+02  0.37128463223E+03  0.40515841488E+03  0.12500000000E+03 0.  0.
</event>
<event>
 4    0  0.2270578E-002  0.1910960E+03  0.7546771E-02  0.1157477E+00
         21   -1    0    0  502  501  0.00000000000E+00  0.00000000000E+00  0.16023916106E+03  0.16023916106E+03  0.00000000000E+00 0.  1.
         21   -1    0    0  501  502 -0.00000000000E+00 -0.00000000000E+00 -0.22789489723E+03  0.22789489723E+03  0.00000000000E+00 0.  1.
         25    1    1    2    0    0  0.10340026948E+03 -0.42230955450E+02 -0.12700186534E+03  0.21030820984E+03  0.12500000000E+03 0.  0.
         25    1    1    2    0    0 -0.10340026948E+03  0.42230955450E+02  0.59346129168E+02  0.17782584844E+03  0.12500000000E+03 0.  0.
</event>
<event>
 4    0  0.2270578E-002  0.2062346E+03  0.7546771E-02  0.1144583E+00
         21   -1    0    0  502  501  0.00000000000E+00  0.00000000000E+00  0.10803237209E+03  0.10803237209E+03  0.00000000000E+00 0. -1.
         21   -1    0    0  501  502 -0.00000000000E+00 -0.00000000000E+00 -0.39370353696E+03  0.39370353696E+03  0.00000000000E+00 0. -1.
         25    1    1    2    0    0  0.30041247536E+02  0.15077186135E+03 -0.73242998137E+02  0.21124433129E+03  0.12500000000E+03 0.  0.
         25    1    1    2    0    0 -0.30041247536E+02 -0.15077186135E+03 -0.21242816673E+03  0.29049157776E+03  0.12500000000E+03 0.  0.
</event>
<event>
 4    0  0.2270578E-002  0.3475639E+03  0.7546771E-02  0.1063619E+00
         21   -1    0    0  502  501  0.00000000000E+00  0.00000000000E+00  0.26972683974E+04  0.26972683974E+04  0.00000000000E+00 0.  1.
         21   -1    0    0  501  502 -0.00000000000E+00 -0.00000000000E+00 -0.44786298347E+02  0.44786298347E+02  0.00000000000E+00 0.  1.
         25    1    1    2    0    0 -0.66866455717E+02 -0.31700897171E+03  0.13833852647E+04  0.14263048768E+04  0.12500000000E+03 0.  0.
         25    1    1    2    0    0  0.66866455717E+02  0.31700897171E+03  0.12690968344E+04  0.13157498189E+04  0.12500000000E+03 0.  0.
</event>
<event>
 4    0  0.2270578E-002  0.2011100E+03  0.7546771E-02  0.1148806E+00
         21   -1    0    0  502  501  0.00000000000E+00  0.00000000000E+00  0.21074387949E+03  0.21074387949E+03  0.00000000000E+00 0.  1.
         21   -1    0    0  501  502 -0.00000000000E+00 -0.00000000000E+00 -0.19191652927E+03  0.19191652927E+03  0.00000000000E+00 0.  1.
         25    1    1    2    0    0  0.77361682273E+02 -0.55728232290E+02  0.13496937099E+03  0.20720086116E+03  0.12500000000E+03 0.  0.
         25    1    1    2    0    0 -0.77361682273E+02  0.55728232290E+02 -0.11614202078E+03  0.19545954760E+03  0.12500000000E+03 0.  0.
</event>
<event>
 4    0  0.2270578E-002  0.2253267E+03  0.7546771E-02  0.1129973E+00
         21   -1    0    0  502  501  0.00000000000E+00  0.00000000000E+00  0.17843347511E+03  0.17843347511E+03  0.00000000000E+00 0. -1.
         21   -1    0    0  501  502 -0.00000000000E+00 -0.00000000000E+00 -0.28454375261E+03  0.28454375261E+03  0.00000000000E+00 0. -1.
         25    1    1    2    0    0 -0.44240654772E+02  0.10193591797E+03  0.10206725349E+03  0.19593593632E+03  0.12500000000E+03 0.  0.
         25    1    1    2    0    0  0.44240654772E+02 -0.10193591797E+03 -0.20817753099E+03  0.26704129141E+03  0.12500000000E+03 0.  0.
</event>
<event>
 4    0  0.2270578E-002  0.1817282E+03  0.7546771E-02  0.1166141E+00
         21   -1    0    0  502  501  0.00000000000E+00  0.00000000000E+00  0.90316018640E+02  0.90316018640E+02  0.00000000000E+00 0.  1.
         21   -1    0    0  501  502 -0.00000000000E+00 -0.00000000000E+00 -0.36566201059E+03  0.36566201059E+03  0.00000000000E+00 0.  1.
         25    1    1    2    0    0  0.58979809644E+02 -0.10731616119E+03 -0.76151409158E+02  0.19083871074E+03  0.12500000000E+03 0.  0.
         25    1    1    2    0    0 -0.58979809644E+02  0.10731616119E+03 -0.19919458280E+03  0.26513931850E+03  0.12500000000E+03 0.  0.
</event>
<event>
 4    0  0.2270578E-002  0.2119810E+03  0.7546771E-02  0.1140007E+00
         21   -1    0    0  502  501  0.00000000000E+00  0.00000000000E+00  0.31052004717E+03  0.31052004717E+03  0.00000000000E+00 0.  1.
         21   -1    0    0  501  502 -0.00000000000E+00 -0.00000000000E+00 -0.14471184216E+03  0.14471184216E+03  0.00000000000E+00 0.  1.
         25    1    1    2    0    0  0.46774065757E+02  0.16385914159E+03  0.65153099636E+02  0.22115053222E+03  0.12500000000E+03 0.  0.
         25    1    1    2    0    0 -0.46774065757E+02 -0.16385914159E+03  0.10065510538E+03  0.23408135711E+03  0.12500000000E+03 0.  0.
</event>
<event>
 4    0  0.2270578E-002  0.1620075E+03  0.7546771E-02  0.1186449E+00
         21   -1    0    0  502  501  0.00000000000E+00  0.00000000000E+00  0.33800239534E+02  0.33800239534E+02  0.00000000000E+00 0. -1.
         21   -1    0    0  501  502 -0.00000000000E+00 -0.00000000000E+00 -0.77651595333E+03  0.77651595333E+03  0.00000000000E+00 0. -1.
         25    1    1    2    0    0 -0.89711691165E+02 -0.30080126655E+02 -0.26920685905E+03  0.31152902675E+03  0.12500000000E+03 0.  0.
         25    1    1    2    0    0  0.89711691165E+02  0.30080126655E+02 -0.47350885474E+03  0.49878716610E+03  0.12500000000E+03 0.  0.
</event>
<event>
 4    0  0.2270578E-002  0.2404896E+03  0.7546771E-02  0.1119467E+00
         21   -1    0    0  502  501  0.00000000000E+00  0.00000000000E+00  0.52154021012E+03  0.52154021012E+03  0.00000000000E+00 0.  1.
         21   -1    0    0  501  502 -0.00000000000E+00 -0.00000000000E+00 -0.11089313506E+03  0.11089313506E+03  0.00000000000E+00 0.  1.
         25    1    1    2    0    0 -0.13646072282E+03 -0.15198746993E+03  0.17626158087E+03  0.29734637173E+03  0.12500000000E+03 0.  0.
         25    1    1    2    0    0  0.13646072282E+03  0.15198746993E+03  0.23438549420E+03  0.33508697345E+03  0.12500000000E+03 0.  0.
</event>
<event>
 4    0  0.2270578E-002  0.2419873E+03  0.7546771E-02  0.1118476E+00
         21   -1    0    0  502  501  0.00000000000E+00  0.00000000000E+00  0.46806454470E+04  0.46806454470E+04  0.00000000000E+00 0.  1.
         21   -1    0    0  501  502 -0.00000000000E+00 -0.00000000000E+00 -0.12510633118E+02  0.12510633118E+02  0.00000000000E+00 0.  1.
         25    1    1    2    0    0  0.83248706829E+02 -0.11633297450E+03  0.37876362719E+04  0.37923972941E+04  0.12500000000E+03 0.  0.
         25    1    1    2    0    0 -0.83248706829E+02  0.11633297450E+03  0.88049854203E+03  0.90075878606E+03  0.12500000000E+03 0.  0.
</event>
<event>
 4    0  0.2270578E-002  0.1967652E+03  0.7546771E-02  0.1152497E+00
         21   -1    0    0  502  501  0.00000000000E+00  0.00000000000E+00  0.14360777415E+03  0.14360777415E+03  0.00000000000E+00 0.  1.
         21   -1    0    0  501  502 -0.00000000000E+00 -0.00000000000E+00 -0.26959910542E+03  0.26959910542E+03  0.00000000000E+00 0.  1.
         25    1    1    2    0    0  0.52518230424E+01 -0.13650873734E+03  0.68850604008E+01  0.18529603631E+03  0.12500000000E+03 0.  0.
         25    1    1    2    0    0 -0.52518230424E+01  0.13650873734E+03 -0.13287639167E+03  0.22791084327E+03  0.12500000000E+03 0.  0.
</event>
<event>
 4    0  0.2270578E-002  0.3365881E+03  0.7546771E-02  0.1068258E+00
         21   -1    0    0  502  501  0.00000000000E+00  0.00000000000E+00  0.27309627278E+03  0.27309627278E+03  0.00000000000E+00 0.  1.
         21   -1    0    0  501  502 -0.00000000000E+00 -0.00000000000E+00 -0.41484098887E+03  0.41484098887E+03  0.00000000000E+00 0.  1.
         25    1    1    2    0    0  0.21136172528E+03  0.34583082789E+02  0.16170713269E+03  0.29604723490E+03  0.12500000000E+03 0.  0.
         25    1    1    2    0    0 -0.21136172528E+03 -0.34583082789E+02 -0.30345184879E+03  0.39189002675E+03  0.12500000000E+03 0.  0.
</event>
<event>
 4    0  0.2270578E-002  0.2680338E+03  0.7546771E-02  0.1102410E+00
         21   -1    0    0  502  501  0.00000000000E+00  0.00000000000E+00  0.41676063163E+03  0.41676063163E+03  0.00000000000E+00 0.  1.
         21   -1    0    0  501  502 -0.00000000000E+00 -0.00000000000E+00 -0.17238221588E+03  0.17238221588E+03  0.00000000000E+00 0.  1.
         25    1    1    2    0    0  0.30175068638E+02  0.14153257442E+02 -0.13580000955E+03  0.18755663693E+03  0.12500000000E+03 0.  0.
         25    1    1    2    0    0 -0.30175068638E+02 -0.14153257442E+02  0.38017842530E+03  0.40158621058E+03  0.12500000000E+03 0.  0.
</event>
<event>
 4    0  0.2270578E-002  0.1830599E+03  0.7546771E-02  0.1164874E+00
         21   -1    0    0  502  501  0.00000000000E+00  0.00000000000E+00  0.79213586135E+03  0.79213586135E+03  0.00000000000E+00 0. -1.
         21   -1    0    0  501  502 -0.00000000000E+00 -0.00000000000E+00 -0.42304525088E+02  0.42304525088E+02  0.00000000000E+00 0. -1.
         25    1    1    2    0    0 -0.99969873621E+02 -0.88461966480E+02  0.35633870555E+03  0.40052686330E+03  0.12500000000E+03 0.  0.
         25    1    1    2    0    0  0.99969873621E+02  0.88461966480E+02  0.39349263071E+03  0.43391352314E+03  0.12500000000E+03 0.  0.
</event>
<event>
 4    0  0.2270578E-002  0.3156027E+03  0.7546771E-02  0.1077691E+00
         21   -1    0    0  502  501  0.00000000000E+00  0.00000000000E+00  0.45677226549E+03  0.45677226549E+03  0.00000000000E+00 0.  1.
         21   -1    0    0  501  502 -0.00000000000E+00 -0.00000000000E+00 -0.21806283059E+03  0.21806283059E+03  0.00000000000E+00 0.  1.
         25    1    1    2    0    0 -0.68209877464E+02  0.20977230295E+03  0.32028993296E+03  0.40849436670E+03  0.12500000000E+03 0.  0.
         25    1    1    2    0    0  0.68209877464E+02 -0.20977230295E+03 -0.81580498058E+02  0.26634072939E+03  0.12500000000E+03 0.  0.
</event>
<event>
 4    0  0.2270578E-002  0.3127712E+03  0.7546771E-02  0.1079025E+00
         21   -1    0    0  502  501  0.00000000000E+00  0.00000000000E+00  0.39783097918E+03  0.39783097918E+03  0.00000000000E+00 0.  1.
         21   -1    0    0  501  502 -0.00000000000E+00 -0.00000000000E+00 -0.24589795907E+03  0.24589795907E+03  0.00000000000E+00 0.  1.
         25    1    1    2    0    0  0.10908512956E+03  0.37807264981E+02 -0.19409781382E+03  0.25812383870E+03  0.12500000000E+03 0.  0.
         25    1    1    2    0    0 -0.10908512956E+03 -0.37807264981E+02  0.34603083392E+03  0.38560509955E+03  0.12500000000E+03 0.  0.
</event>
<event>
 4    0  0.2270578E-002  0.3156321E+03  0.7546771E-02  0.1077677E+00
         21   -1    0    0  502  501  0.00000000000E+00  0.00000000000E+00  0.21054149618E+03  0.21054149618E+03  0.00000000000E+00 0. -1.
         21   -1    0    0  501  502 -0.00000000000E+00 -0.00000000000E+00 -0.47317805830E+03  0.47317805830E+03  0.00000000000E+00 0. -1.
         25    1    1    2    0    0  0.16412167471E+03  0.16261929630E+03  0.58200750601E+02  0.26906000633E+03  0.12500000000E+03 0.  0.
         25    1    1    2    0    0 -0.16412167471E+03 -0.16261929630E+03 -0.32083731272E+03  0.41465954815E+03  0.12500000000E+03 0.  0.
</event>
<event>
 4    0  0.2270578E-002  0.2853612E+03  0.7546771E-02  0.1092796E+00
         21   -1    0    0  502  501  0.00000000000E+00  0.00000000000E+00  0.18784474959E+03  0.18784474959E+03  0.00000000000E+00 0.  1.
         21   -1    0    0  501  502 -0.00000000000E+00 -0.00000000000E+00 -0.43350164633E+03  0.43350164633E+03  0.00000000000E+00 0.  1.
         25    1    1    2    0    0  0.24664897799E+03  0.33848250300E+02 -0.55499615435E+02  0.28405392042E+03  0.12500000000E+03 0.  0.
         25    1    1    2    0    0 -0.24664897799E+03 -0.33848250300E+02 -0.19015728130E+03  0.33729247550E+03  0.12500000000E+03 0.  0.
</event>
<event>
 4    0  0.2270578E-002  0.2003445E+03  0.7546771E-02  0.1149449E+00
         21   -1    0    0  502  501  0.00000000000E+00  0.00000000000E+00  0.15001828794E+04  0.15001828794E+04  0.00000000000E+00 0.  1.
         21   -1    0    0  501  502 -0.00000000000E+00 -0.00000000000E+00 -0.26755357875E+02  0.26755357875E+02  0.00000000000E+00 0.  1.
         25    1    1    2    0    0 -0.94984159878E+02 -0.12431866532E+03  0.71390992399E+03  0.74146442986E+03  0.12500000000E+03 0.  0.
         25    1    1    2    0    0  0.94984159878E+02  0.12431866532E+03  0.75951759758E+03  0.78547380746E+03  0.12500000000E+03 0.  0.
</event>
<event>
 4    0  0.2270578E-002  0.2259998E+03  0.7546771E-02  0.1129487E+00
         21   -1    0    0  502  501  0.00000000000E+00  0.00000000000E+00  0.58463721337E+02  0.58463721337E+02  0.00000000000E+00 0. -1.
         21   -1    0    0  501  502 -0.00000000000E+00 -0.00000000000E+00 -0.87363429016E+03  0.87363429016E+03  0.00000000000E+00 0. -1.
         25    1    1    2    0    0  0.16974097740E+03  0.81031723347E+02 -0.42517690921E+03  0.48143384148E+03  0.12500000000E+03 0.  0.
         25    1    1    2    0    0 -0.16974097740E+03 -0.81031723347E+02 -0.38999365962E+03  0.45066417002E+03  0.12500000000E+03 0.  0.
</event>
<event>
 4    0  0.2270578E-002  0.2029632E+03  0.7546771E-02  0.1147263E+00
         21   -1    0    0  502  501  0.00000000000E+00  0.00000000000E+00  0.72038234013E+02  0.72038234013E+02  0.00000000000E+00 0. -1.
         21   -1    0    0  501  502 -0.00000000000E+00 -0.00000000000E+00 -0.57183589513E+03  0.57183589513E+03  0.00000000000E+00 0. -1.
         25    1    1    2    0    0  0.10845191746E+03 -0.10018117887E+03 -0.34730349770E+03  0.39754598037E+03  0.12500000000E+03 0.  0.
         25    1    1    2    0    0 -0.10845191746E+03  0.10018117887E+03 -0.15249416342E+03  0.24632814877E+03  0.12500000000E+03 0.  0.
</event>
<event>
 4    0  0.2270578E-002  0.1779352E+03  0.7546771E-02  0.1169816E+00
         21   -1    0    0  502  501  0.00000000000E+00  0.00000000000E+00  0.21913775502E+03  0.21913775502E+03  0.00000000000E+00 0. -1.
         21   -1    0    0  501  502 -0.00000000000E+00 -0.00000000000E+00 -0.14447967565E+03  0.14447967565E+03  0.00000000000E+00 0. -1.
         25    1    1    2    0    0 -0.14460797920E+02 -0.65596836608E+02  0.14701531951E+03  0.20432954711E+03  0.12500000000E+03 0.  0.
         25    1    1    2    0    0  0.14460797920E+02  0.65596836608E+02 -0.72357240142E+02  0.15928788356E+03  0.12500000000E+03 0.  0.
</event>
<event>
 4    0  0.2270578E-002  0.2310000E+03  0.7546771E-02  0.1125938E+00
         21   -1    0    0  502  501  0.00000000000E+00  0.00000000000E+00  0.51978583758E+03  0.51978583758E+03  0.00000000000E+00 0.  1.
         21   -1    0    0  501  502 -0.00000000000E+00 -0.00000000000E+00 -0.10265954387E+03  0.10265954387E+03  0.00000000000E+00 0.  1.
         25    1    1    2    0    0  0.48738520928E+02 -0.16599704225E+03  0.32759416907E+03  0.39099028257E+03  0.12500000000E+03 0.  0.
         25    1    1    2    0    0 -0.48738520928E+02  0.16599704225E+03  0.89532124636E+02  0.23145509888E+03  0.12500000000E+03 0.  0.
</event>
<event>
 4    0  0.2270578E-002  0.2167157E+03  0.7546771E-02  0.1136356E+00
         21   -1    0    0  502  501  0.00000000000E+00  0.00000000000E+00  0.40205502010E+02  0.40205502010E+02  0.00000000000E+00 0. -1.
         21   -1    0    0  501  502 -0.00000000000E+00 -0.00000000000E+00 -0.11681411716E+04  0.11681411716E+04  0.00000000000E+00 0. -1.
         25    1    1    2    0    0  0.10656914994E+03 -0.86778992233E+02 -0.87507521881E+03  0.89457767454E+03  0.12500000000E+03 0.  0.
         25    1    1    2    0    0 -0.10656914994E+03  0.86778992233E+02 -0.25286045080E+03  0.31376899909E+03  0.12500000000E+03 0.  0.
</event>
<event>
 4    0  0.2270578E-002  0.2606663E+03  0.7546771E-02  0.1106744E+00
         21   -1    0    0  502  501  0.00000000000E+00  0.00000000000E+00  0.28425874324E+02  0.28425874324E+02  0.00000000000E+00 0. -1.
         21   -1    0    0  501  502 -0.00000000000E+00 -0.00000000000E+00 -0.23903201321E+04  0.23903201321E+04  0.00000000000E+00 0. -1.
         25    1    1    2    0    0 -0.85261060340E+01  0.14629385641E+03 -0.19958095110E+04  0.20050823403E+04  0.12500000000E+03 0.  0.
         25    1    1    2    0    0  0.85261060340E+01 -0.14629385641E+03 -0.36608474678E+03  0.41366366620E+03  0.12500000000E+03 0.  0.
</event>
<event>
 4    0  0.2270578E-002  0.2243566E+03  0.7546771E-02  0.1130676E+00
         21   -1    0    0  502  501  0.00000000000E+00  0.00000000000E+00  0.87624831457E+02  0.87624831457E+02  0.00000000000E+00 0.  1.
         21   -1    0    0  501  502 -0.00000000000E+00 -0.00000000000E+00 -0.57444771725E+03  0.57444771725E+03  0.00000000000E+00 0.  1.
         25    1    1    2    0    0  0.30880362670E+02  0.85303660669E+02 -0.48351601147E+03  0.50758550479E+03  0.12500000000E+03 0.  0.
         25    1    1    2    0    0 -0.30880362670E+02 -0.85303660669E+02 -0.33068743266E+01  0.15448704392E+03  0.12500000000E+03 0.  0.
</event>
<event>
 4    0  0.2270578E-002  0.1307306E+03  0.7546771E-02  0.1226376E+00
         21   -1    0    0  502  501  0.00000000000E+00  0.00000000000E+00  0.12276721966E+03  0.12276721966E+03  0.00000000000E+00 0. -1.
         21   -1    0    0  501  502 -0.00000000000E+00 -0.00000000000E+00 -0.13921060581E+03  0.13921060581E+03  0.00000000000E+00 0. -1.
         25    1    1    2    0    0 -0.25706159934E+02  0.28352716099E+02 -0.73166622346E+01  0.13093210727E+03  0.12500000000E+03 0.  0.
         25    1    1    2    0    0  0.25706159934E+02 -0.28352716099E+02 -0.91267239193E+01  0.13104571820E+03  0.12500000000E+03 0.  0.
</event>
<event>
 4    0  0.2270578E-002  0.1338875E+03  0.7546771E-02  0.1221799E+00
         21   -1    0    0  502  501  0.00000000000E+00  0.00000000000E+00  0.34876029349E+03  0.34876029349E+03  0.00000000000E+00 0.  1.
         21   -1    0    0  501  502 -0.00000000000E+00 -0.00000000000E+00 -0.51398804530E+02  0.51398804530E+02  0.00000000000E+00 0.  1.
         25    1    1    2    0    0 -0.36341265647E+01 -0.13087019081E+02  0.79932750169E+02  0.14899235381E+03  0.12500000000E+03 0.  0.
         25    1    1    2    0    0  0.36341265647E+01  0.13087019081E+02  0.21742873879E+03  0.25116674421E+03  0.12500000000E+03 0.  0.
</event>
<event>
 4    0  0.2270578E-002  0.3236956E+03  0.7546771E-02  0.1073961E+00
         21   -1    0    0  502  501  0.00000000000E+00  0.00000000000E+00  0.58506665670E+02  0.58506665670E+02  0.00000000000E+00 0.  1.
         21   -1    0    0  501  502 -0.00000000000E+00 -0.00000000000E+00 -0.17908869286E+04  0.17908869286E+04  0.00000000000E+00 0.  1.
         25    1    1    2    0    0 -0.25036476086E+03  0.13372202101E+03 -0.11309501255E+04  0.11727051116E+04  0.12500000000E+03 0.  0.
         25    1    1    2    0    0  0.25036476086E+03 -0.13372202101E+03 -0.60143013743E+03  0.67668848268E+03  0.12500000000E+03 0.  0.
</event>
<event>
 4    0  0.2270578E-002  0.2581426E+03  0.7546771E-02  0.1108264E+00
         21   -1    0    0  502  501  0.00000000000E+00  0.00000000000E+00  0.73441246787E+03  0.73441246787E+03  0.00000000000E+00 0.  1.
         21   -1    0    0  501  502 -0.00000000000E+00 -0.00000000000E+00 -0.90735962761E+02  0.90735962761E+02  0.00000000000E+00 0.  1.
         25    1    1    2    0    0 -0.46721476534E+02  0.95321266356E+01 -0.31003556048E+02  0.13733163618E+03  0.12500000000E+03 0.  0.
         25    1    1    2    0    0  0.46721476534E+02 -0.95321266356E+01  0.67468006116E+03  0.68781679445E+03  0.12500000000E+03 0.  0.
</event>
<event>
 4    0  0.2270578E-002  0.1823980E+03  0.7546771E-02  0.1165502E+00
         21   -1    0    0  502  501  0.00000000000E+00  0.00000000000E+00  0.41322051716E+03  0.41322051716E+03  0.00000000000E+00 0. -1.
         21   -1    0    0  501  502 -0.00000000000E+00 -0.00000000000E+00 -0.80511538528E+02  0.80511538528E+02  0.00000000000E+00 0. -1.
         25    1    1    2    0    0  0.95419557334E+02  0.13748794634E+02  0.29003097104E+03  0.33020733704E+03  0.12500000000E+03 0.  0.
         25    1    1    2    0    0 -0.95419557334E+02 -0.13748794634E+02  0.42678007595E+02  0.16352471865E+03  0.12500000000E+03 0.  0.
</event>
<event>
 4    0  0.2270578E-002  0.2507132E+03  0.7546771E-02  0.1112855E+00
         21   -1    0    0  502  501  0.00000000000E+00  0.00000000000E+00  0.19086710124E+03  0.19086710124E+03  0.00000000000E+00 0.  1.
         21   -1    0    0  501  502 -0.00000000000E+00 -0.00000000000E+00 -0.32932390333E+03  0.32932390333E+03  0.00000000000E+00 0.  1.
         25    1    1    2    0    0 -0.18093064183E+03  0.11286954198E+03 -0.25747299490E+02  0.24852234123E+03  0.12500000000E+03 0.  0.
         25    1    1    2    0    0  0.18093064183E+03 -0.11286954198E+03 -0.11270950261E+03  0.27166866333E+03  0.12500000000E+03 0.  0.
</event>
<event>
 4    0  0.2270578E-002  0.1915527E+03  0.7546771E-02  0.1157068E+00
         21   -1    0    0  502  501  0.00000000000E+00  0.00000000000E+00  0.19194603654E+03  0.19194603654E+03  0.00000000000E+00 0.  1.
         21   -1    0    0  501  502 -0.00000000000E+00 -0.00000000000E+00 -0.19116016069E+03  0.19116016069E+03  0.00000000000E+00 0.  1.
         25    1    1    2    0    0  0.11908922512E+03  0.78249316386E+02 -0.27215744434E+02  0.19149646419E+03  0.12500000000E+03 0.  0.
         25    1    1    2    0    0 -0.11908922512E+03 -0.78249316386E+02  0.28001620280E+02  0.19160973303E+03  0.12500000000E+03 0.  0.
</event>
<event>
 4    0  0.2270578E-002  0.2222192E+03  0.7546771E-02  0.1132239E+00
         21   -1    0    0  502  501  0.00000000000E+00  0.00000000000E+00  0.87901021855E+02  0.87901021855E+02  0.00000000000E+00 0.  1.
         21   -1    0    0  501  502 -0.00000000000E+00 -0.00000000000E+00 -0.56178380434E+03  0.56178380434E+03  0.00000000000E+00 0.  1.
         25    1    1    2    0    0 -0.16824928116E+03 -0.56057725675E+02 -0.30713999278E+03  0.37604556158E+03  0.12500000000E+03 0.  0.
         25    1    1    2    0    0  0.16824928116E+03  0.56057725675E+02 -0.16674278971E+03  0.27363926461E+03  0.12500000000E+03 0.  0.
</event>
<event>
 4    0  0.2270578E-002  0.2093396E+03  0.7546771E-02  0.1142090E+00
         21   -1    0    0  502  501  0.00000000000E+00  0.00000000000E+00  0.14425261331E+03  0.14425261331E+03  0.00000000000E+00 0. -1.
         21   -1    0    0  501  502 -0.00000000000E+00 -0.00000000000E+00 -0.30379399584E+03  0.30379399584E+03  0.00000000000E+00 0. -1.
         25    1    1    2    0    0 -0.32577780287E+02  0.23026452733E+02  0.94785811130E+02  0.16186685666E+03  0.12500000000E+03 0.  0.
         25    1    1    2    0    0  0.32577780287E+02 -0.23026452733E+02 -0.25432719366E+03  0.28617975248E+03  0.12500000000E+03 0.  0.
</event>
<event>
 4    0  0.2270578E-002  0.2357240E+03  0.7546771E-02  0.1122675E+00
         21   -1    0    0  502  501  0.00000000000E+00  0.00000000000E+00  0.94023386139E+02  0.94023386139E+02  0.00000000000E+00 0. -1.
         21   -1    0    0  501  502 -0.00000000000E+00 -0.00000000000E+00 -0.59097875640E+03  0.59097875640E+03  0.00000000000E+00 0. -1.
         25    1    1    2    0    0 -0.11038745811E+03 -0.16323202623E+03 -0.20005331599E+03  0.30737015882E+03  0.12500000000E+03 0.  0.
         25    1    1    2    0    0  0.11038745811E+03  0.16323202623E+03 -0.29690205427E+03  0.37763198372E+03  0.12500000000E+03 0.  0.
</event>
<event>
 4    0  0.2270578E-002  0.2328637E+03  0.7546771E-02  0.1124640E+00
         21   -1    0    0  502  501  0.00000000000E+00  0.00000000000E+00  0.66622354838E+03  0.66622354838E+03  0.00000000000E+00 0. -1.
         21   -1    0    0  501  502 -0.00000000000E+00 -0.00000000000E+00 -0.81392372446E+02  0.81392372446E+02  0.00000000000E+00 0. -1.
         25    1    1    2    0    0  0.11701408689E+03 -0.14859391887E+03  0.37778287244E+03  0.44058750319E+03  0.12500000000E+03 0.  0.
         25    1    1    2    0    0 -0.11701408689E+03  0.14859391887E+03  0.20704830350E+03  0.30702841764E+03  0.12500000000E+03 0.  0.
</event>
<event>
 4    0  0.2270578E-002  0.2412583E+03  0.7546771E-02  0.1118957E+00
         21   -1    0    0  502  501  0.00000000000E+00  0.00000000000E+00  0.77363180090E+03  0.77363180090E+03  0.00000000000E+00 0. -1.
         21   -1    0    0  501  502 -0.00000000000E+00 -0.00000000000E+00 -0.75236770103E+02  0.75236770103E+02  0.00000000000E+00 0. -1.
         25    1    1    2    0    0 -0.73106588767E+01  0.21934086755E+02 -0.11539422855E+02  0.12764289316E+03  0.12500000000E+03 0.  0.
         25    1    1    2    0    0  0.73106588767E+01 -0.21934086755E+02  0.70993445365E+03  0.72122567784E+03  0.12500000000E+03 0.  0.
</event>
<event>
 4    0  0.2270578E-002  0.2132626E+03  0.7546771E-02  0.1139008E+00
         21   -1    0    0  502  501  0.00000000000E+00  0.00000000000E+00  0.20980485130E+04  0.20980485130E+04  0.00000000000E+00 0.  1.
         21   -1    0    0  501  502 -0.00000000000E+00 -0.00000000000E+00 -0.21677726601E+02  0.21677726601E+02  0.00000000000E+00 0.  1.
         25    1    1    2    0    0  0.90867370345E+02  0.38318134171E+01  0.17683230378E+04  0.17750670207E+04  0.12500000000E+03 0.  0.
         25    1    1    2    0    0 -0.90867370345E+02 -0.38318134171E+01  0.30804774856E+03  0.34465921891E+03  0.12500000000E+03 0.  0.
</event>
<event>
 4    0  0.2270578E-002  0.1859634E+03  0.7546771E-02  0.1162153E+00
         21   -1    0    0  502  501  0.00000000000E+00  0.00000000000E+00  0.68374235504E+02  0.68374235504E+02  0.00000000000E+00 0. -1.
         21   -1    0    0  501  502 -0.00000000000E+00 -0.00000000000E+00 -0.50578070902E+03  0.50578070902E+03  0.00000000000E+00 0. -1.
         25    1    1    2    0    0 -0.13638449760E+03  0.29898408620E+00 -0.24785274219E+03  0.30928433906E+03  0.12500000000E+03 0.  0.
         25    1    1    2    0    0  0.13638449760E+03 -0.29898408620E+00 -0.18955373132E+03  0.26487060546E+03  0.12500000000E+03 0.  0.
</event>
<event>
 4    0  0.2270578E-002  0.1643105E+03  0.7546771E-02  0.1183914E+00
         21   -1    0    0  502  501  0.00000000000E+00  0.00000000000E+00  0.49230839017E+03  0.49230839017E+03  0.00000000000E+00 0. -1.
         21   -1    0    0  501  502 -0.00000000000E+00 -0.00000000000E+00 -0.54839501841E+02  0.54839501841E+02  0.00000000000E+00 0. -1.
         25    1    1    2    0    0 -0.33927361285E+02 -0.83650313202E+02  0.31327996720E+03  0.34916726449E+03  0.12500000000E+03 0.  0.
         25    1    1    2    0    0  0.33927361285E+02  0.83650313202E+02  0.12418892113E+03  0.19798062752E+03  0.12500000000E+03 0.  0.
</event>
<event>
 4    0  0.2270578E-002  0.1768440E+03  0.7546771E-02  0.1170893E+00
         21   -1    0    0  502  501  0.00000000000E+00  0.00000000000E+00  0.28427974487E+03  0.28427974487E+03  0.00000000000E+00 0.  1.
         21   -1    0    0  501  502 -0.00000000000E+00 -0.00000000000E+00 -0.11001071134E+03  0.11001071134E+03  0.00000000000E+00 0.  1.
         25    1    1    2    0    0  0.61728783027E+02 -0.86806891995E+02  0.14007415473E+02  0.16482441215E+03  0.12500000000E+03 0.  0.
         25    1    1    2    0    0 -0.61728783027E+02  0.86806891995E+02  0.16026161806E+03  0.22946604406E+03  0.12500000000E+03 0.  0.
</event>
<event>
 4    0  0.2270578E-002  0.2140175E+03  0.7546771E-02  0.1138423E+00
         21   -1    0    0  502  501  0.00000000000E+00  0.00000000000E+00  0.26923885178E+03  0.26923885178E+03  0.00000000000E+00 0. -1.
         21   -1    0    0  501  502 -0.00000000000E+00 -0.00000000000E+00 -0.17012219784E+03  0.17012219784E+03  0.00000000000E+00 0. -1.
         25    1    1    2    0    0 -0.68239072163E+02 -0.55960781032E+02  0.20315167281E+03  0.25433006537E+03  0.12500000000E+03 0.  0.
         25    1    1    2    0    0  0.68239072163E+02  0.55960781032E+02 -0.10403501887E+03  0.18503098426E+03  0.12500000000E+03 0.  0.
</event>
<event>
 4    0  0.2270578E-002  0.1895113E+03  0.7546771E-02  0.1158903E+00
         21   -1    0    0  502  501  0.00000000000E+00  0.00000000000E+00  0.45659026531E+03  0.45659026531E+03  0.00000000000E+00 0. -1.
         21   -1    0    0  501  502 -0.00000000000E+00 -0.00000000000E+00 -0.78658126293E+02  0.78658126293E+02  0.00000000000E+00 0.  1.
         25    1    1    2    0    0  0.10278938897E+03 -0.24286979938E+02  0.32393108385E+03  0.36292129032E+03  0.12500000000E+03 0.  0.
         25    1    1    2    0    0 -0.10278938897E+03  0.24286979938E+02  0.54001055169E+02  0.17232710129E+03  0.12500000000E+03 0.  0.
</event>
<event>
 4    0  0.2270578E-002  0.1527358E+03  0.7546771E-02  0.1197151E+00
         21   -1    0    0  502  501  0.00000000000E+00  0.00000000000E+00  0.95073180492E+02  0.95073180492E+02  0.00000000000E+00 0. -1.
         21   -1    0    0  501  502 -0.00000000000E+00 -0.00000000000E+00 -0.24537108690E+03  0.24537108690E+03  0.00000000000E+00 0. -1.
         25    1    1    2    0    0  0.59236317677E+02  0.41627771623E+02 -0.19856462619E+02  0.14581183700E+03  0.12500000000E+03 0.  0.
         25    1    1    2    0    0 -0.59236317677E+02 -0.41627771623E+02 -0.13044144379E+03  0.19463243039E+03  0.12500000000E+03 0.  0.
</event>
<event>
 4    0  0.2270578E-002  0.2049209E+03  0.7546771E-02  0.1145652E+00
         21   -1    0    0  502  501  0.00000000000E+00  0.00000000000E+00  0.81085051178E+02  0.81085051178E+02  0.00000000000E+00 0.  1.
         21   -1    0    0  501  502 -0.00000000000E+00 -0.00000000000E+00 -0.51788296244E+03  0.51788296244E+03  0.00000000000E+00 0.  1.
         25    1    1    2    0    0 -0.64769549100E+01  0.11778478911E+03 -0.38148366438E+03  0.41841366335E+03  0.12500000000E+03 0.  0.
         25    1    1    2    0    0  0.64769549100E+01 -0.11778478911E+03 -0.55314246880E+02  0.18055435026E+03  0.12500000000E+03 0.  0.
</event>
<event>
 4    0  0.2270578E-002  0.3380399E+03  0.7546771E-02  0.1067634E+00
         21   -1    0    0  502  501  0.00000000000E+00  0.00000000000E+00  0.86396568301E+03  0.86396568301E+03  0.00000000000E+00 0.  1.
         21   -1    0    0  501  502 -0.00000000000E+00 -0.00000000000E+00 -0.13226333808E+03  0.13226333808E+03  0.00000000000E+00 0.  1.
         25    1    1    2    0    0  0.96815218118E+02 -0.15812553502E+02 -0.73803547009E+02  0.17520041912E+03  0.12500000000E+03 0.  0.
         25    1    1    2    0    0 -0.96815218118E+02  0.15812553502E+02  0.80550589194E+03  0.82102860197E+03  0.12500000000E+03 0.  0.
</event>
<event>
 4    0  0.2270578E-002  0.2306327E+03  0.7546771E-02  0.1126195E+00
         21   -1    0    0  502  501  0.00000000000E+00  0.00000000000E+00  0.82256435457E+02  0.82256435457E+02  0.00000000000E+00 0.  1.
         21   -1    0    0  501  502 -0.00000000000E+00 -0.00000000000E+00 -0.64665362674E+03  0.64665362674E+03  0.00000000000E+00 0.  1.
         25    1    1    2    0    0 -0.16073841652E+03 -0.10296203246E+03 -0.22911560448E+03  0.32335271591E+03  0.12500000000E+03 0.  0.
         25    1    1    2    0    0  0.16073841652E+03  0.10296203246E+03 -0.33528158680E+03  0.40555734628E+03  0.12500000000E+03 0.  0.
</event>
<event>
 4    0  0.2270578E-002  0.2661603E+03  0.7546771E-02  0.1103497E+00
         21   -1    0    0  502  501  0.00000000000E+00  0.00000000000E+00  0.25292835780E+03  0.25292835780E+03  0.00000000000E+00 0. -1.
         21   -1    0    0  501  502 -0.00000000000E+00 -0.00000000000E+00 -0.28008452855E+03  0.28008452855E+03  0.00000000000E+00 0. -1.
         25    1    1    2    0    0  0.16939529067E+03 -0.38245351941E+02  0.14492763695E+03  0.25843082517E+03  0.12500000000E+03 0.  0.
         25    1    1    2    0    0 -0.16939529067E+03  0.38245351941E+02 -0.17208380770E+03  0.27458206117E+03  0.12500000000E+03 0.  0.
</event>
<event>
 4    0  0.2270578E-002  0.2454146E+03  0.7546771E-02  0.1116237E+00
         21   -1    0    0  502  501  0.00000000000E+00  0.00000000000E+00  0.64031203529E+03  0.64031203529E+03  0.00000000000E+00 0. -1.
         21   -1    0    0  501  502 -0.00000000000E+00 -0.00000000000E+00 -0.94060925796E+02  0.94060925796E+02  0.00000000000E+00 0. -1.
         25    1    1    2    0    0 -0.10718491941E+03 -0.74380321848E+02  0.52161130746E+03  0.55201847369E+03  0.12500000000E+03 0.  0.
         25    1    1    2    0    0  0.10718491941E+03  0.74380321848E+02  0.24639802034E+02  0.18235448739E+03  0.12500000000E+03 0.  0.
</event>
<event>
 4    0  0.2270578E-002  0.1839385E+03  0.7546771E-02  0.1164045E+00
         21   -1    0    0  502  501  0.00000000000E+00  0.00000000000E+00  0.16653107231E+03  0.16653107231E+03  0.00000000000E+00 0. -1.
         21   -1    0    0  501  502 -0.00000000000E+00 -0.00000000000E+00 -0.20316548078E+03  0.20316548078E+03  0.00000000000E+00 0. -1.
         25    1    1    2    0    0 -0.58315257569E+02 -0.12154962420E+03 -0.24123755348E+02  0.18542366618E+03  0.12500000000E+03 0.  0.
         25    1    1    2    0    0  0.58315257569E+02  0.12154962420E+03 -0.12510653128E+02  0.18427288691E+03  0.12500000000E+03 0.  0.
</event>
<event>
 4    0  0.2270578E-002  0.2846302E+03  0.7546771E-02  0.1093187E+00
         21   -1    0    0  502  501  0.00000000000E+00  0.00000000000E+00  0.76483197733E+03  0.76483197733E+03  0.00000000000E+00 0. -1.
         21   -1    0    0  501  502 -0.00000000000E+00 -0.00000000000E+00 -0.10592441416E+03  0.10592441416E+03  0.00000000000E+00 0. -1.
         25    1    1    2    0    0 -0.24070064533E+03  0.70371121510E+02  0.40594254451E+03  0.49325778742E+03  0.12500000000E+03 0.  0.
         25    1    1    2    0    0  0.24070064533E+03 -0.70371121510E+02  0.25296501866E+03  0.37749860407E+03  0.12500000000E+03 0.  0.
</event>
<event>
 4    0  0.2270578E-002  0.1971049E+03  0.7546771E-02  0.1152205E+00
         21   -1    0    0  502  501  0.00000000000E+00  0.00000000000E+00  0.78369675941E+02  0.78369675941E+02  0.00000000000E+00 0. -1.
         21   -1    0    0  501  502 -0.00000000000E+00 -0.00000000000E+00 -0.49573181536E+03  0.49573181536E+03  0.00000000000E+00 0. -1.
         25    1    1    2    0    0  0.48934803377E+02  0.13746527097E+03 -0.27272712913E+03  0.33361115489E+03  0.12500000000E+03 0.  0.
         25    1    1    2    0    0 -0.48934803377E+02 -0.13746527097E+03 -0.14463501029E+03  0.24049033641E+03  0.12500000000E+03 0.  0.
</event>
<event>
 4    0  0.2270578E-002  0.6039558E+03  0.7546771E-02  0.9897233E-01
         21   -1    0    0  502  501  0.00000000000E+00  0.00000000000E+00  0.84414395418E+03  0.84414395418E+03  0.00000000000E+00 0.  1.
         21   -1    0    0  501  502 -0.00000000000E+00 -0.00000000000E+00 -0.43210949082E+03  0.43210949082E+03  0.00000000000E+00 0. -1.
         25    1    1    2    0    0  0.45267812135E+03  0.48809713974E+02  0.60393898377E+03  0.76659452506E+03  0.12500000000E+03 0.  0.
         25    1    1    2    0    0 -0.45267812135E+03 -0.48809713974E+02 -0.19190452041E+03  0.50965891995E+03  0.12500000000E+03 0.  0.
</event>
<event>
 4    0  0.2270578E-002  0.2303289E+03  0.7546771E-02  0.1126408E+00
         21   -1    0    0  502  501  0.00000000000E+00  0.00000000000E+00  0.10128075118E+03  0.10128075118E+03  0.00000000000E+00 0.  1.
         21   -1    0    0  501  502 -0.00000000000E+00 -0.00000000000E+00 -0.52380551691E+03  0.52380551691E+03  0.00000000000E+00 0.  1.
         25    1    1    2    0    0  0.86885625402E+02 -0.11086449373E+03 -0.39121143129E+03  0.43417903201E+03  0.12500000000E+03 0.  0.
         25    1    1    2    0    0 -0.86885625402E+02  0.11086449373E+03 -0.31313334446E+02  0.19090723607E+03  0.12500000000E+03 0.  0.
</event>
<event>
 4    0  0.2270578E-002  0.2265508E+03  0.7546771E-02  0.1129091E+00
         21   -1    0    0  502  501  0.00000000000E+00  0.00000000000E+00  0.44556315193E+03  0.44556315193E+03  0.00000000000E+00 0. -1.
         21   -1    0    0  501  502 -0.00000000000E+00 -0.00000000000E+00 -0.11519194611E+03  0.11519194611E+03  0.00000000000E+00 0.  1.
         25    1    1    2    0    0  0.13540533958E+03 -0.13165262647E+03  0.15804752377E+03  0.27617211991E+03  0.12500000000E+03 0.  0.
         25    1    1    2    0    0 -0.13540533958E+03  0.13165262647E+03  0.17232368205E+03  0.28458297813E+03  0.12500000000E+03 0.  0.
</event>
<event>
 4    0  0.2270578E-002  0.2303178E+03  0.7546771E-02  0.1126416E+00
         21   -1    0    0  502  501  0.00000000000E+00  0.00000000000E+00  0.31361349958E+03  0.31361349958E+03  0.00000000000E+00 0. -1.
         21   -1    0    0  501  502 -0.00000000000E+00 -0.00000000000E+00 -0.16914544804E+03  0.16914544804E+03  0.00000000000E+00 0. -1.
         25    1    1    2    0    0 -0.11009026652E+03  0.34683486155E+02 -0.90458527116E+02  0.19269290626E+03  0.12500000000E+03 0.  0.
         25    1    1    2    0    0  0.11009026652E+03 -0.34683486155E+02  0.23492657865E+03  0.29006604136E+03  0.12500000000E+03 0.  0.
</event>
<event>
 4    0  0.2270578E-002  0.1715268E+03  0.7546771E-02  0.1176265E+00
         21   -1    0    0  502  501  0.00000000000E+00  0.00000000000E+00  0.13495377059E+03  0.13495377059E+03  0.00000000000E+00 0.  1.
         21   -1    0    0  501  502 -0.00000000000E+00 -0.00000000000E+00 -0.21801116672E+03  0.21801116672E+03  0.00000000000E+00 0.  1.
         25    1    1    2    0    0 -0.17226341093E+02 -0.10593446216E+03  0.75740428118E+01  0.16492793343E+03  0.12500000000E+03 0.  0.
         25    1    1    2    0    0  0.17226341093E+02  0.10593446216E+03 -0.90631438948E+02  0.18803700388E+03  0.12500000000E+03 0.  0.
</event>
<event>
 4    0  0.2270578E-002  0.1643186E+03  0.7546771E-02  0.1183906E+00
         21   -1    0    0  502  501  0.00000000000E+00  0.00000000000E+00  0.81412891973E+02  0.81412891973E+02  0.00000000000E+00 0. -1.
         21   -1    0    0  501  502 -0.00000000000E+00 -0.00000000000E+00 -0.33165023627E+03  0.33165023627E+03  0.00000000000E+00 0. -1.
         25    1    1    2    0    0  0.99098039901E+02  0.23242380038E+02 -0.16516174387E+03  0.23079001577E+03  0.12500000000E+03 0.  0.
         25    1    1    2    0    0 -0.99098039901E+02 -0.23242380038E+02 -0.85075600428E+02  0.18227311247E+03  0.12500000000E+03 0.  0.
</event>
<event>
 4    0  0.2270578E-002  0.1519121E+03  0.7546771E-02  0.1198143E+00
         21   -1    0    0  502  501  0.00000000000E+00  0.00000000000E+00  0.14338850307E+03  0.14338850307E+03  0.00000000000E+00 0.  1.
         21   -1    0    0  501  502 -0.00000000000E+00 -0.00000000000E+00 -0.16094239765E+03  0.16094239765E+03  0.00000000000E+00 0.  1.
         25    1    1    2    0    0  0.91825258352E+01 -0.74891602170E+02  0.33236040096E+02  0.14974212907E+03  0.12500000000E+03 0.  0.
         25    1    1    2    0    0 -0.91825258352E+01  0.74891602170E+02 -0.50789934670E+02  0.15458877165E+03  0.12500000000E+03 0.  0.
</event>
<event>
 4    0  0.2270578E-002  0.2026711E+03  0.7546771E-02  0.1147505E+00
         21   -1    0    0  502  501  0.00000000000E+00  0.00000000000E+00  0.14251262939E+03  0.14251262939E+03  0.00000000000E+00 0. -1.
         21   -1    0    0  501  502 -0.00000000000E+00 -0.00000000000E+00 -0.28822409753E+03  0.28822409753E+03  0.00000000000E+00 0. -1.
         25    1    1    2    0    0  0.35596892751E+01 -0.10340273127E+03  0.56184139749E+02  0.17171620128E+03  0.12500000000E+03 0.  0.
         25    1    1    2    0    0 -0.35596892751E+01  0.10340273127E+03 -0.20189560789E+03  0.25902052565E+03  0.12500000000E+03 0.  0.
</event>
<event>
 4    0  0.2270578E-002  0.1874223E+03  0.7546771E-02  0.1160807E+00
         21   -1    0    0  502  501  0.00000000000E+00  0.00000000000E+00  0.26390856921E+03  0.26390856921E+03  0.00000000000E+00 0. -1.
         21   -1    0    0  501  502 -0.00000000000E+00 -0.00000000000E+00 -0.13310333672E+03  0.13310333672E+03  0.00000000000E+00 0. -1.
         25    1    1    2    0    0 -0.10871417073E+03  0.85053688454E+02  0.42954640828E+02  0.19110992126E+03  0.12500000000E+03 0.  0.
         25    1    1    2    0    0  0.10871417073E+03 -0.85053688454E+02  0.87850591664E+02  0.20590198467E+03  0.12500000000E+03 0.  0.
</event>
<event>
 4    0  0.2270578E-002  0.1874639E+03  0.7546771E-02  0.1160769E+00
         21   -1    0    0  502  501  0.00000000000E+00  0.00000000000E+00  0.66085436219E+02  0.66085436219E+02  0.00000000000E+00 0. -1.
         21   -1    0    0  501  502 -0.00000000000E+00 -0.00000000000E+00 -0.53177682152E+03  0.53177682152E+03  0.00000000000E+00 0. -1.
         25    1    1    2    0    0 -0.98094552951E+02 -0.85543644175E+02 -0.31380157646E+03  0.36198989732E+03  0.12500000000E+03 0.  0.
         25    1    1    2    0    0  0.98094552951E+02  0.85543644175E+02 -0.15188980884E+03  0.23587236042E+03  0.12500000000E+03 0.  0.
</event>
<event>
 4    0  0.2270578E-002  0.1949190E+03  0.7546771E-02  0.1154098E+00
         21   -1    0    0  502  501  0.00000000000E+00  0.00000000000E+00  0.19544420099E+03  0.19544420099E+03  0.00000000000E+00 0. -1.
         21   -1    0    0  501  502 -0.00000000000E+00 -0.00000000000E+00 -0.19439513055E+03  0.19439513055E+03  0.00000000000E+00 0. -1.
         25    1    1    2    0    0 -0.99866539786E+02  0.82040784407E+02  0.75786915678E+02  0.19512219931E+03  0.12500000000E+03 0.  0.
         25    1    1    2    0    0  0.99866539786E+02 -0.82040784407E+02 -0.74737845239E+02  0.19471713223E+03  0.12500000000E+03 0.  0.
</event>
<event>
 4    0  0.2270578E-002  0.2214005E+03  0.7546771E-02  0.1132843E+00
         21   -1    0    0  502  501  0.00000000000E+00  0.00000000000E+00  0.48295751548E+03  0.48295751548E+03  0.00000000000E+00 0.  1.
         21   -1    0    0  501  502 -0.00000000000E+00 -0.00000000000E+00 -0.10149582095E+03  0.10149582095E+03  0.00000000000E+00 0.  1.
         25    1    1    2    0    0 -0.17150379329E+03 -0.27644260700E+02  0.11588638013E+03  0.24337709293E+03  0.12500000000E+03 0.  0.
         25    1    1    2    0    0  0.17150379329E+03  0.27644260700E+02  0.26557531440E+03  0.34107624350E+03  0.12500000000E+03 0.  0.
</event>
<event>
 4    0  0.2270578E-002  0.3363018E+03  0.7546771E-02  0.1068382E+00
         21   -1    0    0  502  501  0.00000000000E+00  0.00000000000E+00  0.57695656420E+02  0.57695656420E+02  0.00000000000E+00 0.  1.
         21   -1    0    0  501  502 -0.00000000000E+00 -0.00000000000E+00 -0.19602674997E+04  0.19602674997E+04  0.00000000000E+00 0.  1.
         25    1    1    2    0    0 -0.30502648086E+03  0.47309223010E+02 -0.10918363088E+04  0.11414950030E+04  0.12500000000E+03 0.  0.
         25    1    1    2    0    0  0.30502648086E+03 -0.47309223010E+02 -0.81073553443E+03  0.87646815309E+03  0.12500000000E+03 0.  0.
</event>
<event>
 4    0  0.2270578E-002  0.1818304E+03  0.7546771E-02  0.1166043E+00
         21   -1    0    0  502  501  0.00000000000E+00  0.00000000000E+00  0.23140625574E+02  0.23140625574E+02  0.00000000000E+00 0. -1.
         21   -1    0    0  501  502 -0.00000000000E+00 -0.00000000000E+00 -0.14287553875E+04  0.14287553875E+04  0.00000000000E+00 0. -1.
         25    1    1    2    0    0  0.49087102112E+02  0.10417219736E+03 -0.96080413288E+03  0.97572074491E+03  0.12500000000E+03 0.  0.
         25    1    1    2    0    0 -0.49087102112E+02 -0.10417219736E+03 -0.44481062906E+03  0.47617526817E+03  0.12500000000E+03 0.  0.
</event>
<event>
 4    0  0.2270578E-002  0.2128318E+03  0.7546771E-02  0.1139343E+00
         21   -1    0    0  502  501  0.00000000000E+00  0.00000000000E+00  0.13180030889E+03  0.13180030889E+03  0.00000000000E+00 0. -1.
         21   -1    0    0  501  502 -0.00000000000E+00 -0.00000000000E+00 -0.34368185416E+03  0.34368185416E+03  0.00000000000E+00 0. -1.
         25    1    1    2    0    0 -0.51221056934E+01  0.16924967408E+03 -0.70604827148E+02  0.22199488679E+03  0.12500000000E+03 0.  0.
         25    1    1    2    0    0  0.51221056934E+01 -0.16924967408E+03 -0.14127671812E+03  0.25348727626E+03  0.12500000000E+03 0.  0.
</event>
<event>
 4    0  0.2270578E-002  0.4367539E+03  0.7546771E-02  0.1031747E+00
         21   -1    0    0  502  501  0.00000000000E+00  0.00000000000E+00  0.12618971024E+03  0.12618971024E+03  0.00000000000E+00 0. -1.
         21   -1    0    0  501  502 -0.00000000000E+00 -0.00000000000E+00 -0.15116443714E+04  0.15116443714E+04  0.00000000000E+00 0. -1.
         25    1    1    2    0    0  0.22613591735E+03  0.11740177536E+03 -0.70268915905E+02  0.29237535894E+03  0.12500000000E+03 0.  0.
         25    1    1    2    0    0 -0.22613591735E+03 -0.11740177536E+03 -0.13151857453E+04  0.13454587227E+04  0.12500000000E+03 0.  0.
</event>
<event>
 4    0  0.2270578E-002  0.2387641E+03  0.7546771E-02  0.1120619E+00
         21   -1    0    0  502  501  0.00000000000E+00  0.00000000000E+00  0.21009063836E+03  0.21009063836E+03  0.00000000000E+00 0. -1.
         21   -1    0    0  501  502 -0.00000000000E+00 -0.00000000000E+00 -0.27135095552E+03  0.27135095552E+03  0.00000000000E+00 0.  1.
         25    1    1    2    0    0  0.35249563358E+02 -0.17077732430E+03 -0.13625450802E+03  0.25416080966E+03  0.12500000000E+03 0.  0.
         25    1    1    2    0    0 -0.35249563358E+02  0.17077732430E+03  0.74994190865E+02  0.22728078422E+03  0.12500000000E+03 0.  0.
</event>
<event>
 4    0  0.2270578E-002  0.4813366E+03  0.7546771E-02  0.1018768E+00
         21   -1    0    0  502  501  0.00000000000E+00  0.00000000000E+00  0.10018858036E+03  0.10018858036E+03  0.00000000000E+00 0.  1.
         21   -1    0    0  501  502 -0.00000000000E+00 -0.00000000000E+00 -0.23124882572E+04  0.23124882572E+04  0.00000000000E+00 0.  1.
         25    1    1    2    0    0  0.23125553455E+03 -0.27301010116E+03 -0.36248751259E+03  0.52443858972E+03  0.12500000000E+03 0.  0.
         25    1    1    2    0    0 -0.23125553455E+03  0.27301010116E+03 -0.18498121642E+04  0.18882382478E+04  0.12500000000E+03 0.  0.
</event>
<event>
 4    0  0.2270578E-002  0.2556391E+03  0.7546771E-02  0.1109792E+00
         21   -1    0    0  502  501  0.00000000000E+00  0.00000000000E+00  0.72723121883E+02  0.72723121883E+02  0.00000000000E+00 0. -1.
         21   -1    0    0  501  502 -0.00000000000E+00 -0.00000000000E+00 -0.89863225625E+03  0.89863225625E+03  0.00000000000E+00 0. -1.
         25    1    1    2    0    0  0.10329858975E+03  0.16832009234E+03 -0.60969840524E+03  0.65296201841E+03  0.12500000000E+03 0.  0.
         25    1    1    2    0    0 -0.10329858975E+03 -0.16832009234E+03 -0.21621072913E+03  0.31839335973E+03  0.12500000000E+03 0.  0.
</event>
<event>
 4    0  0.2270578E-002  0.1959267E+03  0.7546771E-02  0.1153222E+00
         21   -1    0    0  502  501  0.00000000000E+00  0.00000000000E+00  0.82331590584E+03  0.82331590584E+03  0.00000000000E+00 0. -1.
         21   -1    0    0  501  502 -0.00000000000E+00 -0.00000000000E+00 -0.46625219382E+02  0.46625219382E+02  0.00000000000E+00 0. -1.
         25    1    1    2    0    0  0.43734324828E+02 -0.23692757009E+02  0.72126002240E+02  0.15264729969E+03  0.12500000000E+03 0.  0.
         25    1    1    2    0    0 -0.43734324828E+02  0.23692757009E+02  0.70456468422E+03  0.71729382554E+03  0.12500000000E+03 0.  0.
</event>
<event>
 4    0  0.2270578E-002  0.1844962E+03  0.7546771E-02  0.1163521E+00
         21   -1    0    0  502  501  0.00000000000E+00  0.00000000000E+00  0.22111675794E+02  0.22111675794E+02  0.00000000000E+00 0.  1.
         21   -1    0    0  501  502 -0.00000000000E+00 -0.00000000000E+00 -0.15394057295E+04  0.15394057295E+04  0.00000000000E+00 0.  1.
         25    1    1    2    0    0  0.52991772868E+02 -0.81679073914E+02 -0.35864858982E+03  0.39208852328E+03  0.12500000000E+03 0.  0.
         25    1    1    2    0    0 -0.52991772868E+02  0.81679073914E+02 -0.11586454639E+04  0.11694288821E+04  0.12500000000E+03 0.  0.
</event>
<event>
 4    0  0.2270578E-002  0.1673174E+03  0.7546771E-02  0.1180675E+00
         21   -1    0    0  502  501  0.00000000000E+00  0.00000000000E+00  0.66581702693E+02  0.66581702693E+02  0.00000000000E+00 0. -1.
         21   -1    0    0  501  502 -0.00000000000E+00 -0.00000000000E+00 -0.42046255711E+03  0.42046255711E+03  0.00000000000E+00 0. -1.
         25    1    1    2    0    0 -0.24907592210E+02  0.10151064571E+02 -0.33401229429E+03  0.35764877324E+03  0.12500000000E+03 0.  0.
         25    1    1    2    0    0  0.24907592210E+02 -0.10151064571E+02 -0.19868560125E+02  0.12939548656E+03  0.12500000000E+03 0.  0.
</event>
<event>
 4    0  0.2270578E-002  0.1680281E+03  0.7546771E-02  0.1179920E+00
         21   -1    0    0  502  501  0.00000000000E+00  0.00000000000E+00  0.70213585714E+03  0.70213585714E+03  0.00000000000E+00 0. -1.
         21   -1    0    0  501  502 -0.00000000000E+00 -0.00000000000E+00 -0.40210800090E+02  0.40210800090E+02  0.00000000000E+00 0. -1.
         25    1    1    2    0    0 -0.70759217987E+01 -0.20370113779E+02  0.87537296106E+02  0.15411939662E+03  0.12500000000E+03 0.  0.
         25    1    1    2    0    0  0.70759217987E+01  0.20370113779E+02  0.57438776094E+03  0.58822726061E+03  0.12500000000E+03 0.  0.
</event>
<event>
 4    0  0.2270578E-002  0.3284075E+03  0.7546771E-02  0.1071844E+00
         21   -1    0    0  502  501  0.00000000000E+00  0.00000000000E+00  0.39980795532E+03  0.39980795532E+03  0.00000000000E+00 0.  1.
         21   -1    0    0  501  502 -0.00000000000E+00 -0.00000000000E+00 -0.26975829288E+03  0.26975829288E+03  0.00000000000E+00 0.  1.
         25    1    1    2    0    0  0.15010284545E+03 -0.19957694143E+03  0.24119381858E+03  0.36900037654E+03  0.12500000000E+03 0.  0.
         25    1    1    2    0    0 -0.15010284545E+03  0.19957694143E+03 -0.11114415614E+03  0.30056587166E+03  0.12500000000E+03 0.  0.
</event>
<event>
 4    0  0.2270578E-002  0.2402341E+03  0.7546771E-02  0.1119637E+00
         21   -1    0    0  502  501  0.00000000000E+00  0.00000000000E+00  0.20150160117E+04  0.20150160117E+04  0.00000000000E+00 0.  1.
         21   -1    0    0  501  502 -0.00000000000E+00 -0.00000000000E+00 -0.28641168981E+02  0.28641168981E+02  0.00000000000E+00 0.  1.
         25    1    1    2    0    0  0.16076747748E+03  0.41437077530E+02  0.48057449573E+03  0.52358386067E+03  0.12500000000E+03 0.  0.
         25    1    1    2    0    0 -0.16076747748E+03 -0.41437077530E+02  0.15058003470E+04  0.15200733200E+04  0.12500000000E+03 0.  0.
</event>
<event>
 4    0  0.2270578E-002  0.2761636E+03  0.7546771E-02  0.1097803E+00
         21   -1    0    0  502  501  0.00000000000E+00  0.00000000000E+00  0.18803516210E+03  0.18803516210E+03  0.00000000000E+00 0.  1.
         21   -1    0    0  501  502 -0.00000000000E+00 -0.00000000000E+00 -0.40559623980E+03  0.40559623980E+03  0.00000000000E+00 0.  1.
         25    1    1    2    0    0 -0.19111393475E+03  0.63180345803E+02  0.43691074399E+02  0.24093609554E+03  0.12500000000E+03 0.  0.
         25    1    1    2    0    0  0.19111393475E+03 -0.63180345803E+02 -0.26125215211E+03  0.35269530636E+03  0.12500000000E+03 0.  0.
</event>
<event>
 4    0  0.2270578E-002  0.2423688E+03  0.7546771E-02  0.1118225E+00
         21   -1    0    0  502  501  0.00000000000E+00  0.00000000000E+00  0.24230565282E+03  0.24230565282E+03  0.00000000000E+00 0. -1.
         21   -1    0    0  501  502 -0.00000000000E+00 -0.00000000000E+00 -0.24243194084E+03  0.24243194084E+03  0.00000000000E+00 0. -1.
         25    1    1    2    0    0  0.66737671293E+02  0.10688920494E+02  0.19627702640E+03  0.24231764460E+03  0.12500000000E+03 0.  0.
         25    1    1    2    0    0 -0.66737671293E+02 -0.10688920494E+02 -0.19640331442E+03  0.24241994907E+03  0.12500000000E+03 0.  0.
</event>
<event>
 4    0  0.2270578E-002  0.1875208E+03  0.7546771E-02  0.1160717E+00
         21   -1    0    0  502  501  0.00000000000E+00  0.00000000000E+00  0.86658926946E+03  0.86658926946E+03  0.00000000000E+00 0. -1.
         21   -1    0    0  501  502 -0.00000000000E+00 -0.00000000000E+00 -0.40577534879E+02  0.40577534879E+02  0.00000000000E+00 0. -1.
         25    1    1    2    0    0 -0.12414171286E+03  0.51858345070E+02  0.32126175041E+03  0.37004670665E+03  0.12500000000E+03 0.  0.
         25    1    1    2    0    0  0.12414171286E+03 -0.51858345070E+02  0.50474998417E+03  0.53712009769E+03  0.12500000000E+03 0.  0.
</event>
<event>
 4    0  0.2270578E-002  0.2355683E+03  0.7546771E-02  0.1122781E+00
         21   -1    0    0  502  501  0.00000000000E+00  0.00000000000E+00  0.47928877422E+03  0.47928877422E+03  0.00000000000E+00 0.  1.
         21   -1    0    0  501  502 -0.00000000000E+00 -0.00000000000E+00 -0.11578072263E+03  0.11578072263E+03  0.00000000000E+00 0.  1.
         25    1    1    2    0    0 -0.39738378116E+02  0.18477191831E+03  0.10041117728E+03  0.24784512304E+03  0.12500000000E+03 0.  0.
         25    1    1    2    0    0  0.39738378116E+02 -0.18477191831E+03  0.26309687432E+03  0.34722437381E+03  0.12500000000E+03 0.  0.
</event>
<event>
 4    0  0.2270578E-002  0.2287705E+03  0.7546771E-02  0.1127508E+00
         21   -1    0    0  502  501  0.00000000000E+00  0.00000000000E+00  0.30729045199E+03  0.30729045199E+03  0.00000000000E+00 0.  1.
         21   -1    0    0  501  502 -0.00000000000E+00 -0.00000000000E+00 -0.17031427995E+03  0.17031427995E+03  0.00000000000E+00 0.  1.
         25    1    1    2    0    0  0.13790078652E+03  0.10471629549E+03  0.15411456783E+03  0.26335988586E+03  0.12500000000E+03 0.  0.
         25    1    1    2    0    0 -0.13790078652E+03 -0.10471629549E+03 -0.17138395791E+02  0.21424484608E+03  0.12500000000E+03 0.  0.
</event>
<event>
 4    0  0.2270578E-002  0.2343660E+03  0.7546771E-02  0.1123604E+00
         21   -1    0    0  502  501  0.00000000000E+00  0.00000000000E+00  0.10283207360E+03  0.10283207360E+03  0.00000000000E+00 0.  1.
         21   -1    0    0  501  502 -0.00000000000E+00 -0.00000000000E+00 -0.53414665389E+03  0.53414665389E+03  0.00000000000E+00 0.  1.
         25    1    1    2    0    0 -0.13180470003E+03  0.48766029822E+02 -0.25639706368E+02  0.18982360010E+03  0.12500000000E+03 0.  0.
         25    1    1    2    0    0  0.13180470003E+03 -0.48766029822E+02 -0.40567487392E+03  0.44715512738E+03  0.12500000000E+03 0.  0.
</event>
<event>
 4    0  0.2270578E-002  0.2021745E+03  0.7546771E-02  0.1147917E+00
         21   -1    0    0  502  501  0.00000000000E+00  0.00000000000E+00  0.26979672706E+03  0.26979672706E+03  0.00000000000E+00 0. -1.
         21   -1    0    0  501  502 -0.00000000000E+00 -0.00000000000E+00 -0.15150114652E+03  0.15150114652E+03  0.00000000000E+00 0. -1.
         25    1    1    2    0    0 -0.11242153357E+03  0.96416652631E+02  0.11913488060E+03  0.22749261942E+03  0.12500000000E+03 0.  0.
         25    1    1    2    0    0  0.11242153357E+03 -0.96416652631E+02 -0.83930006475E+00  0.19380525416E+03  0.12500000000E+03 0.  0.
</event>
<event>
 4    0  0.2270578E-002  0.3403199E+03  0.7546771E-02  0.1066660E+00
         21   -1    0    0  502  501  0.00000000000E+00  0.00000000000E+00  0.26555588923E+03  0.26555588923E+03  0.00000000000E+00 0.  1.
         21   -1    0    0  501  502 -0.00000000000E+00 -0.00000000000E+00 -0.43613268507E+03  0.43613268507E+03  0.00000000000E+00 0.  1.
         25    1    1    2    0    0 -0.29529240384E+02 -0.30315564846E+03  0.34986166761E+01  0.32926063164E+03  0.12500000000E+03 0.  0.
         25    1    1    2    0    0  0.29529240384E+02  0.30315564846E+03 -0.17407541252E+03  0.37242794266E+03  0.12500000000E+03 0.  0.
</event>
<event>
 4    0  0.2270578E-002  0.1509244E+03  0.7546771E-02  0.1199342E+00
         21   -1    0    0  502  501  0.00000000000E+00  0.00000000000E+00  0.10998466387E+03  0.10998466387E+03  0.00000000000E+00 0. -1.
         21   -1    0    0  501  502 -0.00000000000E+00 -0.00000000000E+00 -0.20710312817E+03  0.20710312817E+03  0.00000000000E+00 0. -1.
         25    1    1    2    0    0  0.13956562044E+02  0.82951182789E+02 -0.39312357054E+02  0.15571173934E+03  0.12500000000E+03 0.  0.
         25    1    1    2    0    0 -0.13956562044E+02 -0.82951182789E+02 -0.57806107244E+02  0.16137605270E+03  0.12500000000E+03 0.  0.
</event>
<event>
 4    0  0.2270578E-002  0.2836746E+03  0.7546771E-02  0.1093699E+00
         21   -1    0    0  502  501  0.00000000000E+00  0.00000000000E+00  0.83658416742E+03  0.83658416742E+03  0.00000000000E+00 0.  1.
         21   -1    0    0  501  502 -0.00000000000E+00 -0.00000000000E+00 -0.96190264913E+02  0.96190264913E+02  0.00000000000E+00 0.  1.
         25    1    1    2    0    0  0.18271388449E+03  0.27883969082E+01  0.78612081652E+02  0.23494041399E+03  0.12500000000E+03 0.  0.
         25    1    1    2    0    0 -0.18271388449E+03 -0.27883969082E+01  0.66178182085E+03  0.69783401834E+03  0.12500000000E+03 0.  0.
</event>
<event>
 4    0  0.2270578E-002  0.2062725E+03  0.7546771E-02  0.1144552E+00
         21   -1    0    0  502  501  0.00000000000E+00  0.00000000000E+00  0.10639850958E+03  0.10639850958E+03  0.00000000000E+00 0.  1.
         21   -1    0    0  501  502 -0.00000000000E+00 -0.00000000000E+00 -0.39989617088E+03  0.39989617088E+03  0.00000000000E+00 0. -1.
         25    1    1    2    0    0  0.14200506662E+03  0.82166780635E+02 -0.14988678871E+03  0.25496640605E+03  0.12500000000E+03 0.  0.
         25    1    1    2    0    0 -0.14200506662E+03 -0.82166780635E+02 -0.14361087259E+03  0.25132827440E+03  0.12500000000E+03 0.  0.
</event>
<event>
 4    0  0.2270578E-002  0.1813419E+03  0.7546771E-02  0.1166511E+00
         21   -1    0    0  502  501  0.00000000000E+00  0.00000000000E+00  0.28843195904E+02  0.28843195904E+02  0.00000000000E+00 0. -1.
         21   -1    0    0  501  502 -0.00000000000E+00 -0.00000000000E+00 -0.11401267486E+04  0.11401267486E+04  0.00000000000E+00 0. -1.
         25    1    1    2    0    0 -0.82540017692E+02 -0.10094918502E+03 -0.60724241341E+03  0.63353921829E+03  0.12500000000E+03 0.  0.
         25    1    1    2    0    0  0.82540017692E+02  0.10094918502E+03 -0.50404113933E+03  0.53543072625E+03  0.12500000000E+03 0.  0.
</event>
<event>
 4    0  0.2270578E-002  0.2623637E+03  0.7546771E-02  0.1105731E+00
         21   -1    0    0  502  501  0.00000000000E+00  0.00000000000E+00  0.68197689282E+02  0.68197689282E+02  0.00000000000E+00 0.  1.
         21   -1    0    0  501  502 -0.00000000000E+00 -0.00000000000E+00 -0.10093408113E+04  0.10093408113E+04  0.00000000000E+00 0.  1.
         25    1    1    2    0    0  0.32589901826E+02 -0.10287988869E+03 -0.88922461401E+03  0.90442898415E+03  0.12500000000E+03 0.  0.
         25    1    1    2    0    0 -0.32589901826E+02  0.10287988869E+03 -0.51918507971E+02  0.17310951640E+03  0.12500000000E+03 0.  0.
</event>
<event>
 4    0  0.2270578E-002  0.2196453E+03  0.7546771E-02  0.1134148E+00
         21   -1    0    0  502  501  0.00000000000E+00  0.00000000000E+00  0.10199398825E+03  0.10199398825E+03  0.00000000000E+00 0. -1.
         21   -1    0    0  501  502 -0.00000000000E+00 -0.00000000000E+00 -0.47300879204E+03  0.47300879204E+03  0.00000000000E+00 0. -1.
         25    1    1    2    0    0  0.13617638825E+03 -0.11598608446E+03 -0.21815929914E+03  0.30856970088E+03  0.12500000000E+03 0.  0.
         25    1    1    2    0    0 -0.13617638825E+03  0.11598608446E+03 -0.15285550465E+03  0.26643307941E+03  0.12500000000E+03 0.  0.
</event>
<event>
 4    0  0.2270578E-002  0.2379534E+03  0.7546771E-02  0.1121164E+00
         21   -1    0    0  502  501  0.00000000000E+00  0.00000000000E+00  0.85046513414E+03  0.85046513414E+03  0.00000000000E+00 0.  1.
         21   -1    0    0  501  502 -0.00000000000E+00 -0.00000000000E+00 -0.66577448463E+02  0.66577448463E+02  0.00000000000E+00 0.  1.
         25    1    1    2    0    0  0.89649315852E+02 -0.14991194222E+03  0.19462120240E+03  0.28984996581E+03  0.12500000000E+03 0.  0.
         25    1    1    2    0    0 -0.89649315852E+02  0.14991194222E+03  0.58926648328E+03  0.62719261680E+03  0.12500000000E+03 0.  0.
</event>
<event>
 4    0  0.2270578E-002  0.2346358E+03  0.7546771E-02  0.1123419E+00
         21   -1    0    0  502  501  0.00000000000E+00  0.00000000000E+00  0.21331006220E+03  0.21331006220E+03  0.00000000000E+00 0. -1.
         21   -1    0    0  501  502 -0.00000000000E+00 -0.00000000000E+00 -0.25809351102E+03  0.25809351102E+03  0.00000000000E+00 0. -1.
         25    1    1    2    0    0 -0.18413593389E+03  0.71723271102E+02 -0.41939660063E+02  0.23755884503E+03  0.12500000000E+03 0.  0.
         25    1    1    2    0    0  0.18413593389E+03 -0.71723271102E+02 -0.28437887533E+01  0.23384472819E+03  0.12500000000E+03 0.  0.
</event>
<event>
 4    0  0.2270578E-002  0.2217435E+03  0.7546771E-02  0.1132590E+00
         21   -1    0    0  502  501  0.00000000000E+00  0.00000000000E+00  0.97242277053E+02  0.97242277053E+02  0.00000000000E+00 0. -1.
         21   -1    0    0  501  502 -0.00000000000E+00 -0.00000000000E+00 -0.50564612416E+03  0.50564612416E+03  0.00000000000E+00 0. -1.
         25    1    1    2    0    0 -0.62665631137E+02 -0.15292956198E+02  0.28829178291E+02  0.14358613219E+03  0.12500000000E+03 0.  0.
         25    1    1    2    0    0  0.62665631137E+02  0.15292956198E+02 -0.43723302540E+03  0.45930226903E+03  0.12500000000E+03 0.  0.
</event>
<event>
 4    0  0.2270578E-002  0.3219345E+03  0.7546771E-02  0.1074762E+00
         21   -1    0    0  502  501  0.00000000000E+00  0.00000000000E+00  0.12824909902E+03  0.12824909902E+03  0.00000000000E+00 0.  1.
         21   -1    0    0  501  502 -0.00000000000E+00 -0.00000000000E+00 -0.80812920735E+03  0.80812920735E+03  0.00000000000E+00 0.  1.
         25    1    1    2    0    0  0.13189549481E+03  0.17964329446E+03 -0.55147157462E+02  0.26140838504E+03  0.12500000000E+03 0.  0.
         25    1    1    2    0    0 -0.13189549481E+03 -0.17964329446E+03 -0.62473295087E+03  0.67496992132E+03  0.12500000000E+03 0.  0.
</event>
<event>
 4    0  0.2270578E-002  0.1934638E+03  0.7546771E-02  0.1155374E+00
         21   -1    0    0  502  501  0.00000000000E+00  0.00000000000E+00  0.10585896850E+03  0.10585896850E+03  0.00000000000E+00 0.  1.
         21   -1    0    0  501  502 -0.00000000000E+00 -0.00000000000E+00 -0.35356711443E+03  0.35356711443E+03  0.00000000000E+00 0.  1.
         25    1    1    2    0    0 -0.11053941683E+03 -0.40970212520E+02 -0.18280102806E+02  0.17279086534E+03  0.12500000000E+03 0.  0.
         25    1    1    2    0    0  0.11053941683E+03  0.40970212520E+02 -0.22942804312E+03  0.28663521758E+03  0.12500000000E+03 0.  0.
</event>
<event>
 4    0  0.2270578E-002  0.2115226E+03  0.7546771E-02  0.1140366E+00
         21   -1    0    0  502  501  0.00000000000E+00  0.00000000000E+00  0.22224568219E+03  0.22224568219E+03  0.00000000000E+00 0.  1.
         21   -1    0    0  501  502 -0.00000000000E+00 -0.00000000000E+00 -0.20131691170E+03  0.20131691170E+03  0.00000000000E+00 0.  1.
         25    1    1    2    0    0  0.88618386893E+02 -0.14261987715E+03  0.40885199296E+02  0.21328442834E+03  0.12500000000E+03 0.  0.
         25    1    1    2    0    0 -0.88618386893E+02  0.14261987715E+03 -0.19956428803E+02  0.21027816554E+03  0.12500000000E+03 0.  0.
</event>
<event>
 4    0  0.2270578E-002  0.2066901E+03  0.7546771E-02  0.1144214E+00
         21   -1    0    0  502  501  0.00000000000E+00  0.00000000000E+00  0.18492713561E+03  0.18492713561E+03  0.00000000000E+00 0. -1.
         21   -1    0    0  501  502 -0.00000000000E+00 -0.00000000000E+00 -0.23101417995E+03  0.23101417995E+03  0.00000000000E+00 0. -1.
         25    1    1    2    0    0  0.12200356262E+03 -0.56357172031E+02 -0.11868394049E+03  0.21856778780E+03  0.12500000000E+03 0.  0.
         25    1    1    2    0    0 -0.12200356262E+03  0.56357172031E+02  0.72596896154E+02  0.19737352777E+03  0.12500000000E+03 0.  0.
</event>
<event>
 4    0  0.2270578E-002  0.2359380E+03  0.7546771E-02  0.1122529E+00
         21   -1    0    0  502  501  0.00000000000E+00  0.00000000000E+00  0.87268806015E+02  0.87268806015E+02  0.00000000000E+00 0.  1.
         21   -1    0    0  501  502 -0.00000000000E+00 -0.00000000000E+00 -0.63787650084E+03  0.63787650084E+03  0.00000000000E+00 0.  1.
         25    1    1    2    0    0  0.18454490728E+03  0.73882895468E+02 -0.31055546685E+03  0.38933944449E+03  0.12500000000E+03 0.  0.
         25    1    1    2    0    0 -0.18454490728E+03 -0.73882895468E+02 -0.24005222797E+03  0.33580586237E+03  0.12500000000E+03 0.  0.
</event>
<event>
 4    0  0.2270578E-002  0.1399871E+03  0.7546771E-02  0.1213346E+00
         21   -1    0    0  502  501  0.00000000000E+00  0.00000000000E+00  0.15604816282E+03  0.15604816282E+03  0.00000000000E+00 0.  1.
         21   -1    0    0  501  502 -0.00000000000E+00 -0.00000000000E+00 -0.12557909090E+03  0.12557909090E+03  0.00000000000E+00 0.  1.
         25    1    1    2    0    0  0.33577679059E+02 -0.22127529919E+02  0.64042133706E+02  0.14609408955E+03  0.12500000000E+03 0.  0.
         25    1    1    2    0    0 -0.33577679059E+02  0.22127529919E+02 -0.33573061783E+02  0.13553316417E+03  0.12500000000E+03 0.  0.
</event>
<event>
 4    0  0.2270578E-002  0.2146576E+03  0.7546771E-02  0.1137930E+00
         21   -1    0    0  502  501  0.00000000000E+00  0.00000000000E+00  0.15318091601E+03  0.15318091601E+03  0.00000000000E+00 0. -1.
         21   -1    0    0  501  502 -0.00000000000E+00 -0.00000000000E+00 -0.30080708537E+03  0.30080708537E+03  0.00000000000E+00 0. -1.
         25    1    1    2    0    0  0.15515203258E+03  0.74603144658E+02 -0.43621948937E+02  0.21717655683E+03  0.12500000000E+03 0.  0.
         25    1    1    2    0    0 -0.15515203258E+03 -0.74603144658E+02 -0.10400422042E+03  0.23681144455E+03  0.12500000000E+03 0.  0.
</event>
<event>
 4    0  0.2270578E-002  0.2544119E+03  0.7546771E-02  0.1110548E+00
         21   -1    0    0  502  501  0.00000000000E+00  0.00000000000E+00  0.86471901990E+03  0.86471901990E+03  0.00000000000E+00 0.  1.
         21   -1    0    0  501  502 -0.00000000000E+00 -0.00000000000E+00 -0.74851388222E+02  0.74851388222E+02  0.00000000000E+00 0. -1.
         25    1    1    2    0    0 -0.13182275474E+03  0.15838890729E+03  0.54535863114E+03  0.59624266971E+03  0.12500000000E+03 0.  0.
         25    1    1    2    0    0  0.13182275474E+03 -0.15838890729E+03  0.24450900053E+03  0.34332773841E+03  0.12500000000E+03 0.  0.
</event>
<event>
 4    0  0.2270578E-002  0.1718438E+03  0.7546771E-02  0.1175939E+00
         21   -1    0    0  502  501  0.00000000000E+00  0.00000000000E+00  0.27065767514E+03  0.27065767514E+03  0.00000000000E+00 0. -1.
         21   -1    0    0  501  502 -0.00000000000E+00 -0.00000000000E+00 -0.10910568858E+03  0.10910568858E+03  0.00000000000E+00 0. -1.
         25    1    1    2    0    0  0.94462863258E+02 -0.39760667283E+02  0.14521695550E+03  0.21729497776E+03  0.12500000000E+03 0.  0.
         25    1    1    2    0    0 -0.94462863258E+02  0.39760667283E+02  0.16335031064E+02  0.16246838596E+03  0.12500000000E+03 0.  0.
</event>
<event>
 4    0  0.2270578E-002  0.2175290E+03  0.7546771E-02  0.1135739E+00
         21   -1    0    0  502  501  0.00000000000E+00  0.00000000000E+00  0.40556568201E+03  0.40556568201E+03  0.00000000000E+00 0. -1.
         21   -1    0    0  501  502 -0.00000000000E+00 -0.00000000000E+00 -0.11667376656E+03  0.11667376656E+03  0.00000000000E+00 0. -1.
         25    1    1    2    0    0 -0.63315063518E+02  0.68632967748E+02  0.32639358408E+03  0.36176933709E+03  0.12500000000E+03 0.  0.
         25    1    1    2    0    0  0.63315063518E+02 -0.68632967748E+02 -0.37501668630E+02  0.16047011149E+03  0.12500000000E+03 0.  0.
</event>
<event>
 4    0  0.2270578E-002  0.2291628E+03  0.7546771E-02  0.1127230E+00
         21   -1    0    0  502  501  0.00000000000E+00  0.00000000000E+00  0.51379401803E+03  0.51379401803E+03  0.00000000000E+00 0.  1.
         21   -1    0    0  501  502 -0.00000000000E+00 -0.00000000000E+00 -0.10221141001E+03  0.10221141001E+03  0.00000000000E+00 0.  1.
         25    1    1    2    0    0 -0.18981704513E+02 -0.37791231250E+02  0.45760367337E+03  0.47625056866E+03  0.12500000000E+03 0.  0.
         25    1    1    2    0    0  0.18981704513E+02  0.37791231250E+02 -0.46021065342E+02  0.13975485938E+03  0.12500000000E+03 0.  0.
</event>
<event>
 4    0  0.2270578E-002  0.4501321E+03  0.7546771E-02  0.1027683E+00
         21   -1    0    0  502  501  0.00000000000E+00  0.00000000000E+00  0.54907794007E+03  0.54907794007E+03  0.00000000000E+00 0.  1.
         21   -1    0    0  501  502 -0.00000000000E+00 -0.00000000000E+00 -0.36901658399E+03  0.36901658399E+03  0.00000000000E+00 0.  1.
         25    1    1    2    0    0  0.79632583078E+02  0.31387140391E+03 -0.20224156006E+03  0.40172534783E+03  0.12500000000E+03 0.  0.
         25    1    1    2    0    0 -0.79632583078E+02 -0.31387140391E+03  0.38230291613E+03  0.51636917623E+03  0.12500000000E+03 0.  0.
</event>
<event>
 4    0  0.2270578E-002  0.3260535E+03  0.7546771E-02  0.1072897E+00
         21   -1    0    0  502  501  0.00000000000E+00  0.00000000000E+00  0.10265166081E+04  0.10265166081E+04  0.00000000000E+00 0.  1.
         21   -1    0    0  501  502 -0.00000000000E+00 -0.00000000000E+00 -0.10356473146E+03  0.10356473146E+03  0.00000000000E+00 0.  1.
         25    1    1    2    0    0 -0.23275353500E+03  0.23737958359E+02  0.13290476366E+03  0.29669239108E+03  0.12500000000E+03 0.  0.
         25    1    1    2    0    0  0.23275353500E+03 -0.23737958359E+02  0.79004711296E+03  0.83338894846E+03  0.12500000000E+03 0.  0.
</event>
<event>
 4    0  0.2270578E-002  0.2476301E+03  0.7546771E-02  0.1114812E+00
         21   -1    0    0  502  501  0.00000000000E+00  0.00000000000E+00  0.59588126414E+03  0.59588126414E+03  0.00000000000E+00 0. -1.
         21   -1    0    0  501  502 -0.00000000000E+00 -0.00000000000E+00 -0.10290750726E+03  0.10290750726E+03  0.00000000000E+00 0. -1.
         25    1    1    2    0    0  0.23205174806E+02  0.21202617570E+03  0.26654406915E+03  0.36354411028E+03  0.12500000000E+03 0.  0.
         25    1    1    2    0    0 -0.23205174806E+02 -0.21202617570E+03  0.22642968773E+03  0.33524466112E+03  0.12500000000E+03 0.  0.
</event>
<event>
 4    0  0.2270578E-002  0.2120259E+03  0.7546771E-02  0.1139972E+00
         21   -1    0    0  502  501  0.00000000000E+00  0.00000000000E+00  0.19657008016E+03  0.19657008016E+03  0.00000000000E+00 0. -1.
         21   -1    0    0  501  502 -0.00000000000E+00 -0.00000000000E+00 -0.22869706364E+03  0.22869706364E+03  0.00000000000E+00 0. -1.
         25    1    1    2    0    0 -0.10655988907E+03  0.10273091935E+03 -0.10245762315E+03  0.21916025253E+03  0.12500000000E+03 0.  0.
         25    1    1    2    0    0  0.10655988907E+03 -0.10273091935E+03  0.70330639668E+02  0.20610689126E+03  0.12500000000E+03 0.  0.
</event>
<event>
 4    0  0.2270578E-002  0.4370180E+03  0.7546771E-02  0.1031666E+00
         21   -1    0    0  502  501  0.00000000000E+00  0.00000000000E+00  0.36900695476E+03  0.36900695476E+03  0.00000000000E+00 0. -1.
         21   -1    0    0  501  502 -0.00000000000E+00 -0.00000000000E+00 -0.51756407591E+03  0.51756407591E+03  0.00000000000E+00 0.  1.
         25    1    1    2    0    0 -0.37286776936E+03  0.76925770893E+02 -0.25116935657E+03  0.47292599140E+03  0.12500000000E+03 0.  0.
         25    1    1    2    0    0  0.37286776936E+03 -0.76925770893E+02  0.10261223541E+03  0.41364503927E+03  0.12500000000E+03 0.  0.
</event>
<event>
 4    0  0.2270578E-002  0.1889854E+03  0.7546771E-02  0.1159380E+00
         21   -1    0    0  502  501  0.00000000000E+00  0.00000000000E+00  0.60041531205E+02  0.60041531205E+02  0.00000000000E+00 0.  1.
         21   -1    0    0  501  502 -0.00000000000E+00 -0.00000000000E+00 -0.59484613684E+03  0.59484613684E+03  0.00000000000E+00 0.  1.
         25    1    1    2    0    0  0.88893118963E+02  0.44633158698E+02 -0.92445290811E+02  0.18456770370E+03  0.12500000000E+03 0.  0.
         25    1    1    2    0    0 -0.88893118963E+02 -0.44633158698E+02 -0.44235931482E+03  0.47031996435E+03  0.12500000000E+03 0.  0.
</event>
<event>
 4    0  0.2270578E-002  0.2495316E+03  0.7546771E-02  0.1113601E+00
         21   -1    0    0  502  501  0.00000000000E+00  0.00000000000E+00  0.76764311677E+03  0.76764311677E+03  0.00000000000E+00 0.  1.
         21   -1    0    0  501  502 -0.00000000000E+00 -0.00000000000E+00 -0.81113234313E+02  0.81113234313E+02  0.00000000000E+00 0.  1.
         25    1    1    2    0    0 -0.16392887950E+03 -0.11436411511E+03  0.48236079715E+03  0.53688803953E+03  0.12500000000E+03 0.  0.
         25    1    1    2    0    0  0.16392887950E+03  0.11436411511E+03  0.20416908530E+03  0.31186831155E+03  0.12500000000E+03 0.  0.
</event>
<event>
 4    0  0.2270578E-002  0.2674651E+03  0.7546771E-02  0.1102739E+00
         21   -1    0    0  502  501  0.00000000000E+00  0.00000000000E+00  0.67849699763E+02  0.67849699763E+02  0.00000000000E+00 0.  1.
         21   -1    0    0  501  502 -0.00000000000E+00 -0.00000000000E+00 -0.10543538881E+04  0.10543538881E+04  0.00000000000E+00 0. -1.
         25    1    1    2    0    0 -0.19592101856E+02 -0.23200949911E+03 -0.40674694801E+03  0.48505704597E+03  0.12500000000E+03 0.  0.
         25    1    1    2    0    0  0.19592101856E+02  0.23200949911E+03 -0.57975724031E+03  0.63714654187E+03  0.12500000000E+03 0.  0.
</event>
<event>
 4    0  0.2270578E-002  0.1435858E+03  0.7546771E-02  0.1208584E+00
         21   -1    0    0  502  501  0.00000000000E+00  0.00000000000E+00  0.29768139694E+03  0.29768139694E+03  0.00000000000E+00 0. -1.
         21   -1    0    0  501  502 -0.00000000000E+00 -0.00000000000E+00 -0.69258194624E+02  0.69258194624E+02  0.00000000000E+00 0. -1.
         25    1    1    2    0    0 -0.29613197627E+02  0.17071231477E+02  0.19322197774E+03  0.23265446718E+03  0.12500000000E+03 0.  0.
         25    1    1    2    0    0  0.29613197627E+02 -0.17071231477E+02  0.35201224572E+02  0.13428512438E+03  0.12500000000E+03 0.  0.
</event>
<event>
 4    0  0.2270578E-002  0.1679514E+03  0.7546771E-02  0.1180001E+00
         21   -1    0    0  502  501  0.00000000000E+00  0.00000000000E+00  0.64300657911E+03  0.64300657911E+03  0.00000000000E+00 0. -1.
         21   -1    0    0  501  502 -0.00000000000E+00 -0.00000000000E+00 -0.43868379087E+02  0.43868379087E+02  0.00000000000E+00 0. -1.
         25    1    1    2    0    0  0.34063040207E+02 -0.58058274910E+02  0.48305611907E+03  0.50348710824E+03  0.12500000000E+03 0.  0.
         25    1    1    2    0    0 -0.34063040207E+02  0.58058274910E+02  0.11608208096E+03  0.18338784996E+03  0.12500000000E+03 0.  0.
</event>
<event>
 4    0  0.2270578E-002  0.3226196E+03  0.7546771E-02  0.1074450E+00
         21   -1    0    0  502  501  0.00000000000E+00  0.00000000000E+00  0.10440268031E+03  0.10440268031E+03  0.00000000000E+00 0.  1.
         21   -1    0    0  501  502 -0.00000000000E+00 -0.00000000000E+00 -0.99694162496E+03  0.99694162496E+03  0.00000000000E+00 0.  1.
         25    1    1    2    0    0 -0.97215880380E+01  0.15606726817E+03 -0.14436556704E+02  0.20071102520E+03  0.12500000000E+03 0.  0.
         25    1    1    2    0    0  0.97215880380E+01 -0.15606726817E+03 -0.87810238794E+03  0.90063328007E+03  0.12500000000E+03 0.  0.
</event>
<event>
 4    0  0.2270578E-002  0.2307419E+03  0.7546771E-02  0.1126119E+00
         21   -1    0    0  502  501  0.00000000000E+00  0.00000000000E+00  0.83302912203E+03  0.83302912203E+03  0.00000000000E+00 0. -1.
         21   -1    0    0  501  502 -0.00000000000E+00 -0.00000000000E+00 -0.63913513892E+02  0.63913513892E+02  0.00000000000E+00 0. -1.
         25    1    1    2    0    0 -0.53212757375E+02  0.14349355769E+02  0.74598134582E+03  0.75838688667E+03  0.12500000000E+03 0.  0.
         25    1    1    2    0    0  0.53212757375E+02 -0.14349355769E+02  0.23134262318E+02  0.13855574925E+03  0.12500000000E+03 0.  0.
</event>
<event>
 4    0  0.2270578E-002  0.1588118E+03  0.7546771E-02  0.1190045E+00
         21   -1    0    0  502  501  0.00000000000E+00  0.00000000000E+00  0.25268641952E+03  0.25268641952E+03  0.00000000000E+00 0.  1.
         21   -1    0    0  501  502 -0.00000000000E+00 -0.00000000000E+00 -0.99812181106E+02  0.99812181106E+02  0.00000000000E+00 0.  1.
         25    1    1    2    0    0 -0.43339622527E+01 -0.79726155406E+02  0.13450332945E+02  0.14893271817E+03  0.12500000000E+03 0.  0.
         25    1    1    2    0    0  0.43339622527E+01  0.79726155406E+02  0.13942390547E+03  0.20356588246E+03  0.12500000000E+03 0.  0.
</event>
<event>
 4    0  0.2270578E-002  0.2196793E+03  0.7546771E-02  0.1134122E+00
         21   -1    0    0  502  501  0.00000000000E+00  0.00000000000E+00  0.21004403726E+03  0.21004403726E+03  0.00000000000E+00 0. -1.
         21   -1    0    0  501  502 -0.00000000000E+00 -0.00000000000E+00 -0.22975660100E+03  0.22975660100E+03  0.00000000000E+00 0. -1.
         25    1    1    2    0    0  0.93505368977E+02  0.15267304128E+03 -0.33998847089E+02  0.22098242728E+03  0.12500000000E+03 0.  0.
         25    1    1    2    0    0 -0.93505368977E+02 -0.15267304128E+03  0.14286283348E+02  0.21881821097E+03  0.12500000000E+03 0.  0.
</event>
<event>
 4    0  0.2270578E-002  0.1875138E+03  0.7546771E-02  0.1160723E+00
         21   -1    0    0  502  501  0.00000000000E+00  0.00000000000E+00  0.25655365427E+02  0.25655365427E+02  0.00000000000E+00 0. -1.
         21   -1    0    0  501  502 -0.00000000000E+00 -0.00000000000E+00 -0.13705293352E+04  0.13705293352E+04  0.00000000000E+00 0. -1.
         25    1    1    2    0    0 -0.13419482575E+03 -0.49361528025E+01 -0.81680689278E+03  0.83715656657E+03  0.12500000000E+03 0.  0.
         25    1    1    2    0    0  0.13419482575E+03  0.49361528025E+01 -0.52806707700E+03  0.55902813406E+03  0.12500000000E+03 0.  0.
</event>
<event>
 4    0  0.2270578E-002  0.2977872E+03  0.7546771E-02  0.1086352E+00
         21   -1    0    0  502  501  0.00000000000E+00  0.00000000000E+00  0.37089045910E+03  0.37089045910E+03  0.00000000000E+00 0.  1.
         21   -1    0    0  501  502 -0.00000000000E+00 -0.00000000000E+00 -0.23909275735E+03  0.23909275735E+03  0.00000000000E+00 0.  1.
         25    1    1    2    0    0 -0.19110858613E+03  0.16531060017E+03 -0.32349706064E+02  0.28376326348E+03  0.12500000000E+03 0.  0.
         25    1    1    2    0    0  0.19110858613E+03 -0.16531060017E+03  0.16414740781E+03  0.32621995296E+03  0.12500000000E+03 0.  0.
</event>
<event>
 4    0  0.2270578E-002  0.1730320E+03  0.7546771E-02  0.1174722E+00
         21   -1    0    0  502  501  0.00000000000E+00  0.00000000000E+00  0.67279711298E+03  0.67279711298E+03  0.00000000000E+00 0. -1.
         21   -1    0    0  501  502 -0.00000000000E+00 -0.00000000000E+00 -0.44500885340E+02  0.44500885340E+02  0.00000000000E+00 0. -1.
         25    1    1    2    0    0 -0.10565673291E+03 -0.21496647185E+02  0.42164314462E+03  0.45280613120E+03  0.12500000000E+03 0.  0.
         25    1    1    2    0    0  0.10565673291E+03  0.21496647185E+02  0.20665308302E+03  0.26449186711E+03  0.12500000000E+03 0.  0.
</event>
<event>
 4    0  0.2270578E-002  0.2861517E+03  0.7546771E-02  0.1092376E+00
         21   -1    0    0  502  501  0.00000000000E+00  0.00000000000E+00  0.14055031960E+03  0.14055031960E+03  0.00000000000E+00 0. -1.
         21   -1    0    0  501  502 -0.00000000000E+00 -0.00000000000E+00 -0.58258718588E+03  0.58258718588E+03  0.00000000000E+00 0. -1.
         25    1    1    2    0    0 -0.20518397839E+03  0.12198082872E+03 -0.34272733348E+03  0.43596652702E+03  0.12500000000E+03 0.  0.
         25    1    1    2    0    0  0.20518397839E+03 -0.12198082872E+03 -0.99309532799E+02  0.28717097846E+03  0.12500000000E+03 0.  0.
</event>
<event>
 4    0  0.2270578E-002  0.1993454E+03  0.7546771E-02  0.1150292E+00
         21   -1    0    0  502  501  0.00000000000E+00  0.00000000000E+00  0.70602686946E+03  0.70602686946E+03  0.00000000000E+00 0.  1.
         21   -1    0    0  501  502 -0.00000000000E+00 -0.00000000000E+00 -0.56284806844E+02  0.56284806844E+02  0.00000000000E+00 0.  1.
         25    1    1    2    0    0  0.12055971490E+03 -0.15508299514E+02  0.50964185415E+03  0.53864178422E+03  0.12500000000E+03 0.  0.
         25    1    1    2    0    0 -0.12055971490E+03  0.15508299514E+02  0.14010020847E+03  0.22366989208E+03  0.12500000000E+03 0.  0.
</event>
<event>
 4    0  0.2270578E-002  0.2816148E+03  0.7546771E-02  0.1094810E+00
         21   -1    0    0  502  501  0.00000000000E+00  0.00000000000E+00  0.15867889373E+04  0.15867889373E+04  0.00000000000E+00 0.  1.
         21   -1    0    0  501  502 -0.00000000000E+00 -0.00000000000E+00 -0.49979473627E+02  0.49979473627E+02  0.00000000000E+00 0.  1.
         25    1    1    2    0    0 -0.23050798677E+03  0.32871243483E+02  0.10511645932E+04  0.10838756629E+04  0.12500000000E+03 0.  0.
         25    1    1    2    0    0  0.23050798677E+03 -0.32871243483E+02  0.48564487046E+03  0.55289274802E+03  0.12500000000E+03 0.  0.
</event>
<event>
 4    0  0.2270578E-002  0.1993763E+03  0.7546771E-02  0.1150266E+00
         21   -1    0    0  502  501  0.00000000000E+00  0.00000000000E+00  0.40490190524E+03  0.40490190524E+03  0.00000000000E+00 0. -1.
         21   -1    0    0  501  502 -0.00000000000E+00 -0.00000000000E+00 -0.98174200709E+02  0.98174200709E+02  0.00000000000E+00 0. -1.
         25    1    1    2    0    0 -0.14066144413E+03 -0.64957879635E+02  0.16722754489E+03  0.25999080707E+03  0.12500000000E+03 0.  0.
         25    1    1    2    0    0  0.14066144413E+03  0.64957879635E+02  0.13950015964E+03  0.24308529888E+03  0.12500000000E+03 0.  0.
</event>
<event>
 4    0  0.2270578E-002  0.2011217E+03  0.7546771E-02  0.1148796E+00
         21   -1    0    0  502  501  0.00000000000E+00  0.00000000000E+00  0.11623792142E+04  0.11623792142E+04  0.00000000000E+00 0.  1.
         21   -1    0    0  501  502 -0.00000000000E+00 -0.00000000000E+00 -0.34799255522E+02  0.34799255522E+02  0.00000000000E+00 0.  1.
         25    1    1    2    0    0  0.13621239294E+03  0.70231940240E+02  0.45489853082E+03  0.49602823988E+03  0.12500000000E+03 0.  0.
         25    1    1    2    0    0 -0.13621239294E+03 -0.70231940240E+02  0.67268142788E+03  0.70115022986E+03  0.12500000000E+03 0.  0.
</event>
<event>
 4    0  0.2270578E-002  0.2373276E+03  0.7546771E-02  0.1121586E+00
         21   -1    0    0  502  501  0.00000000000E+00  0.00000000000E+00  0.12344693353E+04  0.12344693353E+04  0.00000000000E+00 0.  1.
         21   -1    0    0  501  502 -0.00000000000E+00 -0.00000000000E+00 -0.45626384513E+02  0.45626384513E+02  0.00000000000E+00 0.  1.
         25    1    1    2    0    0  0.15112755490E+03  0.13293409522E+03  0.55740800458E+03  0.60567292749E+03  0.12500000000E+03 0.  0.
         25    1    1    2    0    0 -0.15112755490E+03 -0.13293409522E+03  0.63143494625E+03  0.67442279237E+03  0.12500000000E+03 0.  0.
</event>
<event>
 4    0  0.2270578E-002  0.1634067E+03  0.7546771E-02  0.1184903E+00
         21   -1    0    0  502  501  0.00000000000E+00  0.00000000000E+00  0.19419317386E+02  0.19419317386E+02  0.00000000000E+00 0.  1.
         21   -1    0    0  501  502 -0.00000000000E+00 -0.00000000000E+00 -0.13750091366E+04  0.13750091366E+04  0.00000000000E+00 0.  1.
         25    1    1    2    0    0 -0.51962089468E+02 -0.72369484567E+01 -0.28850736885E+03  0.31876940575E+03  0.12500000000E+03 0.  0.
         25    1    1    2    0    0  0.51962089468E+02  0.72369484567E+01 -0.10670824504E+04  0.10756590483E+04  0.12500000000E+03 0.  0.
</event>
<event>
 4    0  0.2270578E-002  0.4986673E+03  0.7546771E-02  0.1014127E+00
         21   -1    0    0  502  501  0.00000000000E+00  0.00000000000E+00  0.17803380203E+04  0.17803380203E+04  0.00000000000E+00 0. -1.
         21   -1    0    0  501  502 -0.00000000000E+00 -0.00000000000E+00 -0.13967518278E+03  0.13967518278E+03  0.00000000000E+00 0.  1.
         25    1    1    2    0    0 -0.67077664273E+02  0.32969699865E+03  0.15387394572E+03  0.39051467980E+03  0.12500000000E+03 0.  0.
         25    1    1    2    0    0  0.67077664273E+02 -0.32969699865E+03  0.14867888917E+04  0.15294985232E+04  0.12500000000E+03 0.  0.
</event>
<event>
 4    0  0.2270578E-002  0.1927777E+03  0.7546771E-02  0.1155980E+00
         21   -1    0    0  502  501  0.00000000000E+00  0.00000000000E+00  0.37030067256E+02  0.37030067256E+02  0.00000000000E+00 0.  1.
         21   -1    0    0  501  502 -0.00000000000E+00 -0.00000000000E+00 -0.10035963827E+04  0.10035963827E+04  0.00000000000E+00 0.  1.
         25    1    1    2    0    0  0.12037887780E+03  0.78475539239E+02 -0.56374678473E+03  0.59505035230E+03  0.12500000000E+03 0.  0.
         25    1    1    2    0    0 -0.12037887780E+03 -0.78475539239E+02 -0.40281953073E+03  0.44557609767E+03  0.12500000000E+03 0.  0.
</event>
<event>
 4    0  0.2270578E-002  0.2039693E+03  0.7546771E-02  0.1146433E+00
         21   -1    0    0  502  501  0.00000000000E+00  0.00000000000E+00  0.27552158987E+02  0.27552158987E+02  0.00000000000E+00 0. -1.
         21   -1    0    0  501  502 -0.00000000000E+00 -0.00000000000E+00 -0.15099894159E+04  0.15099894159E+04  0.00000000000E+00 0. -1.
         25    1    1    2    0    0  0.49559265480E+02 -0.15310759446E+03 -0.77501678527E+03  0.80135764408E+03  0.12500000000E+03 0.  0.
         25    1    1    2    0    0 -0.49559265480E+02  0.15310759446E+03 -0.70742047162E+03  0.73618393078E+03  0.12500000000E+03 0.  0.
</event>
<event>
 4    0  0.2270578E-002  0.2277611E+03  0.7546771E-02  0.1128226E+00
         21   -1    0    0  502  501  0.00000000000E+00  0.00000000000E+00  0.18003085625E+03  0.18003085625E+03  0.00000000000E+00 0.  1.
         21   -1    0    0  501  502 -0.00000000000E+00 -0.00000000000E+00 -0.28814572076E+03  0.28814572076E+03  0.00000000000E+00 0.  1.
         25    1    1    2    0    0 -0.91550473025E+02 -0.45640154494E+02 -0.21909727986E+03  0.27220053426E+03  0.12500000000E+03 0.  0.
         25    1    1    2    0    0  0.91550473025E+02  0.45640154494E+02  0.11098241535E+03  0.19597604274E+03  0.12500000000E+03 0.  0.
</event>
<event>
 4    0  0.2270578E-002  0.2592994E+03  0.7546771E-02  0.1107565E+00
         21   -1    0    0  502  501  0.00000000000E+00  0.00000000000E+00  0.40098773126E+03  0.40098773126E+03  0.00000000000E+00 0.  1.
         21   -1    0    0  501  502 -0.00000000000E+00 -0.00000000000E+00 -0.16767645135E+03  0.16767645135E+03  0.00000000000E+00 0.  1.
         25    1    1    2    0    0 -0.21387983928E+03 -0.72211002419E+02  0.14465897783E+03  0.29582128792E+03  0.12500000000E+03 0.  0.
         25    1    1    2    0    0  0.21387983928E+03  0.72211002419E+02  0.88652302081E+02  0.27284289469E+03  0.12500000000E+03 0.  0.
</event>
<event>
 4    0  0.2270578E-002  0.2148878E+03  0.7546771E-02  0.1137753E+00
         21   -1    0    0  502  501  0.00000000000E+00  0.00000000000E+00  0.45036158170E+02  0.45036158170E+02  0.00000000000E+00 0. -1.
         21   -1    0    0  501  502 -0.00000000000E+00 -0.00000000000E+00 -0.10253265538E+04  0.10253265538E+04  0.00000000000E+00 0. -1.
         25    1    1    2    0    0 -0.13159948851E+03  0.10442947933E+03 -0.36998390667E+03  0.42513178278E+03  0.12500000000E+03 0.  0.
         25    1    1    2    0    0  0.13159948851E+03 -0.10442947933E+03 -0.61030648899E+03  0.64523092923E+03  0.12500000000E+03 0.  0.
</event>
<event>
 4    0  0.2270578E-002  0.2741099E+03  0.7546771E-02  0.1098950E+00
         21   -1    0    0  502  501  0.00000000000E+00  0.00000000000E+00  0.61782944404E+02  0.61782944404E+02  0.00000000000E+00 0. -1.
         21   -1    0    0  501  502 -0.00000000000E+00 -0.00000000000E+00 -0.12161320570E+04  0.12161320570E+04  0.00000000000E+00 0. -1.
         25    1    1    2    0    0 -0.20009100126E+03 -0.13955186100E+03 -0.57648083003E+03  0.63833085315E+03  0.12500000000E+03 0.  0.
         25    1    1    2    0    0  0.20009100126E+03  0.13955186100E+03 -0.57786828254E+03  0.63958414822E+03  0.12500000000E+03 0.  0.
</event>
<event>
 4    0  0.2270578E-002  0.1961967E+03  0.7546771E-02  0.1152988E+00
         21   -1    0    0  502  501  0.00000000000E+00  0.00000000000E+00  0.14904219265E+03  0.14904219265E+03  0.00000000000E+00 0.  1.
         21   -1    0    0  501  502 -0.00000000000E+00 -0.00000000000E+00 -0.25827024920E+03  0.25827024920E+03  0.00000000000E+00 0.  1.
         25    1    1    2    0    0  0.86809233903E+02  0.11729694956E+03 -0.95792791653E+02  0.21469903679E+03  0.12500000000E+03 0.  0.
         25    1    1    2    0    0 -0.86809233903E+02 -0.11729694956E+03 -0.13435264890E+02  0.19261340506E+03  0.12500000000E+03 0.  0.
</event>
<event>
 4    0  0.2270578E-002  0.3703691E+03  0.7546771E-02  0.1054552E+00
         21   -1    0    0  502  501  0.00000000000E+00  0.00000000000E+00  0.12108368320E+03  0.12108368320E+03  0.00000000000E+00 0. -1.
         21   -1    0    0  501  502 -0.00000000000E+00 -0.00000000000E+00 -0.11328797375E+04  0.11328797375E+04  0.00000000000E+00 0. -1.
         25    1    1    2    0    0  0.19171506744E+03  0.13761195400E+03 -0.94032781097E+03  0.97751373855E+03  0.12500000000E+03 0.  0.
         25    1    1    2    0    0 -0.19171506744E+03 -0.13761195400E+03 -0.71468243341E+02  0.27644968217E+03  0.12500000000E+03 0.  0.
</event>
<event>
 4    0  0.2270578E-002  0.4915515E+03  0.7546771E-02  0.1016008E+00
         21   -1    0    0  502  501  0.00000000000E+00  0.00000000000E+00  0.88615249001E+03  0.88615249001E+03  0.00000000000E+00 0. -1.
         21   -1    0    0  501  502 -0.00000000000E+00 -0.00000000000E+00 -0.27266507043E+03  0.27266507043E+03  0.00000000000E+00 0.  1.
         25    1    1    2    0    0 -0.38962160799E+03 -0.19871088751E+03  0.87148187660E+02  0.46315312893E+03  0.12500000000E+03 0.  0.
         25    1    1    2    0    0  0.38962160799E+03  0.19871088751E+03  0.52633923192E+03  0.69566443152E+03  0.12500000000E+03 0.  0.
</event>
<event>
 4    0  0.2270578E-002  0.1898270E+03  0.7546771E-02  0.1158617E+00
         21   -1    0    0  502  501  0.00000000000E+00  0.00000000000E+00  0.13022648574E+03  0.13022648574E+03  0.00000000000E+00 0. -1.
         21   -1    0    0  501  502 -0.00000000000E+00 -0.00000000000E+00 -0.27670472883E+03  0.27670472883E+03  0.00000000000E+00 0. -1.
         25    1    1    2    0    0 -0.10657873600E+03 -0.54771346536E+02  0.10133519734E+02  0.17345493821E+03  0.12500000000E+03 0.  0.
         25    1    1    2    0    0  0.10657873600E+03  0.54771346536E+02 -0.15661176283E+03  0.23347627636E+03  0.12500000000E+03 0.  0.
</event>
<event>
 4    0  0.2270578E-002  0.2425088E+03  0.7546771E-02  0.1118133E+00
         21   -1    0    0  502  501  0.00000000000E+00  0.00000000000E+00  0.24884641405E+03  0.24884641405E+03  0.00000000000E+00 0.  1.
         21   -1    0    0  501  502 -0.00000000000E+00 -0.00000000000E+00 -0.23633259483E+03  0.23633259483E+03  0.00000000000E+00 0.  1.
         25    1    1    2    0    0 -0.10471272099E+03  0.34097175476E+02  0.18254877609E+03  0.24713645414E+03  0.12500000000E+03 0.  0.
         25    1    1    2    0    0  0.10471272099E+03 -0.34097175476E+02 -0.17003495687E+03  0.23804255475E+03  0.12500000000E+03 0.  0.
</event>
<event>
 4    0  0.2270578E-002  0.2095270E+03  0.7546771E-02  0.1141941E+00
         21   -1    0    0  502  501  0.00000000000E+00  0.00000000000E+00  0.50512688505E+02  0.50512688505E+02  0.00000000000E+00 0. -1.
         21   -1    0    0  501  502 -0.00000000000E+00 -0.00000000000E+00 -0.86911988432E+03  0.86911988432E+03  0.00000000000E+00 0. -1.
         25    1    1    2    0    0 -0.90672492405E+01 -0.16774375003E+03 -0.39282239700E+03  0.44514561243E+03  0.12500000000E+03 0.  0.
         25    1    1    2    0    0  0.90672492405E+01  0.16774375003E+03 -0.42578479882E+03  0.47448696040E+03  0.12500000000E+03 0.  0.
</event>
<event>
 4    0  0.2270578E-002  0.1479419E+03  0.7546771E-02  0.1203025E+00
         21   -1    0    0  502  501  0.00000000000E+00  0.00000000000E+00  0.23738914591E+03  0.23738914591E+03  0.00000000000E+00 0.  1.
         21   -1    0    0  501  502 -0.00000000000E+00 -0.00000000000E+00 -0.92197947231E+02  0.92197947231E+02  0.00000000000E+00 0.  1.
         25    1    1    2    0    0  0.43946195637E+02 -0.58911754874E+02  0.10526043194E+03  0.17918320654E+03  0.12500000000E+03 0.  0.
         25    1    1    2    0    0 -0.43946195637E+02  0.58911754874E+02  0.39930766739E+02  0.15040388660E+03  0.12500000000E+03 0.  0.
</event>
<event>
 4    0  0.2270578E-002  0.2005579E+03  0.7546771E-02  0.1149269E+00
         21   -1    0    0  502  501  0.00000000000E+00  0.00000000000E+00  0.28826232272E+03  0.28826232272E+03  0.00000000000E+00 0.  1.
         21   -1    0    0  501  502 -0.00000000000E+00 -0.00000000000E+00 -0.13953776284E+03  0.13953776284E+03  0.00000000000E+00 0.  1.
         25    1    1    2    0    0  0.95064352857E+02  0.11812022478E+03  0.31583311644E+02  0.19902794844E+03  0.12500000000E+03 0.  0.
         25    1    1    2    0    0 -0.95064352857E+02 -0.11812022478E+03  0.11714124824E+03  0.22877213712E+03  0.12500000000E+03 0.  0.
</event>
<event>
 4    0  0.2270578E-002  0.1803315E+03  0.7546771E-02  0.1167483E+00
         21   -1    0    0  502  501  0.00000000000E+00  0.00000000000E+00  0.83654436381E+02  0.83654436381E+02  0.00000000000E+00 0. -1.
         21   -1    0    0  501  502 -0.00000000000E+00 -0.00000000000E+00 -0.38873546992E+03  0.38873546992E+03  0.00000000000E+00 0. -1.
         25    1    1    2    0    0 -0.37752825652E+02 -0.57225443176E+02 -0.79034503085E+01  0.14278477411E+03  0.12500000000E+03 0.  0.
         25    1    1    2    0    0  0.37752825652E+02  0.57225443176E+02 -0.29717758323E+03  0.32960513219E+03  0.12500000000E+03 0.  0.
</event>
<event>
 4    0  0.2270578E-002  0.2030787E+03  0.7546771E-02  0.1147167E+00
         21   -1    0    0  502  501  0.00000000000E+00  0.00000000000E+00  0.62481928906E+02  0.62481928906E+02  0.00000000000E+00 0. -1.
         21   -1    0    0  501  502 -0.00000000000E+00 -0.00000000000E+00 -0.66004626289E+03  0.66004626289E+03  0.00000000000E+00 0. -1.
         25    1    1    2    0    0 -0.32197837419E+02  0.63365701716E+01 -0.57745190546E+03  0.59173689760E+03  0.12500000000E+03 0.  0.
         25    1    1    2    0    0  0.32197837419E+02 -0.63365701716E+01 -0.20112428517E+02  0.13079129419E+03  0.12500000000E+03 0.  0.
</event>
<event>
 4    0  0.2270578E-002  0.2286942E+03  0.7546771E-02  0.1127562E+00
         21   -1    0    0  502  501  0.00000000000E+00  0.00000000000E+00  0.87071648332E+02  0.87071648332E+02  0.00000000000E+00 0. -1.
         21   -1    0    0  501  502 -0.00000000000E+00 -0.00000000000E+00 -0.60066651346E+03  0.60066651346E+03  0.00000000000E+00 0. -1.
         25    1    1    2    0    0  0.16097469181E+03  0.77801009662E+02 -0.15360293239E+03  0.26680462768E+03  0.12500000000E+03 0.  0.
         25    1    1    2    0    0 -0.16097469181E+03 -0.77801009662E+02 -0.35999193273E+03  0.42093353411E+03  0.12500000000E+03 0.  0.
</event>
<event>
 4    0  0.2270578E-002  0.2976208E+03  0.7546771E-02  0.1086436E+00
         21   -1    0    0  502  501  0.00000000000E+00  0.00000000000E+00  0.10700838649E+03  0.10700838649E+03  0.00000000000E+00 0.  1.
         21   -1    0    0  501  502 -0.00000000000E+00 -0.00000000000E+00 -0.82776795071E+03  0.82776795071E+03  0.00000000000E+00 0.  1.
         25    1    1    2    0    0  0.90513874989E+02  0.25403021750E+03 -0.38414446808E+03  0.48571193657E+03  0.12500000000E+03 0.  0.
         25    1    1    2    0    0 -0.90513874989E+02 -0.25403021750E+03 -0.33661509614E+03  0.44906440063E+03  0.12500000000E+03 0.  0.
</event>
<event>
 4    0  0.2270578E-002  0.1743461E+03  0.7546771E-02  0.1173390E+00
         21   -1    0    0  502  501  0.00000000000E+00  0.00000000000E+00  0.57618652330E+02  0.57618652330E+02  0.00000000000E+00 0.  1.
         21   -1    0    0  501  502 -0.00000000000E+00 -0.00000000000E+00 -0.52754737359E+03  0.52754737359E+03  0.00000000000E+00 0.  1.
         25    1    1    2    0    0 -0.10907349057E+03 -0.52503381945E+02 -0.25318914152E+03  0.30721877033E+03  0.12500000000E+03 0.  0.
         25    1    1    2    0    0  0.10907349057E+03  0.52503381945E+02 -0.21673957974E+03  0.27794725558E+03  0.12500000000E+03 0.  0.
</event>
<event>
 4    0  0.2270578E-002  0.2036098E+03  0.7546771E-02  0.1146729E+00
         21   -1    0    0  502  501  0.00000000000E+00  0.00000000000E+00  0.25403925235E+03  0.25403925235E+03  0.00000000000E+00 0. -1.
         21   -1    0    0  501  502 -0.00000000000E+00 -0.00000000000E+00 -0.16319106718E+03  0.16319106718E+03  0.00000000000E+00 0. -1.
         25    1    1    2    0    0 -0.19488379947E+02  0.11608377574E+02  0.20845002254E+03  0.24411260369E+03  0.12500000000E+03 0.  0.
         25    1    1    2    0    0  0.19488379947E+02 -0.11608377574E+02 -0.11760183738E+03  0.17311771584E+03  0.12500000000E+03 0.  0.
</event>
<event>
 4    0  0.2270578E-002  0.2975872E+03  0.7546771E-02  0.1086453E+00
         21   -1    0    0  502  501  0.00000000000E+00  0.00000000000E+00  0.12924435759E+04  0.12924435759E+04  0.00000000000E+00 0.  1.
         21   -1    0    0  501  502 -0.00000000000E+00 -0.00000000000E+00 -0.68519920227E+02  0.68519920227E+02  0.00000000000E+00 0.  1.
         25    1    1    2    0    0  0.18750605127E+02  0.21219356457E+03  0.99154408977E+03  0.10218426376E+04  0.12500000000E+03 0.  0.
         25    1    1    2    0    0 -0.18750605127E+02 -0.21219356457E+03  0.23237956587E+03  0.33912085851E+03  0.12500000000E+03 0.  0.
</event>
<event>
 4    0  0.2270578E-002  0.1712475E+03  0.7546771E-02  0.1176553E+00
         21   -1    0    0  502  501  0.00000000000E+00  0.00000000000E+00  0.14692631831E+03  0.14692631831E+03  0.00000000000E+00 0. -1.
         21   -1    0    0  501  502 -0.00000000000E+00 -0.00000000000E+00 -0.19959465827E+03  0.19959465827E+03  0.00000000000E+00 0. -1.
         25    1    1    2    0    0  0.25728616344E+02 -0.11331196888E+03 -0.12056438059E+02  0.17109039040E+03  0.12500000000E+03 0.  0.
         25    1    1    2    0    0 -0.25728616344E+02  0.11331196888E+03 -0.40611901896E+02  0.17543058617E+03  0.12500000000E+03 0.  0.
</event>
<event>
 4    0  0.2270578E-002  0.2698261E+03  0.7546771E-02  0.1101379E+00
         21   -1    0    0  502  501  0.00000000000E+00  0.00000000000E+00  0.19065353828E+03  0.19065353828E+03  0.00000000000E+00 0. -1.
         21   -1    0    0  501  502 -0.00000000000E+00 -0.00000000000E+00 -0.38187663519E+03  0.38187663519E+03  0.00000000000E+00 0. -1.
         25    1    1    2    0    0 -0.23033080282E+03  0.62569216959E+02 -0.11112957677E+03  0.29144805450E+03  0.12500000000E+03 0.  0.
         25    1    1    2    0    0  0.23033080282E+03 -0.62569216959E+02 -0.80093520142E+02  0.28108211898E+03  0.12500000000E+03 0.  0.
</event>
<event>
 4    0  0.2270578E-002  0.2026559E+03  0.7546771E-02  0.1147517E+00
         21   -1    0    0  502  501  0.00000000000E+00  0.00000000000E+00  0.19692906187E+02  0.19692906187E+02  0.00000000000E+00 0. -1.
         21   -1    0    0  501  502 -0.00000000000E+00 -0.00000000000E+00 -0.20854928207E+04  0.20854928207E+04  0.00000000000E+00 0. -1.
         25    1    1    2    0    0  0.12381135336E+03 -0.70935057188E+02 -0.66257968038E+03  0.68920088974E+03  0.12500000000E+03 0.  0.
         25    1    1    2    0    0 -0.12381135336E+03  0.70935057188E+02 -0.14032202342E+04  0.14159848372E+04  0.12500000000E+03 0.  0.
</event>
<event>
 4    0  0.2270578E-002  0.2394010E+03  0.7546771E-02  0.1120192E+00
         21   -1    0    0  502  501  0.00000000000E+00  0.00000000000E+00  0.34355669142E+03  0.34355669142E+03  0.00000000000E+00 0.  1.
         21   -1    0    0  501  502 -0.00000000000E+00 -0.00000000000E+00 -0.16682213225E+03  0.16682213225E+03  0.00000000000E+00 0.  1.
         25    1    1    2    0    0  0.39872058574E+01 -0.84266939450E+02  0.28656235731E+03  0.32382062862E+03  0.12500000000E+03 0.  0.
         25    1    1    2    0    0 -0.39872058574E+01  0.84266939450E+02 -0.10982779815E+03  0.18655819505E+03  0.12500000000E+03 0.  0.
</event>
<event>
 4    0  0.2270578E-002  0.2243988E+03  0.7546771E-02  0.1130645E+00
         21   -1    0    0  502  501  0.00000000000E+00  0.00000000000E+00  0.23456242974E+03  0.23456242974E+03  0.00000000000E+00 0. -1.
         21   -1    0    0  501  502 -0.00000000000E+00 -0.00000000000E+00 -0.21467550845E+03  0.21467550845E+03  0.00000000000E+00 0. -1.
         25    1    1    2    0    0 -0.15898329774E+01 -0.13781193274E+03 -0.11561946660E+03  0.21906053371E+03  0.12500000000E+03 0.  0.
         25    1    1    2    0    0  0.15898329774E+01  0.13781193274E+03  0.13550638789E+03  0.23017740448E+03  0.12500000000E+03 0.  0.
</event>
<event>
 4    0  0.2270578E-002  0.2130644E+03  0.7546771E-02  0.1139162E+00
         21   -1    0    0  502  501  0.00000000000E+00  0.00000000000E+00  0.87862650841E+03  0.87862650841E+03  0.00000000000E+00 0. -1.
         21   -1    0    0  501  502 -0.00000000000E+00 -0.00000000000E+00 -0.51667503189E+02  0.51667503189E+02  0.00000000000E+00 0. -1.
         25    1    1    2    0    0  0.16277858002E+03 -0.23323322665E+02  0.52755908991E+03  0.56655488422E+03  0.12500000000E+03 0.  0.
         25    1    1    2    0    0 -0.16277858002E+03  0.23323322665E+02  0.29939991532E+03  0.36373912738E+03  0.12500000000E+03 0.  0.
</event>
<event>
 4    0  0.2270578E-002  0.2160118E+03  0.7546771E-02  0.1136892E+00
         21   -1    0    0  502  501  0.00000000000E+00  0.00000000000E+00  0.23814063780E+03  0.23814063780E+03  0.00000000000E+00 0.  1.
         21   -1    0    0  501  502 -0.00000000000E+00 -0.00000000000E+00 -0.19593917853E+03  0.19593917853E+03  0.00000000000E+00 0.  1.
         25    1    1    2    0    0 -0.37732223875E+02  0.17065507274E+03  0.43324014526E+02  0.21920046716E+03  0.12500000000E+03 0.  0.
         25    1    1    2    0    0  0.37732223875E+02 -0.17065507274E+03 -0.11225552547E+01  0.21487934917E+03  0.12500000000E+03 0.  0.
</event>
<event>
 4    0  0.2270578E-002  0.1902898E+03  0.7546771E-02  0.1158200E+00
         21   -1    0    0  502  501  0.00000000000E+00  0.00000000000E+00  0.13181137333E+03  0.13181137333E+03  0.00000000000E+00 0.  1.
         21   -1    0    0  501  502 -0.00000000000E+00 -0.00000000000E+00 -0.27471228788E+03  0.27471228788E+03  0.00000000000E+00 0.  1.
         25    1    1    2    0    0  0.34980958045E+02  0.60249765057E+02  0.62525061236E+02  0.15616684955E+03  0.12500000000E+03 0.  0.
         25    1    1    2    0    0 -0.34980958045E+02 -0.60249765057E+02 -0.20542597579E+03  0.25035681166E+03  0.12500000000E+03 0.  0.
</event>
<event>
 4    0  0.2270578E-002  0.1841582E+03  0.7546771E-02  0.1163838E+00
         21   -1    0    0  502  501  0.00000000000E+00  0.00000000000E+00  0.20269847501E+04  0.20269847501E+04  0.00000000000E+00 0.  1.
         21   -1    0    0  501  502 -0.00000000000E+00 -0.00000000000E+00 -0.16731368924E+02  0.16731368924E+02  0.00000000000E+00 0.  1.
         25    1    1    2    0    0  0.27285429547E+02 -0.12922273266E+03  0.11665407389E+04  0.11806291987E+04  0.12500000000E+03 0.  0.
         25    1    1    2    0    0 -0.27285429547E+02  0.12922273266E+03  0.84371264226E+03  0.86308692031E+03  0.12500000000E+03 0.  0.
</event>
<event>
 4    0  0.2270578E-002  0.2603230E+03  0.7546771E-02  0.1106949E+00
         21   -1    0    0  502  501  0.00000000000E+00  0.00000000000E+00  0.12941536213E+03  0.12941536213E+03  0.00000000000E+00 0.  1.
         21   -1    0    0  501  502 -0.00000000000E+00 -0.00000000000E+00 -0.52364764829E+03  0.52364764829E+03  0.00000000000E+00 0.  1.
         25    1    1    2    0    0 -0.19008756348E+03 -0.13308042620E+02 -0.35494615765E+03  0.42180820359E+03  0.12500000000E+03 0.  0.
         25    1    1    2    0    0  0.19008756348E+03  0.13308042620E+02 -0.39286128510E+02  0.23125480683E+03  0.12500000000E+03 0.  0.
</event>
<event>
 4    0  0.2270578E-002  0.2181018E+03  0.7546771E-02  0.1135306E+00
         21   -1    0    0  502  501  0.00000000000E+00  0.00000000000E+00  0.10884797196E+03  0.10884797196E+03  0.00000000000E+00 0.  1.
         21   -1    0    0  501  502 -0.00000000000E+00 -0.00000000000E+00 -0.43701670275E+03  0.43701670275E+03  0.00000000000E+00 0.  1.
         25    1    1    2    0    0 -0.15011548296E+03  0.27727030233E+01 -0.28541868428E+03  0.34587739366E+03  0.12500000000E+03 0.  0.
         25    1    1    2    0    0  0.15011548296E+03 -0.27727030233E+01 -0.42750046515E+02  0.19998728106E+03  0.12500000000E+03 0.  0.
</event>
<event>
 4    0  0.2270578E-002  0.3410797E+03  0.7546771E-02  0.1066337E+00
         21   -1    0    0  502  501  0.00000000000E+00  0.00000000000E+00  0.65658163869E+03  0.65658163869E+03  0.00000000000E+00 0. -1.
         21   -1    0    0  501  502 -0.00000000000E+00 -0.00000000000E+00 -0.17718343264E+03  0.17718343264E+03  0.00000000000E+00 0. -1.
         25    1    1    2    0    0 -0.20404695028E+02  0.27885967461E+03  0.42316319939E+03  0.52237071417E+03  0.12500000000E+03 0.  0.
         25    1    1    2    0    0  0.20404695028E+02 -0.27885967461E+03  0.56235006657E+02  0.31139435717E+03  0.12500000000E+03 0.  0.
</event>
<event>
 4    0  0.2270578E-002  0.2939941E+03  0.7546771E-02  0.1088282E+00
         21   -1    0    0  502  501  0.00000000000E+00  0.00000000000E+00  0.11011812405E+04  0.11011812405E+04  0.00000000000E+00 0. -1.
         21   -1    0    0  501  502 -0.00000000000E+00 -0.00000000000E+00 -0.78490765629E+02  0.78490765629E+02  0.00000000000E+00 0. -1.
         25    1    1    2    0    0  0.20943679623E+03  0.88400465036E+01  0.18250027472E+03  0.30475115801E+03  0.12500000000E+03 0.  0.
         25    1    1    2    0    0 -0.20943679623E+03 -0.88400465036E+01  0.84019020020E+03  0.87492084816E+03  0.12500000000E+03 0.  0.
</event>
<event>
 4    0  0.2270578E-002  0.3243065E+03  0.7546771E-02  0.1073684E+00
         21   -1    0    0  502  501  0.00000000000E+00  0.00000000000E+00  0.19594036578E+04  0.19594036578E+04  0.00000000000E+00 0.  1.
         21   -1    0    0  501  502 -0.00000000000E+00 -0.00000000000E+00 -0.53676887406E+02  0.53676887406E+02  0.00000000000E+00 0.  1.
         25    1    1    2    0    0  0.27568621126E+03  0.11322850511E+03  0.86923067525E+03  0.92736753676E+03  0.12500000000E+03 0.  0.
         25    1    1    2    0    0 -0.27568621126E+03 -0.11322850511E+03  0.10364960951E+04  0.10857130084E+04  0.12500000000E+03 0.  0.
</event>
<event>
 4    0  0.2353819E-002  0.2273501E+03  0.7546771E-02  0.1128519E+00
         21   -1    0    0  502  501  0.00000000000E+00  0.00000000000E+00  0.72402127338E+03  0.72402127338E+03  0.00000000000E+00 0.  1.
         21   -1    0    0  501  502 -0.00000000000E+00 -0.00000000000E+00 -0.71390269552E+02  0.71390269552E+02  0.00000000000E+00 0.  1.
         25    1    1    2    0    0  0.29580224161E+01 -0.82671555393E+01  0.65815904742E+03  0.66998166203E+03  0.12500000000E+03 0.  0.
         25    1    1    2    0    0 -0.29580224161E+01  0.82671555393E+01 -0.55280435908E+01  0.12542988090E+03  0.12500000000E+03 0.  0.
</event>
<event>
 4    0  0.2270578E-002  0.3010210E+03  0.7546771E-02  0.1084731E+00
         21   -1    0    0  502  501  0.00000000000E+00  0.00000000000E+00  0.62866329538E+03  0.62866329538E+03  0.00000000000E+00 0. -1.
         21   -1    0    0  501  502 -0.00000000000E+00 -0.00000000000E+00 -0.14413698204E+03  0.14413698204E+03  0.00000000000E+00 0. -1.
         25    1    1    2    0    0 -0.80642897728E+02  0.26169504757E+03  0.24358176651E+03  0.38722687388E+03  0.12500000000E+03 0.  0.
         25    1    1    2    0    0  0.80642897728E+02 -0.26169504757E+03  0.24094454683E+03  0.38557340355E+03  0.12500000000E+03 0.  0.
</event>
<event>
 4    0  0.2270578E-002  0.2016661E+03  0.7546771E-02  0.1148341E+00
         21   -1    0    0  502  501  0.00000000000E+00  0.00000000000E+00  0.27662551878E+04  0.27662551878E+04  0.00000000000E+00 0.  1.
         21   -1    0    0  501  502 -0.00000000000E+00 -0.00000000000E+00 -0.14701909686E+02  0.14701909686E+02  0.00000000000E+00 0.  1.
         25    1    1    2    0    0 -0.76032484714E+02 -0.70578540937E+01  0.42004858318E+03  0.44485566678E+03  0.12500000000E+03 0.  0.
         25    1    1    2    0    0  0.76032484714E+02  0.70578540937E+01  0.23315046949E+04  0.23361014307E+04  0.12500000000E+03 0.  0.
</event>
<event>
 4    0  0.2270578E-002  0.2035056E+03  0.7546771E-02  0.1146815E+00
         21   -1    0    0  502  501  0.00000000000E+00  0.00000000000E+00  0.49806847582E+03  0.49806847582E+03  0.00000000000E+00 0. -1.
         21   -1    0    0  501  502 -0.00000000000E+00 -0.00000000000E+00 -0.83150310623E+02  0.83150310623E+02  0.00000000000E+00 0. -1.
         25    1    1    2    0    0 -0.97322454416E+02 -0.78469545935E+02  0.35140156392E+03  0.39336648167E+03  0.12500000000E+03 0.  0.
         25    1    1    2    0    0  0.97322454416E+02  0.78469545935E+02  0.63516601280E+02  0.18785230478E+03  0.12500000000E+03 0.  0.
</event>
<event>
 4    0  0.2270578E-002  0.1559693E+03  0.7546771E-02  0.1193324E+00
         21   -1    0    0  502  501  0.00000000000E+00  0.00000000000E+00  0.13821689517E+02  0.13821689517E+02  0.00000000000E+00 0. -1.
         21   -1    0    0  501  502 -0.00000000000E+00 -0.00000000000E+00 -0.17600184326E+04  0.17600184326E+04  0.00000000000E+00 0. -1.
         25    1    1    2    0    0 -0.46570955973E+02 -0.77595428794E+02 -0.74448733745E+03  0.76031329078E+03  0.12500000000E+03 0.  0.
         25    1    1    2    0    0  0.46570955973E+02  0.77595428794E+02 -0.10017094056E+04  0.10135268313E+04  0.12500000000E+03 0.  0.
</event>
<event>
 4    0  0.2270578E-002  0.2030314E+03  0.7546771E-02  0.1147206E+00
         21   -1    0    0  502  501  0.00000000000E+00  0.00000000000E+00  0.62414862471E+02  0.62414862471E+02  0.00000000000E+00 0.  1.
         21   -1    0    0  501  502 -0.00000000000E+00 -0.00000000000E+00 -0.66044762994E+03  0.66044762994E+03  0.00000000000E+00 0.  1.
         25    1    1    2    0    0 -0.43938387215E+02 -0.14794199434E+03 -0.22392483865E+03  0.29930711472E+03  0.12500000000E+03 0.  0.
         25    1    1    2    0    0  0.43938387215E+02  0.14794199434E+03 -0.37410792883E+03  0.42355537769E+03  0.12500000000E+03 0.  0.
</event>
<event>
 4    0  0.2270578E-002  0.2343797E+03  0.7546771E-02  0.1123595E+00
         21   -1    0    0  502  501  0.00000000000E+00  0.00000000000E+00  0.10221647263E+03  0.10221647263E+03  0.00000000000E+00 0.  1.
         21   -1    0    0  501  502 -0.00000000000E+00 -0.00000000000E+00 -0.53742646883E+03  0.53742646883E+03  0.00000000000E+00 0.  1.
         25    1    1    2    0    0 -0.61075680849E+02  0.17022499823E+03 -0.10673168609E+03  0.24438379985E+03  0.12500000000E+03 0.  0.
         25    1    1    2    0    0  0.61075680849E+02 -0.17022499823E+03 -0.32847831011E+03  0.39525914161E+03  0.12500000000E+03 0.  0.
</event>
<event>
 4    0  0.2270578E-002  0.1818663E+03  0.7546771E-02  0.1166009E+00
         21   -1    0    0  502  501  0.00000000000E+00  0.00000000000E+00  0.11004822369E+03  0.11004822369E+03  0.00000000000E+00 0.  1.
         21   -1    0    0  501  502 -0.00000000000E+00 -0.00000000000E+00 -0.30055311880E+03  0.30055311880E+03  0.00000000000E+00 0.  1.
         25    1    1    2    0    0  0.57191594656E+02 -0.11607787115E+03 -0.65271061612E+02  0.19139033976E+03  0.12500000000E+03 0.  0.
         25    1    1    2    0    0 -0.57191594656E+02  0.11607787115E+03 -0.12523383349E+03  0.21921100274E+03  0.12500000000E+03 0.  0.
</event>
<event>
 4    0  0.2270578E-002  0.2869776E+03  0.7546771E-02  0.1091938E+00
         21   -1    0    0  502  501  0.00000000000E+00  0.00000000000E+00  0.20419368005E+03  0.20419368005E+03  0.00000000000E+00 0. -1.
         21   -1    0    0  501  502 -0.00000000000E+00 -0.00000000000E+00 -0.40332356741E+03  0.40332356741E+03  0.00000000000E+00 0. -1.
         25    1    1    2    0    0  0.14981749331E+03  0.43165170778E+02  0.11844653557E+03  0.23229958041E+03  0.12500000000E+03 0.  0.
         25    1    1    2    0    0 -0.14981749331E+03 -0.43165170778E+02 -0.31757642293E+03  0.37521766705E+03  0.12500000000E+03 0.  0.
</event>
<event>
 4    0  0.2270578E-002  0.2009040E+03  0.7546771E-02  0.1148979E+00
         21   -1    0    0  502  501  0.00000000000E+00  0.00000000000E+00  0.17053745405E+03  0.17053745405E+03  0.00000000000E+00 0.  1.
         21   -1    0    0  501  502 -0.00000000000E+00 -0.00000000000E+00 -0.23667770537E+03  0.23667770537E+03  0.00000000000E+00 0.  1.
         25    1    1    2    0    0 -0.24428356052E+02  0.10387317262E+03  0.84031468998E+02  0.18458783370E+03  0.12500000000E+03 0.  0.
         25    1    1    2    0    0  0.24428356052E+02 -0.10387317262E+03 -0.15017172032E+03  0.22262732571E+03  0.12500000000E+03 0.  0.
</event>
<event>
 4    0  0.2270578E-002  0.1807624E+03  0.7546771E-02  0.1167067E+00
         21   -1    0    0  502  501  0.00000000000E+00  0.00000000000E+00  0.82318573883E+02  0.82318573883E+02  0.00000000000E+00 0. -1.
         21   -1    0    0  501  502 -0.00000000000E+00 -0.00000000000E+00 -0.39693416468E+03  0.39693416468E+03  0.00000000000E+00 0. -1.
         25    1    1    2    0    0 -0.31379865187E+02 -0.84977006279E+02 -0.28197647691E+03  0.32146776054E+03  0.12500000000E+03 0.  0.
         25    1    1    2    0    0  0.31379865187E+02  0.84977006279E+02 -0.32639113890E+02  0.15778497803E+03  0.12500000000E+03 0.  0.
</event>
<event>
 4    0  0.2270578E-002  0.1949410E+03  0.7546771E-02  0.1154079E+00
         21   -1    0    0  502  501  0.00000000000E+00  0.00000000000E+00  0.30399654260E+02  0.30399654260E+02  0.00000000000E+00 0. -1.
         21   -1    0    0  501  502 -0.00000000000E+00 -0.00000000000E+00 -0.12500791744E+04  0.12500791744E+04  0.00000000000E+00 0. -1.
         25    1    1    2    0    0 -0.91981111356E+02  0.10499080928E+03 -0.43317820525E+03  0.47196605003E+03  0.12500000000E+03 0.  0.
         25    1    1    2    0    0  0.91981111356E+02 -0.10499080928E+03 -0.78650131492E+03  0.80851277866E+03  0.12500000000E+03 0.  0.
</event>
<event>
 4    0  0.2270578E-002  0.2507378E+03  0.7546771E-02  0.1112839E+00
         21   -1    0    0  502  501  0.00000000000E+00  0.00000000000E+00  0.74737131463E+02  0.74737131463E+02  0.00000000000E+00 0.  1.
         21   -1    0    0  501  502 -0.00000000000E+00 -0.00000000000E+00 -0.84120729855E+03  0.84120729855E+03  0.00000000000E+00 0.  1.
         25    1    1    2    0    0 -0.32455177632E+02  0.72974593714E+02 -0.14003065130E+02  0.14899569026E+03  0.12500000000E+03 0.  0.
         25    1    1    2    0    0  0.32455177632E+02 -0.72974593714E+02 -0.75246710196E+03  0.76694873976E+03  0.12500000000E+03 0.  0.
</event>
<event>
 4    0  0.2270578E-002  0.2037513E+03  0.7546771E-02  0.1146612E+00
         21   -1    0    0  502  501  0.00000000000E+00  0.00000000000E+00  0.26304809675E+03  0.26304809675E+03  0.00000000000E+00 0.  1.
         21   -1    0    0  501  502 -0.00000000000E+00 -0.00000000000E+00 -0.15782125672E+03  0.15782125672E+03  0.00000000000E+00 0.  1.
         25    1    1    2    0    0  0.96818613646E+02  0.12256179928E+03  0.12688682695E+02  0.20045259105E+03  0.12500000000E+03 0.  0.
         25    1    1    2    0    0 -0.96818613646E+02 -0.12256179928E+03  0.92538157341E+02  0.22041676242E+03  0.12500000000E+03 0.  0.
</event>
<event>
 4    0  0.2270578E-002  0.2047800E+03  0.7546771E-02  0.1145768E+00
         21   -1    0    0  502  501  0.00000000000E+00  0.00000000000E+00  0.31562794354E+03  0.31562794354E+03  0.00000000000E+00 0.  1.
         21   -1    0    0  501  502 -0.00000000000E+00 -0.00000000000E+00 -0.13286162603E+03  0.13286162603E+03  0.00000000000E+00 0.  1.
         25    1    1    2    0    0  0.14288803737E+03 -0.46923820368E+02  0.24854739831E+02  0.19713344271E+03  0.12500000000E+03 0.  0.
         25    1    1    2    0    0 -0.14288803737E+03  0.46923820368E+02  0.15791157769E+03  0.25135612686E+03  0.12500000000E+03 0.  0.
</event>
<event>
 4    0  0.2270578E-002  0.2135295E+03  0.7546771E-02  0.1138801E+00
         21   -1    0    0  502  501  0.00000000000E+00  0.00000000000E+00  0.38348188277E+02  0.38348188277E+02  0.00000000000E+00 0.  1.
         21   -1    0    0  501  502 -0.00000000000E+00 -0.00000000000E+00 -0.11889697365E+04  0.11889697365E+04  0.00000000000E+00 0.  1.
         25    1    1    2    0    0  0.21309937170E+02 -0.10283733314E+03 -0.97082452851E+03  0.98445664997E+03  0.12500000000E+03 0.  0.
         25    1    1    2    0    0 -0.21309937170E+02  0.10283733314E+03 -0.17979701975E+03  0.24286127484E+03  0.12500000000E+03 0.  0.
</event>
<event>
 4    0  0.2270578E-002  0.1850619E+03  0.7546771E-02  0.1162992E+00
         21   -1    0    0  502  501  0.00000000000E+00  0.00000000000E+00  0.31153247733E+02  0.31153247733E+02  0.00000000000E+00 0.  1.
         21   -1    0    0  501  502 -0.00000000000E+00 -0.00000000000E+00 -0.10993372376E+04  0.10993372376E+04  0.00000000000E+00 0.  1.
         25    1    1    2    0    0 -0.59282793744E+02 -0.10058813063E+03 -0.31832154326E+03  0.36136688637E+03  0.12500000000E+03 0.  0.
         25    1    1    2    0    0  0.59282793744E+02  0.10058813063E+03 -0.74986244664E+03  0.76912359900E+03  0.12500000000E+03 0.  0.
</event>
<event>
 4    0  0.2270578E-002  0.1945077E+03  0.7546771E-02  0.1154457E+00
         21   -1    0    0  502  501  0.00000000000E+00  0.00000000000E+00  0.15156759410E+03  0.15156759410E+03  0.00000000000E+00 0. -1.
         21   -1    0    0  501  502 -0.00000000000E+00 -0.00000000000E+00 -0.24961290734E+03  0.24961290734E+03  0.00000000000E+00 0. -1.
         25    1    1    2    0    0  0.85359109194E+02  0.47011934362E+02 -0.16529564676E+03  0.22900644169E+03  0.12500000000E+03 0.  0.
         25    1    1    2    0    0 -0.85359109194E+02 -0.47011934362E+02  0.67250333513E+02  0.17217405975E+03  0.12500000000E+03 0.  0.
</event>
<event>
 4    0  0.2270578E-002  0.1790289E+03  0.7546771E-02  0.1168746E+00
         21   -1    0    0  502  501  0.00000000000E+00  0.00000000000E+00  0.14358441745E+03  0.14358441745E+03  0.00000000000E+00 0.  1.
         21   -1    0    0  501  502 -0.00000000000E+00 -0.00000000000E+00 -0.22322303609E+03  0.22322303609E+03  0.00000000000E+00 0.  1.
         25    1    1    2    0    0  0.79595325144E+02 -0.92560717502E+02 -0.79804459017E+02  0.19208501734E+03  0.12500000000E+03 0.  0.
         25    1    1    2    0    0 -0.79595325144E+02  0.92560717502E+02  0.16584037407E+00  0.17472243620E+03  0.12500000000E+03 0.  0.
</event>
<event>
 4    0  0.2270578E-002  0.1831322E+03  0.7546771E-02  0.1164806E+00
         21   -1    0    0  502  501  0.00000000000E+00  0.00000000000E+00  0.12300258808E+03  0.12300258808E+03  0.00000000000E+00 0.  1.
         21   -1    0    0  501  502 -0.00000000000E+00 -0.00000000000E+00 -0.27265608929E+03  0.27265608929E+03  0.00000000000E+00 0.  1.
         25    1    1    2    0    0  0.11766103296E+03 -0.60959576852E+02 -0.95100332392E+02  0.20549759587E+03  0.12500000000E+03 0.  0.
         25    1    1    2    0    0 -0.11766103296E+03  0.60959576852E+02 -0.54553168821E+02  0.19016108149E+03  0.12500000000E+03 0.  0.
</event>
<event>
 4    0  0.2270578E-002  0.1754985E+03  0.7546771E-02  0.1172232E+00
         21   -1    0    0  502  501  0.00000000000E+00  0.00000000000E+00  0.29269735101E+03  0.29269735101E+03  0.00000000000E+00 0. -1.
         21   -1    0    0  501  502 -0.00000000000E+00 -0.00000000000E+00 -0.10522717735E+03  0.10522717735E+03  0.00000000000E+00 0.  1.
         25    1    1    2    0    0 -0.70217106998E+02  0.74858202377E+02  0.16506009605E+02  0.16257810717E+03  0.12500000000E+03 0.  0.
         25    1    1    2    0    0  0.70217106998E+02 -0.74858202377E+02  0.17096416405E+03  0.23534642119E+03  0.12500000000E+03 0.  0.
</event>
<event>
 4    0  0.2270578E-002  0.1676561E+03  0.7546771E-02  0.1180314E+00
         21   -1    0    0  502  501  0.00000000000E+00  0.00000000000E+00  0.45995839904E+03  0.45995839904E+03  0.00000000000E+00 0.  1.
         21   -1    0    0  501  502 -0.00000000000E+00 -0.00000000000E+00 -0.61111115410E+02  0.61111115410E+02  0.00000000000E+00 0.  1.
         25    1    1    2    0    0 -0.14255998738E+02  0.82796655925E+02  0.84965101510E+02  0.17292364849E+03  0.12500000000E+03 0.  0.
         25    1    1    2    0    0  0.14255998738E+02 -0.82796655925E+02  0.31388218212E+03  0.34814586596E+03  0.12500000000E+03 0.  0.
</event>
<event>
 4    0  0.2270578E-002  0.2726394E+03  0.7546771E-02  0.1099778E+00
         21   -1    0    0  502  501  0.00000000000E+00  0.00000000000E+00  0.40571899554E+03  0.40571899554E+03  0.00000000000E+00 0.  1.
         21   -1    0    0  501  502 -0.00000000000E+00 -0.00000000000E+00 -0.18321111069E+03  0.18321111069E+03  0.00000000000E+00 0.  1.
         25    1    1    2    0    0  0.20581767625E+03 -0.12681524549E+03  0.12880955858E+03  0.30109786570E+03  0.12500000000E+03 0.  0.
         25    1    1    2    0    0 -0.20581767625E+03  0.12681524549E+03  0.93698326266E+02  0.28783224053E+03  0.12500000000E+03 0.  0.
</event>
<event>
 4    0  0.2270578E-002  0.1828473E+03  0.7546771E-02  0.1165076E+00
         21   -1    0    0  502  501  0.00000000000E+00  0.00000000000E+00  0.39818591429E+03  0.39818591429E+03  0.00000000000E+00 0. -1.
         21   -1    0    0  501  502 -0.00000000000E+00 -0.00000000000E+00 -0.83963605936E+02  0.83963605936E+02  0.00000000000E+00 0. -1.
         25    1    1    2    0    0  0.87999270220E+02  0.10020100965E+03  0.15065058005E+03  0.23686433071E+03  0.12500000000E+03 0.  0.
         25    1    1    2    0    0 -0.87999270220E+02 -0.10020100965E+03  0.16357172830E+03  0.24528518951E+03  0.12500000000E+03 0.  0.
</event>
<event>
 4    0  0.2270578E-002  0.3833657E+03  0.7546771E-02  0.1049697E+00
         21   -1    0    0  502  501  0.00000000000E+00  0.00000000000E+00  0.72171394835E+03  0.72171394835E+03  0.00000000000E+00 0.  1.
         21   -1    0    0  501  502 -0.00000000000E+00 -0.00000000000E+00 -0.20363919426E+03  0.20363919426E+03  0.00000000000E+00 0. -1.
         25    1    1    2    0    0 -0.32906720060E+03  0.15111413440E+03  0.27708186743E+03  0.47277908729E+03  0.12500000000E+03 0.  0.
         25    1    1    2    0    0  0.32906720060E+03 -0.15111413440E+03  0.24099288666E+03  0.45257405532E+03  0.12500000000E+03 0.  0.
</event>
<event>
 4    0  0.2270578E-002  0.2263740E+03  0.7546771E-02  0.1129218E+00
         21   -1    0    0  502  501  0.00000000000E+00  0.00000000000E+00  0.69888258716E+03  0.69888258716E+03  0.00000000000E+00 0. -1.
         21   -1    0    0  501  502 -0.00000000000E+00 -0.00000000000E+00 -0.73324470069E+02  0.73324470069E+02  0.00000000000E+00 0. -1.
         25    1    1    2    0    0  0.18991039239E+02  0.85954150343E+01  0.63271277565E+03  0.64527900726E+03  0.12500000000E+03 0.  0.
         25    1    1    2    0    0 -0.18991039239E+02 -0.85954150343E+01 -0.71546585608E+01  0.12692804997E+03  0.12500000000E+03 0.  0.
</event>
<event>
 4    0  0.2270578E-002  0.2338423E+03  0.7546771E-02  0.1123964E+00
         21   -1    0    0  502  501  0.00000000000E+00  0.00000000000E+00  0.37259881716E+03  0.37259881716E+03  0.00000000000E+00 0. -1.
         21   -1    0    0  501  502 -0.00000000000E+00 -0.00000000000E+00 -0.14675896878E+03  0.14675896878E+03  0.00000000000E+00 0. -1.
         25    1    1    2    0    0 -0.13402592065E+03 -0.14268869934E+03  0.82829901912E+02  0.24659441392E+03  0.12500000000E+03 0.  0.
         25    1    1    2    0    0  0.13402592065E+03  0.14268869934E+03  0.14300994648E+03  0.27276337202E+03  0.12500000000E+03 0.  0.
</event>
<event>
 4    0  0.2270578E-002  0.2727303E+03  0.7546771E-02  0.1099727E+00
         21   -1    0    0  502  501  0.00000000000E+00  0.00000000000E+00  0.94320806997E+03  0.94320806997E+03  0.00000000000E+00 0. -1.
         21   -1    0    0  501  502 -0.00000000000E+00 -0.00000000000E+00 -0.78860478119E+02  0.78860478119E+02  0.00000000000E+00 0. -1.
         25    1    1    2    0    0  0.72604179273E+02 -0.13229427551E+03  0.76731207236E+02  0.21044196431E+03  0.12500000000E+03 0.  0.
         25    1    1    2    0    0 -0.72604179273E+02  0.13229427551E+03  0.78761638462E+03  0.81162658378E+03  0.12500000000E+03 0.  0.
</event>
<event>
 4    0  0.2270578E-002  0.1940828E+03  0.7546771E-02  0.1154830E+00
         21   -1    0    0  502  501  0.00000000000E+00  0.00000000000E+00  0.27641802698E+03  0.27641802698E+03  0.00000000000E+00 0.  1.
         21   -1    0    0  501  502 -0.00000000000E+00 -0.00000000000E+00 -0.13627239764E+03  0.13627239764E+03  0.00000000000E+00 0.  1.
         25    1    1    2    0    0 -0.28583934917E+02  0.12405125816E+03 -0.11157225876E+02  0.17876028551E+03  0.12500000000E+03 0.  0.
         25    1    1    2    0    0  0.28583934917E+02 -0.12405125816E+03  0.15130285521E+03  0.23393013911E+03  0.12500000000E+03 0.  0.
</event>
<event>
 4    0  0.2270578E-002  0.2479074E+03  0.7546771E-02  0.1114635E+00
         21   -1    0    0  502  501  0.00000000000E+00  0.00000000000E+00  0.67575314647E+03  0.67575314647E+03  0.00000000000E+00 0. -1.
         21   -1    0    0  501  502 -0.00000000000E+00 -0.00000000000E+00 -0.90947495528E+02  0.90947495528E+02  0.00000000000E+00 0. -1.
         25    1    1    2    0    0 -0.16074156489E+03 -0.10810603269E+03  0.43335191598E+03  0.49086011049E+03  0.12500000000E+03 0.  0.
         25    1    1    2    0    0  0.16074156489E+03  0.10810603269E+03  0.15145373496E+03  0.27584053151E+03  0.12500000000E+03 0.  0.
</event>
<event>
 4    0  0.2270578E-002  0.2704859E+03  0.7546771E-02  0.1101002E+00
         21   -1    0    0  502  501  0.00000000000E+00  0.00000000000E+00  0.30125224719E+03  0.30125224719E+03  0.00000000000E+00 0. -1.
         21   -1    0    0  501  502 -0.00000000000E+00 -0.00000000000E+00 -0.24286166246E+03  0.24286166246E+03  0.00000000000E+00 0. -1.
         25    1    1    2    0    0 -0.18191858689E+03 -0.11247096258E+03 -0.80033503524E+02  0.26033526723E+03  0.12500000000E+03 0.  0.
         25    1    1    2    0    0  0.18191858689E+03  0.11247096258E+03  0.13842408826E+03  0.28377864241E+03  0.12500000000E+03 0.  0.
</event>
<event>
 4    0  0.2270578E-002  0.2524493E+03  0.7546771E-02  0.1111767E+00
         21   -1    0    0  502  501  0.00000000000E+00  0.00000000000E+00  0.13795066623E+04  0.13795066623E+04  0.00000000000E+00 0. -1.
         21   -1    0    0  501  502 -0.00000000000E+00 -0.00000000000E+00 -0.46198147982E+02  0.46198147982E+02  0.00000000000E+00 0. -1.
         25    1    1    2    0    0 -0.23200817227E+02 -0.14009574170E+03  0.11386553174E+04  0.11542642793E+04  0.12500000000E+03 0.  0.
         25    1    1    2    0    0  0.23200817227E+02  0.14009574170E+03  0.19465319695E+03  0.27144053095E+03  0.12500000000E+03 0.  0.
</event>
<event>
 4    0  0.2270578E-002  0.3593256E+03  0.7546771E-02  0.1058851E+00
         21   -1    0    0  502  501  0.00000000000E+00  0.00000000000E+00  0.89854158937E+03  0.89854158937E+03  0.00000000000E+00 0.  1.
         21   -1    0    0  501  502 -0.00000000000E+00 -0.00000000000E+00 -0.14369385507E+03  0.14369385507E+03  0.00000000000E+00 0.  1.
         25    1    1    2    0    0 -0.31354454257E+03  0.69333062494E+02  0.22971977079E+03  0.41414179555E+03  0.12500000000E+03 0.  0.
         25    1    1    2    0    0  0.31354454257E+03 -0.69333062494E+02  0.52512796350E+03  0.62809364889E+03  0.12500000000E+03 0.  0.
</event>
<event>
 4    0  0.2270578E-002  0.3907343E+03  0.7546771E-02  0.1047036E+00
         21   -1    0    0  502  501  0.00000000000E+00  0.00000000000E+00  0.34373165613E+03  0.34373165613E+03  0.00000000000E+00 0. -1.
         21   -1    0    0  501  502 -0.00000000000E+00 -0.00000000000E+00 -0.44416426122E+03  0.44416426122E+03  0.00000000000E+00 0. -1.
         25    1    1    2    0    0 -0.31757115678E+03 -0.14830819603E+03  0.69934107228E+02  0.37863246029E+03  0.12500000000E+03 0.  0.
         25    1    1    2    0    0  0.31757115678E+03  0.14830819603E+03 -0.17036671231E+03  0.40926345707E+03  0.12500000000E+03 0.  0.
</event>
<event>
 4    0  0.2270578E-002  0.2248754E+03  0.7546771E-02  0.1130300E+00
         21   -1    0    0  502  501  0.00000000000E+00  0.00000000000E+00  0.47201803527E+02  0.47201803527E+02  0.00000000000E+00 0.  1.
         21   -1    0    0  501  502 -0.00000000000E+00 -0.00000000000E+00 -0.10713349549E+04  0.10713349549E+04  0.00000000000E+00 0.  1.
         25    1    1    2    0    0 -0.54578896216E+02 -0.54033925010E+02 -0.93592143819E+03  0.94735023060E+03  0.12500000000E+03 0.  0.
         25    1    1    2    0    0  0.54578896216E+02  0.54033925010E+02 -0.88211713177E+02  0.17118652782E+03  0.12500000000E+03 0.  0.
</event>
<event>
 4    0  0.2270578E-002  0.2414914E+03  0.7546771E-02  0.1118803E+00
         21   -1    0    0  502  501  0.00000000000E+00  0.00000000000E+00  0.36628245534E+03  0.36628245534E+03  0.00000000000E+00 0.  1.
         21   -1    0    0  501  502 -0.00000000000E+00 -0.00000000000E+00 -0.15921620116E+03  0.15921620116E+03  0.00000000000E+00 0.  1.
         25    1    1    2    0    0  0.51772726474E+02  0.13048782246E+02 -0.11364333575E+03  0.17717362582E+03  0.12500000000E+03 0.  0.
         25    1    1    2    0    0 -0.51772726474E+02 -0.13048782246E+02  0.32070958993E+03  0.34832503068E+03  0.12500000000E+03 0.  0.
</event>
<event>
 4    0  0.2270578E-002  0.2681643E+03  0.7546771E-02  0.1102335E+00
         21   -1    0    0  502  501  0.00000000000E+00  0.00000000000E+00  0.21195163805E+03  0.21195163805E+03  0.00000000000E+00 0.  1.
         21   -1    0    0  501  502 -0.00000000000E+00 -0.00000000000E+00 -0.33928542970E+03  0.33928542970E+03  0.00000000000E+00 0.  1.
         25    1    1    2    0    0 -0.52561147440E+02 -0.30631439096E+02 -0.29935794248E+03  0.33006232291E+03  0.12500000000E+03 0.  0.
         25    1    1    2    0    0  0.52561147440E+02  0.30631439096E+02  0.17202415083E+03  0.22117474483E+03  0.12500000000E+03 0.  0.
</event>
<event>
 4    0  0.2270578E-002  0.1626603E+03  0.7546771E-02  0.1185726E+00
         21   -1    0    0  502  501  0.00000000000E+00  0.00000000000E+00  0.78198058377E+02  0.78198058377E+02  0.00000000000E+00 0. -1.
         21   -1    0    0  501  502 -0.00000000000E+00 -0.00000000000E+00 -0.33835065953E+03  0.33835065953E+03  0.00000000000E+00 0. -1.
         25    1    1    2    0    0  0.54656468125E+02 -0.61891513249E+02 -0.48938578811E+02  0.15760035982E+03  0.12500000000E+03 0.  0.
         25    1    1    2    0    0 -0.54656468125E+02  0.61891513249E+02 -0.21121402234E+03  0.25894835808E+03  0.12500000000E+03 0.  0.
</event>
<event>
 4    0  0.2270578E-002  0.2438086E+03  0.7546771E-02  0.1117281E+00
         21   -1    0    0  502  501  0.00000000000E+00  0.00000000000E+00  0.59132024670E+03  0.59132024670E+03  0.00000000000E+00 0.  1.
         21   -1    0    0  501  502 -0.00000000000E+00 -0.00000000000E+00 -0.10052524484E+03  0.10052524484E+03  0.00000000000E+00 0.  1.
         25    1    1    2    0    0 -0.21686176434E+02 -0.17003623622E+03  0.74931183328E+02  0.22499398683E+03  0.12500000000E+03 0.  0.
         25    1    1    2    0    0  0.21686176434E+02  0.17003623622E+03  0.41586381854E+03  0.46685150470E+03  0.12500000000E+03 0.  0.
</event>
<event>
 4    0  0.2270578E-002  0.1844986E+03  0.7546771E-02  0.1163519E+00
         21   -1    0    0  502  501  0.00000000000E+00  0.00000000000E+00  0.47878436278E+02  0.47878436278E+02  0.00000000000E+00 0. -1.
         21   -1    0    0  501  502 -0.00000000000E+00 -0.00000000000E+00 -0.71096161323E+03  0.71096161323E+03  0.00000000000E+00 0. -1.
         25    1    1    2    0    0  0.12776747936E+03  0.38322820216E+02 -0.28027082821E+03  0.33461904381E+03  0.12500000000E+03 0.  0.
         25    1    1    2    0    0 -0.12776747936E+03 -0.38322820216E+02 -0.38281234874E+03  0.42422100570E+03  0.12500000000E+03 0.  0.
</event>
<event>
 4    0  0.2270578E-002  0.6018049E+03  0.7546771E-02  0.9901668E-01
         21   -1    0    0  502  501  0.00000000000E+00  0.00000000000E+00  0.67372469363E+03  0.67372469363E+03  0.00000000000E+00 0. -1.
         21   -1    0    0  501  502 -0.00000000000E+00 -0.00000000000E+00 -0.53756254158E+03  0.53756254158E+03  0.00000000000E+00 0.  1.
         25    1    1    2    0    0  0.19403888612E+03 -0.54095964361E+03 -0.60230162000E+02  0.59122000792E+03  0.12500000000E+03 0.  0.
         25    1    1    2    0    0 -0.19403888612E+03  0.54095964361E+03  0.19639231405E+03  0.62006722730E+03  0.12500000000E+03 0.  0.
</event>
<event>
 4    0  0.2270578E-002  0.1948828E+03  0.7546771E-02  0.1154130E+00
         21   -1    0    0  502  501  0.00000000000E+00  0.00000000000E+00  0.88139591949E+03  0.88139591949E+03  0.00000000000E+00 0. -1.
         21   -1    0    0  501  502 -0.00000000000E+00 -0.00000000000E+00 -0.43089929609E+02  0.43089929609E+02  0.00000000000E+00 0. -1.
         25    1    1    2    0    0 -0.81202370794E+02  0.31045850606E+02  0.70767443887E+03  0.72386862157E+03  0.12500000000E+03 0.  0.
         25    1    1    2    0    0  0.81202370794E+02 -0.31045850606E+02  0.13063155101E+03  0.20061722753E+03  0.12500000000E+03 0.  0.
</event>
<event>
 4    0  0.2270578E-002  0.2271714E+03  0.7546771E-02  0.1128647E+00
         21   -1    0    0  502  501  0.00000000000E+00  0.00000000000E+00  0.18316469058E+03  0.18316469058E+03  0.00000000000E+00 0.  1.
         21   -1    0    0  501  502 -0.00000000000E+00 -0.00000000000E+00 -0.28175116013E+03  0.28175116013E+03  0.00000000000E+00 0.  1.
         25    1    1    2    0    0  0.95377874507E+02 -0.16359565143E+03 -0.60567244926E+02  0.23484860500E+03  0.12500000000E+03 0.  0.
         25    1    1    2    0    0 -0.95377874507E+02  0.16359565143E+03 -0.38019224622E+02  0.23006724572E+03  0.12500000000E+03 0.  0.
</event>
<event>
 4    0  0.2270578E-002  0.2551056E+03  0.7546771E-02  0.1110120E+00
         21   -1    0    0  502  501  0.00000000000E+00  0.00000000000E+00  0.57511360146E+03  0.57511360146E+03  0.00000000000E+00 0. -1.
         21   -1    0    0  501  502 -0.00000000000E+00 -0.00000000000E+00 -0.11315825233E+03  0.11315825233E+03  0.00000000000E+00 0. -1.
         25    1    1    2    0    0 -0.18815454449E+03 -0.11477682948E+03  0.19100561239E+03  0.31730741744E+03  0.12500000000E+03 0.  0.
         25    1    1    2    0    0  0.18815454449E+03  0.11477682948E+03  0.27094973674E+03  0.37096443635E+03  0.12500000000E+03 0.  0.
</event>
<event>
 4    0  0.2270578E-002  0.1854203E+03  0.7546771E-02  0.1162658E+00
         21   -1    0    0  502  501  0.00000000000E+00  0.00000000000E+00  0.16486305360E+03  0.16486305360E+03  0.00000000000E+00 0. -1.
         21   -1    0    0  501  502 -0.00000000000E+00 -0.00000000000E+00 -0.20854087031E+03  0.20854087031E+03  0.00000000000E+00 0. -1.
         25    1    1    2    0    0 -0.48191063400E+02  0.21260266757E+02  0.10545211273E+03  0.17181247223E+03  0.12500000000E+03 0.  0.
         25    1    1    2    0    0  0.48191063400E+02 -0.21260266757E+02 -0.14912992944E+03  0.20159145168E+03  0.12500000000E+03 0.  0.
</event>
<event>
 4    0  0.2270578E-002  0.2800827E+03  0.7546771E-02  0.1095644E+00
         21   -1    0    0  502  501  0.00000000000E+00  0.00000000000E+00  0.64234308627E+02  0.64234308627E+02  0.00000000000E+00 0. -1.
         21   -1    0    0  501  502 -0.00000000000E+00 -0.00000000000E+00 -0.12212529687E+04  0.12212529687E+04  0.00000000000E+00 0. -1.
         25    1    1    2    0    0  0.18803629725E+03  0.78656686668E+02 -0.24377152078E+03  0.34145874976E+03  0.12500000000E+03 0.  0.
         25    1    1    2    0    0 -0.18803629725E+03 -0.78656686668E+02 -0.91324713925E+03  0.94402852753E+03  0.12500000000E+03 0.  0.
</event>
<event>
 4    0  0.2270578E-002  0.2379469E+03  0.7546771E-02  0.1121168E+00
         21   -1    0    0  502  501  0.00000000000E+00  0.00000000000E+00  0.37300841626E+02  0.37300841626E+02  0.00000000000E+00 0.  1.
         21   -1    0    0  501  502 -0.00000000000E+00 -0.00000000000E+00 -0.15178940054E+04  0.15178940054E+04  0.00000000000E+00 0.  1.
         25    1    1    2    0    0 -0.25793046035E+02  0.96632395979E+02 -0.16500247401E+03  0.22989979905E+03  0.12500000000E+03 0.  0.
         25    1    1    2    0    0  0.25793046035E+02 -0.96632395979E+02 -0.13155906898E+04  0.13252950480E+04  0.12500000000E+03 0.  0.
</event>
<event>
 4    0  0.2270578E-002  0.1964262E+03  0.7546771E-02  0.1152790E+00
         21   -1    0    0  502  501  0.00000000000E+00  0.00000000000E+00  0.36631736664E+02  0.36631736664E+02  0.00000000000E+00 0. -1.
         21   -1    0    0  501  502 -0.00000000000E+00 -0.00000000000E+00 -0.10532734394E+04  0.10532734394E+04  0.00000000000E+00 0. -1.
         25    1    1    2    0    0 -0.55589014541E+02  0.13508650496E+03 -0.61997660363E+03  0.64910283577E+03  0.12500000000E+03 0.  0.
         25    1    1    2    0    0  0.55589014541E+02 -0.13508650496E+03 -0.39666509915E+03  0.44080234033E+03  0.12500000000E+03 0.  0.
</event>
<event>
 4    0  0.2270578E-002  0.2144918E+03  0.7546771E-02  0.1138058E+00
         21   -1    0    0  502  501  0.00000000000E+00  0.00000000000E+00  0.19534425797E+03  0.19534425797E+03  0.00000000000E+00 0. -1.
         21   -1    0    0  501  502 -0.00000000000E+00 -0.00000000000E+00 -0.23551623180E+03  0.23551623180E+03  0.00000000000E+00 0. -1.
         25    1    1    2    0    0 -0.12867453506E+03  0.22152460097E+02  0.95891617907E+02  0.20461688554E+03  0.12500000000E+03 0.  0.
         25    1    1    2    0    0  0.12867453506E+03 -0.22152460097E+02 -0.13606359174E+03  0.22624360424E+03  0.12500000000E+03 0.  0.
</event>
<event>
 4    0  0.2270578E-002  0.2293295E+03  0.7546771E-02  0.1127113E+00
         21   -1    0    0  502  501  0.00000000000E+00  0.00000000000E+00  0.97012862477E+02  0.97012862477E+02  0.00000000000E+00 0. -1.
         21   -1    0    0  501  502 -0.00000000000E+00 -0.00000000000E+00 -0.54211380458E+03  0.54211380458E+03  0.00000000000E+00 0. -1.
         25    1    1    2    0    0 -0.60067147392E+02 -0.55383661613E+02  0.19975445928E+02  0.15066330213E+03  0.12500000000E+03 0.  0.
         25    1    1    2    0    0  0.60067147392E+02  0.55383661613E+02 -0.46507638803E+03  0.48846336493E+03  0.12500000000E+03 0.  0.
</event>
<event>
 4    0  0.2270578E-002  0.1858515E+03  0.7546771E-02  0.1162257E+00
         21   -1    0    0  502  501  0.00000000000E+00  0.00000000000E+00  0.22488380313E+03  0.22488380313E+03  0.00000000000E+00 0. -1.
         21   -1    0    0  501  502 -0.00000000000E+00 -0.00000000000E+00 -0.15359390487E+03  0.15359390487E+03  0.00000000000E+00 0. -1.
         25    1    1    2    0    0  0.58594936155E+02  0.12439200915E+03  0.38706912854E+02  0.18981560417E+03  0.12500000000E+03 0.  0.
         25    1    1    2    0    0 -0.58594936155E+02 -0.12439200915E+03  0.32582985411E+02  0.18866210383E+03  0.12500000000E+03 0.  0.
</event>
<event>
 4    0  0.2270578E-002  0.1909798E+03  0.7546771E-02  0.1157581E+00
         21   -1    0    0  502  501  0.00000000000E+00  0.00000000000E+00  0.61986714206E+02  0.61986714206E+02  0.00000000000E+00 0. -1.
         21   -1    0    0  501  502 -0.00000000000E+00 -0.00000000000E+00 -0.58840509860E+03  0.58840509860E+03  0.00000000000E+00 0.  1.
         25    1    1    2    0    0 -0.12899055976E+02 -0.13348645899E+03 -0.35432407686E+03  0.39894306839E+03  0.12500000000E+03 0.  0.
         25    1    1    2    0    0  0.12899055976E+02  0.13348645899E+03 -0.17209430753E+03  0.25144874441E+03  0.12500000000E+03 0.  0.
</event>
<event>
 4    0  0.2270578E-002  0.3714594E+03  0.7546771E-02  0.1054136E+00
         21   -1    0    0  502  501  0.00000000000E+00  0.00000000000E+00  0.28064513854E+03  0.28064513854E+03  0.00000000000E+00 0.  1.
         21   -1    0    0  501  502 -0.00000000000E+00 -0.00000000000E+00 -0.49166029135E+03  0.49166029135E+03  0.00000000000E+00 0.  1.
         25    1    1    2    0    0  0.13112877836E+03  0.13921589890E+03  0.19896202789E+03  0.30296321816E+03  0.12500000000E+03 0.  0.
         25    1    1    2    0    0 -0.13112877836E+03 -0.13921589890E+03 -0.40997718069E+03  0.46934221173E+03  0.12500000000E+03 0.  0.
</event>
<event>
 4    0  0.2270578E-002  0.2474251E+03  0.7546771E-02  0.1114943E+00
         21   -1    0    0  502  501  0.00000000000E+00  0.00000000000E+00  0.49915303659E+02  0.49915303659E+02  0.00000000000E+00 0.  1.
         21   -1    0    0  501  502 -0.00000000000E+00 -0.00000000000E+00 -0.12264607963E+04  0.12264607963E+04  0.00000000000E+00 0.  1.
         25    1    1    2    0    0 -0.13085134692E+03 -0.10498284436E+03 -0.92900345890E+03  0.95226881669E+03  0.12500000000E+03 0.  0.
         25    1    1    2    0    0  0.13085134692E+03  0.10498284436E+03 -0.24754203377E+03  0.32410728329E+03  0.12500000000E+03 0.  0.
</event>
<event>
 4    0  0.2270578E-002  0.2239585E+03  0.7546771E-02  0.1130966E+00
         21   -1    0    0  502  501  0.00000000000E+00  0.00000000000E+00  0.27429881039E+03  0.27429881039E+03  0.00000000000E+00 0. -1.
         21   -1    0    0  501  502 -0.00000000000E+00 -0.00000000000E+00 -0.18285686334E+03  0.18285686334E+03  0.00000000000E+00 0. -1.
         25    1    1    2    0    0  0.15566785274E+03 -0.28168914502E+02  0.14523304176E+03  0.24848260410E+03  0.12500000000E+03 0.  0.
         25    1    1    2    0    0 -0.15566785274E+03  0.28168914502E+02 -0.53791094705E+02  0.20867306963E+03  0.12500000000E+03 0.  0.
</event>
<event>
 4    0  0.2270578E-002  0.1935597E+03  0.7546771E-02  0.1155289E+00
         21   -1    0    0  502  501  0.00000000000E+00  0.00000000000E+00  0.26408200819E+03  0.26408200819E+03  0.00000000000E+00 0. -1.
         21   -1    0    0  501  502 -0.00000000000E+00 -0.00000000000E+00 -0.14187012952E+03  0.14187012952E+03  0.00000000000E+00 0. -1.
         25    1    1    2    0    0  0.37901986824E+02  0.61067335456E+02 -0.74306091485E+02  0.16221028111E+03  0.12500000000E+03 0.  0.
         25    1    1    2    0    0 -0.37901986824E+02 -0.61067335456E+02  0.19651797016E+03  0.24374185660E+03  0.12500000000E+03 0.  0.
</event>
<event>
 4    0  0.2270578E-002  0.2731197E+03  0.7546771E-02  0.1099507E+00
         21   -1    0    0  502  501  0.00000000000E+00  0.00000000000E+00  0.42716839133E+03  0.42716839133E+03  0.00000000000E+00 0.  1.
         21   -1    0    0  501  502 -0.00000000000E+00 -0.00000000000E+00 -0.17462516506E+03  0.17462516506E+03  0.00000000000E+00 0. -1.
         25    1    1    2    0    0 -0.11887324422E+03 -0.19841690716E+03  0.44795968538E+02  0.26670544808E+03  0.12500000000E+03 0.  0.
         25    1    1    2    0    0  0.11887324422E+03  0.19841690716E+03  0.20774725773E+03  0.33508810831E+03  0.12500000000E+03 0.  0.
</event>
<event>
 4    0  0.2270578E-002  0.1795738E+03  0.7546771E-02  0.1168216E+00
         21   -1    0    0  502  501  0.00000000000E+00  0.00000000000E+00  0.13173365453E+03  0.13173365453E+03  0.00000000000E+00 0. -1.
         21   -1    0    0  501  502 -0.00000000000E+00 -0.00000000000E+00 -0.24478758343E+03  0.24478758343E+03  0.00000000000E+00 0. -1.
         25    1    1    2    0    0 -0.84493711439E+02 -0.96094252121E+02 -0.73052431245E+02  0.19322254080E+03  0.12500000000E+03 0.  0.
         25    1    1    2    0    0  0.84493711439E+02  0.96094252121E+02 -0.40001497655E+02  0.18329869715E+03  0.12500000000E+03 0.  0.
</event>
<event>
 4    0  0.2270578E-002  0.2063966E+03  0.7546771E-02  0.1144452E+00
         21   -1    0    0  502  501  0.00000000000E+00  0.00000000000E+00  0.88631767658E+03  0.88631767658E+03  0.00000000000E+00 0.  1.
         21   -1    0    0  501  502 -0.00000000000E+00 -0.00000000000E+00 -0.48063513668E+02  0.48063513668E+02  0.00000000000E+00 0.  1.
         25    1    1    2    0    0 -0.13215787531E+03 -0.43014795023E+02  0.61721835031E+03  0.64490268147E+03  0.12500000000E+03 0.  0.
         25    1    1    2    0    0  0.13215787531E+03  0.43014795023E+02  0.22103581259E+03  0.28947850878E+03  0.12500000000E+03 0.  0.
</event>
<event>
 4    0  0.2270578E-002  0.2423008E+03  0.7546771E-02  0.1118270E+00
         21   -1    0    0  502  501  0.00000000000E+00  0.00000000000E+00  0.90722102790E+03  0.90722102790E+03  0.00000000000E+00 0.  1.
         21   -1    0    0  501  502 -0.00000000000E+00 -0.00000000000E+00 -0.64713744479E+02  0.64713744479E+02  0.00000000000E+00 0. -1.
         25    1    1    2    0    0 -0.17717944161E+03  0.32015877858E+02  0.21410816008E+03  0.30640638893E+03  0.12500000000E+03 0.  0.
         25    1    1    2    0    0  0.17717944161E+03 -0.32015877858E+02  0.62839912334E+03  0.66552838345E+03  0.12500000000E+03 0.  0.
</event>
<event>
 4    0  0.2270578E-002  0.1594214E+03  0.7546771E-02  0.1189352E+00
         21   -1    0    0  502  501  0.00000000000E+00  0.00000000000E+00  0.29725840322E+03  0.29725840322E+03  0.00000000000E+00 0.  1.
         21   -1    0    0  501  502 -0.00000000000E+00 -0.00000000000E+00 -0.85498577715E+02  0.85498577715E+02  0.00000000000E+00 0.  1.
         25    1    1    2    0    0  0.54660777845E+01 -0.58347812875E+02  0.10175362005E+02  0.13843006634E+03  0.12500000000E+03 0.  0.
         25    1    1    2    0    0 -0.54660777845E+01  0.58347812875E+02  0.20158446350E+03  0.24432691460E+03  0.12500000000E+03 0.  0.
</event>
<event>
 4    0  0.2270578E-002  0.2303543E+03  0.7546771E-02  0.1126391E+00
         21   -1    0    0  502  501  0.00000000000E+00  0.00000000000E+00  0.38160731305E+03  0.38160731305E+03  0.00000000000E+00 0.  1.
         21   -1    0    0  501  502 -0.00000000000E+00 -0.00000000000E+00 -0.13905157079E+03  0.13905157079E+03  0.00000000000E+00 0.  1.
         25    1    1    2    0    0  0.12867456215E+03  0.11238875633E+03  0.22392495575E+03  0.30814892714E+03  0.12500000000E+03 0.  0.
         25    1    1    2    0    0 -0.12867456215E+03 -0.11238875633E+03  0.18630786514E+02  0.21250995670E+03  0.12500000000E+03 0.  0.
</event>
<event>
 4    0  0.2270578E-002  0.3074713E+03  0.7546771E-02  0.1081564E+00
         21   -1    0    0  502  501  0.00000000000E+00  0.00000000000E+00  0.11925812634E+03  0.11925812634E+03  0.00000000000E+00 0.  1.
         21   -1    0    0  501  502 -0.00000000000E+00 -0.00000000000E+00 -0.79272229511E+03  0.79272229511E+03  0.00000000000E+00 0.  1.
         25    1    1    2    0    0 -0.15660207294E+03  0.12570142706E+02  0.86312521122E+01  0.20095202475E+03  0.12500000000E+03 0.  0.
         25    1    1    2    0    0  0.15660207294E+03 -0.12570142706E+02 -0.68209542088E+03  0.71102839670E+03  0.12500000000E+03 0.  0.
</event>
<event>
 4    0  0.2270578E-002  0.3343757E+03  0.7546771E-02  0.1069217E+00
         21   -1    0    0  502  501  0.00000000000E+00  0.00000000000E+00  0.12300205624E+04  0.12300205624E+04  0.00000000000E+00 0.  1.
         21   -1    0    0  501  502 -0.00000000000E+00 -0.00000000000E+00 -0.90898587761E+02  0.90898587761E+02  0.00000000000E+00 0.  1.
         25    1    1    2    0    0  0.82461452960E+02  0.10442377397E+03  0.16229711347E+02  0.18328289425E+03  0.12500000000E+03 0.  0.
         25    1    1    2    0    0 -0.82461452960E+02 -0.10442377397E+03  0.11228922633E+04  0.11376362559E+04  0.12500000000E+03 0.  0.
</event>
<event>
 4    0  0.2270578E-002  0.2105409E+03  0.7546771E-02  0.1141138E+00
         21   -1    0    0  502  501  0.00000000000E+00  0.00000000000E+00  0.10089816364E+03  0.10089816364E+03  0.00000000000E+00 0.  1.
         21   -1    0    0  501  502 -0.00000000000E+00 -0.00000000000E+00 -0.43932894997E+03  0.43932894997E+03  0.00000000000E+00 0.  1.
         25    1    1    2    0    0  0.12848908283E+03  0.68564684144E+02 -0.58168472496E+02  0.20054708053E+03  0.12500000000E+03 0.  0.
         25    1    1    2    0    0 -0.12848908283E+03 -0.68564684144E+02 -0.28026231383E+03  0.33968003308E+03  0.12500000000E+03 0.  0.
</event>
<event>
 4    0  0.2270578E-002  0.1755601E+03  0.7546771E-02  0.1172170E+00
         21   -1    0    0  502  501  0.00000000000E+00  0.00000000000E+00  0.54176490574E+03  0.54176490574E+03  0.00000000000E+00 0. -1.
         21   -1    0    0  501  502 -0.00000000000E+00 -0.00000000000E+00 -0.56890655186E+02  0.56890655186E+02  0.00000000000E+00 0. -1.
         25    1    1    2    0    0 -0.11584109492E+02 -0.22025120262E+02  0.44828962138E+03  0.46605566422E+03  0.12500000000E+03 0.  0.
         25    1    1    2    0    0  0.11584109492E+02  0.22025120262E+02  0.36584629178E+02  0.13259989671E+03  0.12500000000E+03 0.  0.
</event>
<event>
 4    0  0.2270578E-002  0.2751588E+03  0.7546771E-02  0.1098363E+00
         21   -1    0    0  502  501  0.00000000000E+00  0.00000000000E+00  0.56173406048E+03  0.56173406048E+03  0.00000000000E+00 0. -1.
         21   -1    0    0  501  502 -0.00000000000E+00 -0.00000000000E+00 -0.13478330309E+03  0.13478330309E+03  0.00000000000E+00 0. -1.
         25    1    1    2    0    0  0.11682864342E+03  0.19821285140E+03  0.32049779635E+03  0.41386121327E+03  0.12500000000E+03 0.  0.
         25    1    1    2    0    0 -0.11682864342E+03 -0.19821285140E+03  0.10645296104E+03  0.28265615030E+03  0.12500000000E+03 0.  0.
</event>
<event>
 4    0  0.2270578E-002  0.2070520E+03  0.7546771E-02  0.1143922E+00
         21   -1    0    0  502  501  0.00000000000E+00  0.00000000000E+00  0.99314915994E+02  0.99314915994E+02  0.00000000000E+00 0.  1.
         21   -1    0    0  501  502 -0.00000000000E+00 -0.00000000000E+00 -0.43166255663E+03  0.43166255663E+03  0.00000000000E+00 0.  1.
         25    1    1    2    0    0  0.14743296339E+02 -0.16306660265E+03 -0.19299206302E+03  0.28227472093E+03  0.12500000000E+03 0.  0.
         25    1    1    2    0    0 -0.14743296339E+02  0.16306660265E+03 -0.13935557762E+03  0.24870275170E+03  0.12500000000E+03 0.  0.
</event>
<event>
 4    0  0.2270578E-002  0.1967685E+03  0.7546771E-02  0.1152494E+00
         21   -1    0    0  502  501  0.00000000000E+00  0.00000000000E+00  0.99922473318E+02  0.99922473318E+02  0.00000000000E+00 0. -1.
         21   -1    0    0  501  502 -0.00000000000E+00 -0.00000000000E+00 -0.38747867334E+03  0.38747867334E+03  0.00000000000E+00 0. -1.
         25    1    1    2    0    0  0.33140674694E+02  0.56666550819E+02 -0.31351976384E+03  0.34384450645E+03  0.12500000000E+03 0.  0.
         25    1    1    2    0    0 -0.33140674694E+02 -0.56666550819E+02  0.25963563817E+02  0.14355664020E+03  0.12500000000E+03 0.  0.
</event>
<event>
 4    0  0.2270578E-002  0.3612783E+03  0.7546771E-02  0.1058079E+00
         21   -1    0    0  502  501  0.00000000000E+00  0.00000000000E+00  0.52966469104E+03  0.52966469104E+03  0.00000000000E+00 0. -1.
         21   -1    0    0  501  502 -0.00000000000E+00 -0.00000000000E+00 -0.24642389570E+03  0.24642389570E+03  0.00000000000E+00 0. -1.
         25    1    1    2    0    0 -0.18168795120E+03  0.30779863450E+02  0.44719596920E+03  0.49956695895E+03  0.12500000000E+03 0.  0.
         25    1    1    2    0    0  0.18168795120E+03 -0.30779863450E+02 -0.16395517386E+03  0.27652162780E+03  0.12500000000E+03 0.  0.
</event>
<event>
 4    0  0.2270578E-002  0.1709641E+03  0.7546771E-02  0.1176846E+00
         21   -1    0    0  502  501  0.00000000000E+00  0.00000000000E+00  0.18357337933E+03  0.18357337933E+03  0.00000000000E+00 0.  1.
         21   -1    0    0  501  502 -0.00000000000E+00 -0.00000000000E+00 -0.15922093931E+03  0.15922093931E+03  0.00000000000E+00 0.  1.
         25    1    1    2    0    0 -0.10801935334E+03 -0.23237679125E+02  0.49627979707E+02  0.17405776856E+03  0.12500000000E+03 0.  0.
         25    1    1    2    0    0  0.10801935334E+03  0.23237679125E+02 -0.25275539688E+02  0.16873655008E+03  0.12500000000E+03 0.  0.
</event>
<event>
 4    0  0.2270578E-002  0.3157222E+03  0.7546771E-02  0.1077635E+00
         21   -1    0    0  502  501  0.00000000000E+00  0.00000000000E+00  0.38171106002E+03  0.38171106002E+03  0.00000000000E+00 0.  1.
         21   -1    0    0  501  502 -0.00000000000E+00 -0.00000000000E+00 -0.26114120329E+03  0.26114120329E+03  0.00000000000E+00 0.  1.
         25    1    1    2    0    0  0.15997517934E+03  0.19781977603E+03  0.20183191090E+03  0.34797391002E+03  0.12500000000E+03 0.  0.
         25    1    1    2    0    0 -0.15997517934E+03 -0.19781977603E+03 -0.81262054175E+02  0.29487835330E+03  0.12500000000E+03 0.  0.
</event>
<event>
 4    0  0.2270578E-002  0.2199701E+03  0.7546771E-02  0.1133905E+00
         21   -1    0    0  502  501  0.00000000000E+00  0.00000000000E+00  0.39737016773E+03  0.39737016773E+03  0.00000000000E+00 0.  1.
         21   -1    0    0  501  502 -0.00000000000E+00 -0.00000000000E+00 -0.12176772471E+03  0.12176772471E+03  0.00000000000E+00 0.  1.
         25    1    1    2    0    0  0.12047210968E+03 -0.17087677820E+02 -0.20322838925E+02  0.17562327786E+03  0.12500000000E+03 0.  0.
         25    1    1    2    0    0 -0.12047210968E+03  0.17087677820E+02  0.29592528194E+03  0.34351461459E+03  0.12500000000E+03 0.  0.
</event>
<event>
 4    0  0.2270578E-002  0.2355878E+03  0.7546771E-02  0.1122767E+00
         21   -1    0    0  502  501  0.00000000000E+00  0.00000000000E+00  0.22166811672E+04  0.22166811672E+04  0.00000000000E+00 0.  1.
         21   -1    0    0  501  502 -0.00000000000E+00 -0.00000000000E+00 -0.25038165001E+02  0.25038165001E+02  0.00000000000E+00 0.  1.
         25    1    1    2    0    0  0.41362416868E+02 -0.18921229550E+03  0.13271700599E+04  0.13470402779E+04  0.12500000000E+03 0.  0.
         25    1    1    2    0    0 -0.41362416868E+02  0.18921229550E+03  0.86447294229E+03  0.89467905433E+03  0.12500000000E+03 0.  0.
</event>
<event>
 4    0  0.2270578E-002  0.2161859E+03  0.7546771E-02  0.1136759E+00
         21   -1    0    0  502  501  0.00000000000E+00  0.00000000000E+00  0.32961211938E+03  0.32961211938E+03  0.00000000000E+00 0.  1.
         21   -1    0    0  501  502 -0.00000000000E+00 -0.00000000000E+00 -0.14179195237E+03  0.14179195237E+03  0.00000000000E+00 0.  1.
         25    1    1    2    0    0 -0.76750658518E+02  0.15550962327E+03  0.12902707723E+03  0.24969359857E+03  0.12500000000E+03 0.  0.
         25    1    1    2    0    0  0.76750658518E+02 -0.15550962327E+03  0.58793089785E+02  0.22171047318E+03  0.12500000000E+03 0.  0.
</event>
<event>
 4    0  0.2270578E-002  0.2281372E+03  0.7546771E-02  0.1127958E+00
         21   -1    0    0  502  501  0.00000000000E+00  0.00000000000E+00  0.41873397468E+03  0.41873397468E+03  0.00000000000E+00 0.  1.
         21   -1    0    0  501  502 -0.00000000000E+00 -0.00000000000E+00 -0.12429513365E+03  0.12429513365E+03  0.00000000000E+00 0.  1.
         25    1    1    2    0    0 -0.12671419603E+03 -0.42962974849E+01  0.31698256295E+03  0.36356277431E+03  0.12500000000E+03 0.  0.
         25    1    1    2    0    0  0.12671419603E+03  0.42962974849E+01 -0.22543721923E+02  0.17946633401E+03  0.12500000000E+03 0.  0.
</event>
<event>
 4    0  0.2270578E-002  0.2484916E+03  0.7546771E-02  0.1114262E+00
         21   -1    0    0  502  501  0.00000000000E+00  0.00000000000E+00  0.51583380185E+03  0.51583380185E+03  0.00000000000E+00 0.  1.
         21   -1    0    0  501  502 -0.00000000000E+00 -0.00000000000E+00 -0.11970532897E+03  0.11970532897E+03  0.00000000000E+00 0.  1.
         25    1    1    2    0    0 -0.15880785809E+03  0.84750331926E+02  0.34785520685E+03  0.41113355432E+03  0.12500000000E+03 0.  0.
         25    1    1    2    0    0  0.15880785809E+03 -0.84750331926E+02  0.48273266037E+02  0.22440557651E+03  0.12500000000E+03 0.  0.
</event>
<event>
 4    0  0.2270578E-002  0.2421409E+03  0.7546771E-02  0.1118375E+00
         21   -1    0    0  502  501  0.00000000000E+00  0.00000000000E+00  0.93155680710E+03  0.93155680710E+03  0.00000000000E+00 0.  1.
         21   -1    0    0  501  502 -0.00000000000E+00 -0.00000000000E+00 -0.62940042880E+02  0.62940042880E+02  0.00000000000E+00 0.  1.
         25    1    1    2    0    0 -0.15092978372E+03  0.13229001973E+03  0.32707500235E+03  0.40358828786E+03  0.12500000000E+03 0.  0.
         25    1    1    2    0    0  0.15092978372E+03 -0.13229001973E+03  0.54154176188E+03  0.59090856212E+03  0.12500000000E+03 0.  0.
</event>
<event>
 4    0  0.2270578E-002  0.2409103E+03  0.7546771E-02  0.1119188E+00
         21   -1    0    0  502  501  0.00000000000E+00  0.00000000000E+00  0.16516994611E+04  0.16516994611E+04  0.00000000000E+00 0.  1.
         21   -1    0    0  501  502 -0.00000000000E+00 -0.00000000000E+00 -0.35138229904E+02  0.35138229904E+02  0.00000000000E+00 0.  1.
         25    1    1    2    0    0  0.16920205497E+03 -0.72925597202E+02  0.11303945161E+04  0.11521129459E+04  0.12500000000E+03 0.  0.
         25    1    1    2    0    0 -0.16920205497E+03  0.72925597202E+02  0.48616671508E+03  0.53472474506E+03  0.12500000000E+03 0.  0.
</event>
<event>
 4    0  0.2270578E-002  0.2349497E+03  0.7546771E-02  0.1123204E+00
         21   -1    0    0  502  501  0.00000000000E+00  0.00000000000E+00  0.79397723696E+03  0.79397723696E+03  0.00000000000E+00 0. -1.
         21   -1    0    0  501  502 -0.00000000000E+00 -0.00000000000E+00 -0.69525138919E+02  0.69525138919E+02  0.00000000000E+00 0. -1.
         25    1    1    2    0    0  0.58288711643E+02  0.16011134338E+03  0.55091393231E+03  0.59005455425E+03  0.12500000000E+03 0.  0.
         25    1    1    2    0    0 -0.58288711643E+02 -0.16011134338E+03  0.17353816574E+03  0.27344782163E+03  0.12500000000E+03 0.  0.
</event>
<event>
 4    0  0.2270578E-002  0.3195476E+03  0.7546771E-02  0.1075858E+00
         21   -1    0    0  502  501  0.00000000000E+00  0.00000000000E+00  0.43860114077E+03  0.43860114077E+03  0.00000000000E+00 0.  1.
         21   -1    0    0  501  502 -0.00000000000E+00 -0.00000000000E+00 -0.23280983073E+03  0.23280983073E+03  0.00000000000E+00 0.  1.
         25    1    1    2    0    0 -0.17322154137E+02  0.29334190023E+03  0.90638218800E+02  0.33194851131E+03  0.12500000000E+03 0.  0.
         25    1    1    2    0    0  0.17322154137E+02 -0.29334190023E+03  0.11515309124E+03  0.33946246019E+03  0.12500000000E+03 0.  0.
</event>
<event>
 4    0  0.2270578E-002  0.2534054E+03  0.7546771E-02  0.1111171E+00
         21   -1    0    0  502  501  0.00000000000E+00  0.00000000000E+00  0.50789619607E+03  0.50789619607E+03  0.00000000000E+00 0. -1.
         21   -1    0    0  501  502 -0.00000000000E+00 -0.00000000000E+00 -0.12643190399E+03  0.12643190399E+03  0.00000000000E+00 0. -1.
         25    1    1    2    0    0 -0.64408083195E+02 -0.56285085788E+02  0.44500528009E+03  0.47007564431E+03  0.12500000000E+03 0.  0.
         25    1    1    2    0    0  0.64408083195E+02  0.56285085788E+02 -0.63540988008E+02  0.16425245575E+03  0.12500000000E+03 0.  0.
</event>
<event>
 4    0  0.2270578E-002  0.1685815E+03  0.7546771E-02  0.1179335E+00
         21   -1    0    0  502  501  0.00000000000E+00  0.00000000000E+00  0.17477113059E+04  0.17477113059E+04  0.00000000000E+00 0.  1.
         21   -1    0    0  501  502 -0.00000000000E+00 -0.00000000000E+00 -0.16261110280E+02  0.16261110280E+02  0.00000000000E+00 0. -1.
         25    1    1    2    0    0 -0.98209620938E+02 -0.51529076298E+02  0.74940104428E+03  0.76780681198E+03  0.12500000000E+03 0.  0.
         25    1    1    2    0    0  0.98209620938E+02  0.51529076298E+02  0.98204915130E+03  0.99616560417E+03  0.12500000000E+03 0.  0.
</event>
<event>
 4    0  0.2270578E-002  0.2213870E+03  0.7546771E-02  0.1132853E+00
         21   -1    0    0  502  501  0.00000000000E+00  0.00000000000E+00  0.15549013433E+03  0.15549013433E+03  0.00000000000E+00 0. -1.
         21   -1    0    0  501  502 -0.00000000000E+00 -0.00000000000E+00 -0.31521113521E+03  0.31521113521E+03  0.00000000000E+00 0. -1.
         25    1    1    2    0    0  0.12379547159E+03 -0.11772966730E+03 -0.14876887400E+03  0.25873301146E+03  0.12500000000E+03 0.  0.
         25    1    1    2    0    0 -0.12379547159E+03  0.11772966730E+03 -0.10952126888E+02  0.21196825808E+03  0.12500000000E+03 0.  0.
</event>
<event>
 4    0  0.2270578E-002  0.1938748E+03  0.7546771E-02  0.1155012E+00
         21   -1    0    0  502  501  0.00000000000E+00  0.00000000000E+00  0.31421052959E+02  0.31421052959E+02  0.00000000000E+00 0.  1.
         21   -1    0    0  501  502 -0.00000000000E+00 -0.00000000000E+00 -0.11962502415E+04  0.11962502415E+04  0.00000000000E+00 0.  1.
         25    1    1    2    0    0 -0.12768907588E+03  0.24480563203E+02 -0.35722527786E+03  0.40017333396E+03  0.12500000000E+03 0.  0.
         25    1    1    2    0    0  0.12768907588E+03 -0.24480563203E+02 -0.80760391063E+03  0.82749796045E+03  0.12500000000E+03 0.  0.
</event>
<event>
 4    0  0.2270578E-002  0.1887839E+03  0.7546771E-02  0.1159563E+00
         21   -1    0    0  502  501  0.00000000000E+00  0.00000000000E+00  0.28016484426E+03  0.28016484426E+03  0.00000000000E+00 0.  1.
         21   -1    0    0  501  502 -0.00000000000E+00 -0.00000000000E+00 -0.12720850562E+03  0.12720850562E+03  0.00000000000E+00 0.  1.
         25    1    1    2    0    0  0.12866672231E+03 -0.58076148716E+02  0.66450012262E+02  0.19992140608E+03  0.12500000000E+03 0.  0.
         25    1    1    2    0    0 -0.12866672231E+03  0.58076148716E+02  0.86506326380E+02  0.20745194380E+03  0.12500000000E+03 0.  0.
</event>
<event>
 4    0  0.2270578E-002  0.1511164E+03  0.7546771E-02  0.1199108E+00
         21   -1    0    0  502  501  0.00000000000E+00  0.00000000000E+00  0.90298099154E+03  0.90298099154E+03  0.00000000000E+00 0. -1.
         21   -1    0    0  501  502 -0.00000000000E+00 -0.00000000000E+00 -0.25289760890E+02  0.25289760890E+02  0.00000000000E+00 0. -1.
         25    1    1    2    0    0 -0.58540654096E+01 -0.77208866821E+02  0.33175653914E+03  0.36288135865E+03  0.12500000000E+03 0.  0.
         25    1    1    2    0    0  0.58540654096E+01  0.77208866821E+02  0.54593469151E+03  0.56538939377E+03  0.12500000000E+03 0.  0.
</event>
<event>
 4    0  0.2270578E-002  0.4505150E+03  0.7546771E-02  0.1027569E+00
         21   -1    0    0  502  501  0.00000000000E+00  0.00000000000E+00  0.96310433604E+03  0.96310433604E+03  0.00000000000E+00 0. -1.
         21   -1    0    0  501  502 -0.00000000000E+00 -0.00000000000E+00 -0.21073909651E+03  0.21073909651E+03  0.00000000000E+00 0. -1.
         25    1    1    2    0    0  0.11656614095E+03 -0.67684794161E+02  0.91201928020E+03  0.93036179201E+03  0.12500000000E+03 0.  0.
         25    1    1    2    0    0 -0.11656614095E+03  0.67684794161E+02 -0.15965404067E+03  0.24348164054E+03  0.12500000000E+03 0.  0.
</event>
<event>
 4    0  0.2270578E-002  0.1750829E+03  0.7546771E-02  0.1172648E+00
         21   -1    0    0  502  501  0.00000000000E+00  0.00000000000E+00  0.73545707181E+02  0.73545707181E+02  0.00000000000E+00 0. -1.
         21   -1    0    0  501  502 -0.00000000000E+00 -0.00000000000E+00 -0.41680231353E+03  0.41680231353E+03  0.00000000000E+00 0. -1.
         25    1    1    2    0    0 -0.61598620665E+02  0.80823614286E+02 -0.75604243297E+02  0.17795462427E+03  0.12500000000E+03 0.  0.
         25    1    1    2    0    0  0.61598620665E+02 -0.80823614286E+02 -0.26765236306E+03  0.31239339645E+03  0.12500000000E+03 0.  0.
</event>
<event>
 4    0  0.2270578E-002  0.1851911E+03  0.7546771E-02  0.1162872E+00
         21   -1    0    0  502  501  0.00000000000E+00  0.00000000000E+00  0.81346449155E+03  0.81346449155E+03  0.00000000000E+00 0. -1.
         21   -1    0    0  501  502 -0.00000000000E+00 -0.00000000000E+00 -0.42160083214E+02  0.42160083214E+02  0.00000000000E+00 0. -1.
         25    1    1    2    0    0 -0.51348133456E+02  0.99220319681E+02  0.20390887381E+03  0.26397941485E+03  0.12500000000E+03 0.  0.
         25    1    1    2    0    0  0.51348133456E+02 -0.99220319681E+02  0.56739553453E+03  0.59164515991E+03  0.12500000000E+03 0.  0.
</event>
<event>
 4    0  0.2270578E-002  0.1964975E+03  0.7546771E-02  0.1152728E+00
         21   -1    0    0  502  501  0.00000000000E+00  0.00000000000E+00  0.17899929541E+02  0.17899929541E+02  0.00000000000E+00 0.  1.
         21   -1    0    0  501  502 -0.00000000000E+00 -0.00000000000E+00 -0.21570628187E+04  0.21570628187E+04  0.00000000000E+00 0.  1.
         25    1    1    2    0    0 -0.13641589816E+03 -0.65774119093E+02 -0.10301591456E+04  0.10487079657E+04  0.12500000000E+03 0.  0.
         25    1    1    2    0    0  0.13641589816E+03  0.65774119093E+02 -0.11090037436E+04  0.11262547826E+04  0.12500000000E+03 0.  0.
</event>
<event>
 4    0  0.2270578E-002  0.1741896E+03  0.7546771E-02  0.1173548E+00
         21   -1    0    0  502  501  0.00000000000E+00  0.00000000000E+00  0.30860330700E+03  0.30860330700E+03  0.00000000000E+00 0.  1.
         21   -1    0    0  501  502 -0.00000000000E+00 -0.00000000000E+00 -0.98320440724E+02  0.98320440724E+02  0.00000000000E+00 0.  1.
         25    1    1    2    0    0  0.96295948221E+00 -0.93140651350E+02  0.19592596204E+03  0.25037589905E+03  0.12500000000E+03 0.  0.
         25    1    1    2    0    0 -0.96295948221E+00  0.93140651350E+02  0.14356904238E+02  0.15654784867E+03  0.12500000000E+03 0.  0.
</event>
<event>
 4    0  0.2270578E-002  0.1877446E+03  0.7546771E-02  0.1160511E+00
         21   -1    0    0  502  501  0.00000000000E+00  0.00000000000E+00  0.48603408179E+03  0.48603408179E+03  0.00000000000E+00 0.  1.
         21   -1    0    0  501  502 -0.00000000000E+00 -0.00000000000E+00 -0.72521709418E+02  0.72521709418E+02  0.00000000000E+00 0.  1.
         25    1    1    2    0    0 -0.76818895210E+02 -0.11117212760E+03  0.26166719292E+03  0.31992984304E+03  0.12500000000E+03 0.  0.
         25    1    1    2    0    0  0.76818895210E+02  0.11117212760E+03  0.15184517945E+03  0.23862594816E+03  0.12500000000E+03 0.  0.
</event>
<event>
 4    0  0.2270578E-002  0.1750565E+03  0.7546771E-02  0.1172675E+00
         21   -1    0    0  502  501  0.00000000000E+00  0.00000000000E+00  0.15253789554E+03  0.15253789554E+03  0.00000000000E+00 0. -1.
         21   -1    0    0  501  502 -0.00000000000E+00 -0.00000000000E+00 -0.20089942588E+03  0.20089942588E+03  0.00000000000E+00 0. -1.
         25    1    1    2    0    0 -0.28455144032E+02  0.11919183634E+03 -0.22323028727E+02  0.17646446295E+03  0.12500000000E+03 0.  0.
         25    1    1    2    0    0  0.28455144032E+02 -0.11919183634E+03 -0.26038501610E+02  0.17697285848E+03  0.12500000000E+03 0.  0.
</event>
<event>
 4    0  0.2270578E-002  0.1813455E+03  0.7546771E-02  0.1166507E+00
         21   -1    0    0  502  501  0.00000000000E+00  0.00000000000E+00  0.15137707541E+03  0.15137707541E+03  0.00000000000E+00 0.  1.
         21   -1    0    0  501  502 -0.00000000000E+00 -0.00000000000E+00 -0.21724684624E+03  0.21724684624E+03  0.00000000000E+00 0.  1.
         25    1    1    2    0    0  0.11067594227E+03 -0.64642172826E+02 -0.62276096620E+02  0.18955497069E+03  0.12500000000E+03 0.  0.
         25    1    1    2    0    0 -0.11067594227E+03  0.64642172826E+02 -0.35936742063E+01  0.17906895096E+03  0.12500000000E+03 0.  0.
</event>
<event>
 4    0  0.2270578E-002  0.2544875E+03  0.7546771E-02  0.1110501E+00
         21   -1    0    0  502  501  0.00000000000E+00  0.00000000000E+00  0.32970939102E+03  0.32970939102E+03  0.00000000000E+00 0.  1.
         21   -1    0    0  501  502 -0.00000000000E+00 -0.00000000000E+00 -0.19642719772E+03  0.19642719772E+03  0.00000000000E+00 0.  1.
         25    1    1    2    0    0 -0.95751917064E+02 -0.51389074628E+02 -0.13308225902E+03  0.21247389082E+03  0.12500000000E+03 0.  0.
         25    1    1    2    0    0  0.95751917064E+02  0.51389074628E+02  0.26636445232E+03  0.31366269793E+03  0.12500000000E+03 0.  0.
</event>
<event>
 4    0  0.2270578E-002  0.2625656E+03  0.7546771E-02  0.1105612E+00
         21   -1    0    0  502  501  0.00000000000E+00  0.00000000000E+00  0.31953113608E+03  0.31953113608E+03  0.00000000000E+00 0. -1.
         21   -1    0    0  501  502 -0.00000000000E+00 -0.00000000000E+00 -0.21575572470E+03  0.21575572470E+03  0.00000000000E+00 0. -1.
         25    1    1    2    0    0 -0.10597274431E+03 -0.10856774589E+03  0.22931864511E+03  0.30204175039E+03  0.12500000000E+03 0.  0.
         25    1    1    2    0    0  0.10597274431E+03  0.10856774589E+03 -0.12554323373E+03  0.23324511039E+03  0.12500000000E+03 0.  0.
</event>
<event>
 4    0  0.2270578E-002  0.3379010E+03  0.7546771E-02  0.1067693E+00
         21   -1    0    0  502  501  0.00000000000E+00  0.00000000000E+00  0.57915812552E+03  0.57915812552E+03  0.00000000000E+00 0.  1.
         21   -1    0    0  501  502 -0.00000000000E+00 -0.00000000000E+00 -0.19714314412E+03  0.19714314412E+03  0.00000000000E+00 0.  1.
         25    1    1    2    0    0  0.27595752400E+03 -0.14960019293E+03  0.19605150094E+03  0.39063277359E+03  0.12500000000E+03 0.  0.
         25    1    1    2    0    0 -0.27595752400E+03  0.14960019293E+03  0.18596348046E+03  0.38566849605E+03  0.12500000000E+03 0.  0.
</event>
<event>
 4    0  0.2270578E-002  0.2185757E+03  0.7546771E-02  0.1134949E+00
         21   -1    0    0  502  501  0.00000000000E+00  0.00000000000E+00  0.22689954086E+03  0.22689954086E+03  0.00000000000E+00 0.  1.
         21   -1    0    0  501  502 -0.00000000000E+00 -0.00000000000E+00 -0.21055726142E+03  0.21055726142E+03  0.00000000000E+00 0.  1.
         25    1    1    2    0    0 -0.50448079276E+02 -0.61812946139E+02  0.16885882301E+03  0.22473128648E+03  0.12500000000E+03 0.  0.
         25    1    1    2    0    0  0.50448079276E+02  0.61812946139E+02 -0.15251654357E+03  0.21272551581E+03  0.12500000000E+03 0.  0.
</event>
<event>
 4    0  0.2270578E-002  0.1845986E+03  0.7546771E-02  0.1163425E+00
         21   -1    0    0  502  501  0.00000000000E+00  0.00000000000E+00  0.25326557932E+02  0.25326557932E+02  0.00000000000E+00 0.  1.
         21   -1    0    0  501  502 -0.00000000000E+00 -0.00000000000E+00 -0.13454905821E+04  0.13454905821E+04  0.00000000000E+00 0.  1.
         25    1    1    2    0    0  0.41736196579E+02  0.12717536483E+03 -0.74605637933E+03  0.76820609518E+03  0.12500000000E+03 0.  0.
         25    1    1    2    0    0 -0.41736196579E+02 -0.12717536483E+03 -0.57410764488E+03  0.60261104490E+03  0.12500000000E+03 0.  0.
</event>
<event>
 4    0  0.2270578E-002  0.3700086E+03  0.7546771E-02  0.1054690E+00
         21   -1    0    0  502  501  0.00000000000E+00  0.00000000000E+00  0.10413555497E+03  0.10413555497E+03  0.00000000000E+00 0.  1.
         21   -1    0    0  501  502 -0.00000000000E+00 -0.00000000000E+00 -0.13146940796E+04  0.13146940796E+04  0.00000000000E+00 0.  1.
         25    1    1    2    0    0  0.50161107098E+02  0.34141538523E+03 -0.69522451439E+03  0.78615693557E+03  0.12500000000E+03 0.  0.
         25    1    1    2    0    0 -0.50161107098E+02 -0.34141538523E+03 -0.51533401024E+03  0.63267269899E+03  0.12500000000E+03 0.  0.
</event>
<event>
 4    0  0.2270578E-002  0.2634836E+03  0.7546771E-02  0.1105068E+00
         21   -1    0    0  502  501  0.00000000000E+00  0.00000000000E+00  0.18073764380E+03  0.18073764380E+03  0.00000000000E+00 0. -1.
         21   -1    0    0  501  502 -0.00000000000E+00 -0.00000000000E+00 -0.38411255210E+03  0.38411255210E+03  0.00000000000E+00 0. -1.
         25    1    1    2    0    0  0.21508970246E+02 -0.79237037360E+02 -0.33420939653E+03  0.36614486835E+03  0.12500000000E+03 0.  0.
         25    1    1    2    0    0 -0.21508970246E+02  0.79237037360E+02  0.13083448822E+03  0.19870532755E+03  0.12500000000E+03 0.  0.
</event>
<event>
 4    0  0.2270578E-002  0.1314206E+03  0.7546771E-02  0.1225363E+00
         21   -1    0    0  502  501  0.00000000000E+00  0.00000000000E+00  0.93751632730E+03  0.93751632730E+03  0.00000000000E+00 0.  1.
         21   -1    0    0  501  502 -0.00000000000E+00 -0.00000000000E+00 -0.18422484422E+02  0.18422484422E+02  0.00000000000E+00 0.  1.
         25    1    1    2    0    0  0.30665936765E+02 -0.26569009776E+02  0.46049516113E+03  0.47888109734E+03  0.12500000000E+03 0.  0.
         25    1    1    2    0    0 -0.30665936765E+02  0.26569009776E+02  0.45859868174E+03  0.47705771439E+03  0.12500000000E+03 0.  0.
</event>
<event>
 4    0  0.2270578E-002  0.2527608E+03  0.7546771E-02  0.1111572E+00
         21   -1    0    0  502  501  0.00000000000E+00  0.00000000000E+00  0.40554687067E+03  0.40554687067E+03  0.00000000000E+00 0. -1.
         21   -1    0    0  501  502 -0.00000000000E+00 -0.00000000000E+00 -0.15753546794E+03  0.15753546794E+03  0.00000000000E+00 0. -1.
         25    1    1    2    0    0  0.12479187933E+03 -0.22375688508E+02  0.32384835481E+03  0.36956250013E+03  0.12500000000E+03 0.  0.
         25    1    1    2    0    0 -0.12479187933E+03  0.22375688508E+02 -0.75836952089E+02  0.19351983848E+03  0.12500000000E+03 0.  0.
</event>
<event>
 4    0  0.2270578E-002  0.1585104E+03  0.7546771E-02  0.1190389E+00
         21   -1    0    0  502  501  0.00000000000E+00  0.00000000000E+00  0.19157736184E+03  0.19157736184E+03  0.00000000000E+00 0. -1.
         21   -1    0    0  501  502 -0.00000000000E+00 -0.00000000000E+00 -0.13115088377E+03  0.13115088377E+03  0.00000000000E+00 0. -1.
         25    1    1    2    0    0 -0.91885517578E+01 -0.23304492194E+02  0.12610577368E+03  0.17931869673E+03  0.12500000000E+03 0.  0.
         25    1    1    2    0    0  0.91885517578E+01  0.23304492194E+02 -0.65679295607E+02  0.14340954888E+03  0.12500000000E+03 0.  0.
</event>
<event>
 4    0  0.2270578E-002  0.2081747E+03  0.7546771E-02  0.1143020E+00
         21   -1    0    0  502  501  0.00000000000E+00  0.00000000000E+00  0.61015553746E+02  0.61015553746E+02  0.00000000000E+00 0.  1.
         21   -1    0    0  501  502 -0.00000000000E+00 -0.00000000000E+00 -0.71025672602E+03  0.71025672602E+03  0.00000000000E+00 0.  1.
         25    1    1    2    0    0 -0.63126542002E+02  0.80245470852E+02 -0.81055655932E+02  0.18060818159E+03  0.12500000000E+03 0.  0.
         25    1    1    2    0    0  0.63126542002E+02 -0.80245470852E+02 -0.56818551634E+03  0.59066409817E+03  0.12500000000E+03 0.  0.
</event>
<event>
 4    0  0.2270578E-002  0.1659110E+03  0.7546771E-02  0.1182180E+00
         21   -1    0    0  502  501  0.00000000000E+00  0.00000000000E+00  0.47324858121E+03  0.47324858121E+03  0.00000000000E+00 0.  1.
         21   -1    0    0  501  502 -0.00000000000E+00 -0.00000000000E+00 -0.58164920826E+02  0.58164920826E+02  0.00000000000E+00 0.  1.
         25    1    1    2    0    0  0.20721810849E+02  0.20835504952E+01  0.36041042714E+02  0.13174859160E+03  0.12500000000E+03 0.  0.
         25    1    1    2    0    0 -0.20721810849E+02 -0.20835504952E+01  0.37904261767E+03  0.39966491044E+03  0.12500000000E+03 0.  0.
</event>
<event>
 4    0  0.2270578E-002  0.2413676E+03  0.7546771E-02  0.1118885E+00
         21   -1    0    0  502  501  0.00000000000E+00  0.00000000000E+00  0.67092521696E+03  0.67092521696E+03  0.00000000000E+00 0.  1.
         21   -1    0    0  501  502 -0.00000000000E+00 -0.00000000000E+00 -0.86832821460E+02  0.86832821460E+02  0.00000000000E+00 0.  1.
         25    1    1    2    0    0  0.84021520368E+02  0.25489674635E+02  0.58539442708E+03  0.60499667326E+03  0.12500000000E+03 0.  0.
         25    1    1    2    0    0 -0.84021520368E+02 -0.25489674635E+02 -0.13020315848E+01  0.15276136516E+03  0.12500000000E+03 0.  0.
</event>
<event>
 4    0  0.2270578E-002  0.1704155E+03  0.7546771E-02  0.1177415E+00
         21   -1    0    0  502  501  0.00000000000E+00  0.00000000000E+00  0.15621920942E+03  0.15621920942E+03  0.00000000000E+00 0.  1.
         21   -1    0    0  501  502 -0.00000000000E+00 -0.00000000000E+00 -0.18590181072E+03  0.18590181072E+03  0.00000000000E+00 0.  1.
         25    1    1    2    0    0  0.14631869914E+02 -0.67761684740E+02 -0.10798637045E+03  0.17914182577E+03  0.12500000000E+03 0.  0.
         25    1    1    2    0    0 -0.14631869914E+02  0.67761684740E+02  0.78303769149E+02  0.16297919437E+03  0.12500000000E+03 0.  0.
</event>
<event>
 4    0  0.2270578E-002  0.2077206E+03  0.7546771E-02  0.1143384E+00
         21   -1    0    0  502  501  0.00000000000E+00  0.00000000000E+00  0.78206150576E+02  0.78206150576E+02  0.00000000000E+00 0.  1.
         21   -1    0    0  501  502 -0.00000000000E+00 -0.00000000000E+00 -0.55171919960E+03  0.55171919960E+03  0.00000000000E+00 0.  1.
         25    1    1    2    0    0  0.14785313278E+03  0.60904325373E+02 -0.16974877278E+03  0.26459314349E+03  0.12500000000E+03 0.  0.
         25    1    1    2    0    0 -0.14785313278E+03 -0.60904325373E+02 -0.30376427624E+03  0.36533220669E+03  0.12500000000E+03 0.  0.
</event>
<event>
 4    0  0.2270578E-002  0.1580760E+03  0.7546771E-02  0.1190886E+00
         21   -1    0    0  502  501  0.00000000000E+00  0.00000000000E+00  0.10273459440E+03  0.10273459440E+03  0.00000000000E+00 0.  1.
         21   -1    0    0  501  502 -0.00000000000E+00 -0.00000000000E+00 -0.24322896242E+03  0.24322896242E+03  0.00000000000E+00 0.  1.
         25    1    1    2    0    0 -0.95271169206E+02  0.82242568737E+01 -0.54060690636E+02  0.16640851046E+03  0.12500000000E+03 0.  0.
         25    1    1    2    0    0  0.95271169206E+02 -0.82242568737E+01 -0.86433677387E+02  0.17955504635E+03  0.12500000000E+03 0.  0.
</event>
<event>
 4    0  0.2270578E-002  0.2040182E+03  0.7546771E-02  0.1146392E+00
         21   -1    0    0  502  501  0.00000000000E+00  0.00000000000E+00  0.16952561992E+04  0.16952561992E+04  0.00000000000E+00 0.  1.
         21   -1    0    0  501  502 -0.00000000000E+00 -0.00000000000E+00 -0.24552890663E+02  0.24552890663E+02  0.00000000000E+00 0.  1.
         25    1    1    2    0    0  0.71273925218E+02  0.14461819657E+03  0.82687478057E+03  0.85166971176E+03  0.12500000000E+03 0.  0.
         25    1    1    2    0    0 -0.71273925218E+02 -0.14461819657E+03  0.84382852799E+03  0.86813937812E+03  0.12500000000E+03 0.  0.
</event>
<event>
 4    0  0.2270578E-002  0.2105020E+03  0.7546771E-02  0.1141169E+00
         21   -1    0    0  502  501  0.00000000000E+00  0.00000000000E+00  0.77523880123E+02  0.77523880123E+02  0.00000000000E+00 0. -1.
         21   -1    0    0  501  502 -0.00000000000E+00 -0.00000000000E+00 -0.57157998137E+03  0.57157998137E+03  0.00000000000E+00 0. -1.
         25    1    1    2    0    0  0.85125184556E+02 -0.13362067734E+03 -0.33934716524E+03  0.39481930172E+03  0.12500000000E+03 0.  0.
         25    1    1    2    0    0 -0.85125184556E+02  0.13362067734E+03 -0.15470893601E+03  0.25428455977E+03  0.12500000000E+03 0.  0.
</event>
<event>
 4    0  0.2270578E-002  0.1757597E+03  0.7546771E-02  0.1171971E+00
         21   -1    0    0  502  501  0.00000000000E+00  0.00000000000E+00  0.42404964731E+03  0.42404964731E+03  0.00000000000E+00 0.  1.
         21   -1    0    0  501  502 -0.00000000000E+00 -0.00000000000E+00 -0.72848745607E+02  0.72848745607E+02  0.00000000000E+00 0.  1.
         25    1    1    2    0    0 -0.70196625861E+02 -0.15607426838E+01  0.31884624965E+02  0.14687284129E+03  0.12500000000E+03 0.  0.
         25    1    1    2    0    0  0.70196625861E+02  0.15607426838E+01  0.31931627673E+03  0.35002555162E+03  0.12500000000E+03 0.  0.
</event>
<event>
 4    0  0.2270578E-002  0.2890368E+03  0.7546771E-02  0.1090853E+00
         21   -1    0    0  502  501  0.00000000000E+00  0.00000000000E+00  0.35659960364E+03  0.35659960364E+03  0.00000000000E+00 0. -1.
         21   -1    0    0  501  502 -0.00000000000E+00 -0.00000000000E+00 -0.23427468636E+03  0.23427468636E+03  0.00000000000E+00 0. -1.
         25    1    1    2    0    0 -0.91149527395E+02 -0.24396970668E+03  0.70740451849E+02  0.29742001555E+03  0.12500000000E+03 0.  0.
         25    1    1    2    0    0  0.91149527395E+02  0.24396970668E+03  0.51584465439E+02  0.29345427445E+03  0.12500000000E+03 0.  0.
</event>
<event>
 4    0  0.2270578E-002  0.2328632E+03  0.7546771E-02  0.1124641E+00
         21   -1    0    0  502  501  0.00000000000E+00  0.00000000000E+00  0.17165926042E+03  0.17165926042E+03  0.00000000000E+00 0. -1.
         21   -1    0    0  501  502 -0.00000000000E+00 -0.00000000000E+00 -0.31588900224E+03  0.31588900224E+03  0.00000000000E+00 0. -1.
         25    1    1    2    0    0 -0.16520663042E+02 -0.18784206574E+03 -0.12986011327E+03  0.26085670968E+03  0.12500000000E+03 0.  0.
         25    1    1    2    0    0  0.16520663042E+02  0.18784206574E+03 -0.14369628559E+02  0.22669155298E+03  0.12500000000E+03 0.  0.
</event>
<event>
 4    0  0.2270578E-002  0.2117237E+03  0.7546771E-02  0.1140208E+00
         21   -1    0    0  502  501  0.00000000000E+00  0.00000000000E+00  0.25569680374E+03  0.25569680374E+03  0.00000000000E+00 0.  1.
         21   -1    0    0  501  502 -0.00000000000E+00 -0.00000000000E+00 -0.17531277472E+03  0.17531277472E+03  0.00000000000E+00 0.  1.
         25    1    1    2    0    0 -0.33821415567E+02 -0.16399087155E+03  0.74933994605E+02  0.22198422838E+03  0.12500000000E+03 0.  0.
         25    1    1    2    0    0  0.33821415567E+02  0.16399087155E+03  0.54500344219E+01  0.20902535008E+03  0.12500000000E+03 0.  0.
</event>
<event>
 4    0  0.2270578E-002  0.2375599E+03  0.7546771E-02  0.1121429E+00
         21   -1    0    0  502  501  0.00000000000E+00  0.00000000000E+00  0.62708284535E+03  0.62708284535E+03  0.00000000000E+00 0. -1.
         21   -1    0    0  501  502 -0.00000000000E+00 -0.00000000000E+00 -0.89995583122E+02  0.89995583122E+02  0.00000000000E+00 0. -1.
         25    1    1    2    0    0  0.17925505545E+03 -0.64887655258E+02  0.36941476340E+03  0.43409106202E+03  0.12500000000E+03 0.  0.
         25    1    1    2    0    0 -0.17925505545E+03  0.64887655258E+02  0.16767249883E+03  0.28298736645E+03  0.12500000000E+03 0.  0.
</event>
<event>
 4    0  0.2270578E-002  0.3644522E+03  0.7546771E-02  0.1056835E+00
         21   -1    0    0  502  501  0.00000000000E+00  0.00000000000E+00  0.71447457750E+02  0.71447457750E+02  0.00000000000E+00 0. -1.
         21   -1    0    0  501  502 -0.00000000000E+00 -0.00000000000E+00 -0.18590643585E+04  0.18590643585E+04  0.00000000000E+00 0. -1.
         25    1    1    2    0    0  0.46597299227E+02  0.33815190456E+03 -0.96299512245E+03  0.10293214390E+04  0.12500000000E+03 0.  0.
         25    1    1    2    0    0 -0.46597299227E+02 -0.33815190456E+03 -0.82462177826E+03  0.90119037724E+03  0.12500000000E+03 0.  0.
</event>
<event>
 4    0  0.2270578E-002  0.2206312E+03  0.7546771E-02  0.1133413E+00
         21   -1    0    0  502  501  0.00000000000E+00  0.00000000000E+00  0.15653972139E+04  0.15653972139E+04  0.00000000000E+00 0.  1.
         21   -1    0    0  501  502 -0.00000000000E+00 -0.00000000000E+00 -0.31096353824E+02  0.31096353824E+02  0.00000000000E+00 0.  1.
         25    1    1    2    0    0  0.59106516143E+02 -0.12508874493E+03  0.11938976928E+04  0.12083697593E+04  0.12500000000E+03 0.  0.
         25    1    1    2    0    0 -0.59106516143E+02  0.12508874493E+03  0.34040316726E+03  0.38812380839E+03  0.12500000000E+03 0.  0.
</event>
<event>
 4    0  0.2270578E-002  0.1948097E+03  0.7546771E-02  0.1154193E+00
         21   -1    0    0  502  501  0.00000000000E+00  0.00000000000E+00  0.34099491243E+02  0.34099491243E+02  0.00000000000E+00 0.  1.
         21   -1    0    0  501  502 -0.00000000000E+00 -0.00000000000E+00 -0.11129439236E+04  0.11129439236E+04  0.00000000000E+00 0.  1.
         25    1    1    2    0    0 -0.13587770609E+03 -0.20875507947E+02 -0.36707102108E+03  0.41141788046E+03  0.12500000000E+03 0.  0.
         25    1    1    2    0    0  0.13587770609E+03  0.20875507947E+02 -0.71177341131E+03  0.73562553442E+03  0.12500000000E+03 0.  0.
</event>
<event>
 4    0  0.2270578E-002  0.2451991E+03  0.7546771E-02  0.1116377E+00
         21   -1    0    0  502  501  0.00000000000E+00  0.00000000000E+00  0.13764213978E+03  0.13764213978E+03  0.00000000000E+00 0. -1.
         21   -1    0    0  501  502 -0.00000000000E+00 -0.00000000000E+00 -0.43680367250E+03  0.43680367250E+03  0.00000000000E+00 0. -1.
         25    1    1    2    0    0 -0.14919254022E+03  0.88577263502E+02 -0.29011418305E+03  0.36041030073E+03  0.12500000000E+03 0.  0.
         25    1    1    2    0    0  0.14919254022E+03 -0.88577263502E+02 -0.90473496729E+01  0.21403551155E+03  0.12500000000E+03 0.  0.
</event>
<event>
 4    0  0.2270578E-002  0.1442951E+03  0.7546771E-02  0.1207664E+00
         21   -1    0    0  502  501  0.00000000000E+00  0.00000000000E+00  0.52781262857E+03  0.52781262857E+03  0.00000000000E+00 0. -1.
         21   -1    0    0  501  502 -0.00000000000E+00 -0.00000000000E+00 -0.39447833951E+02  0.39447833951E+02  0.00000000000E+00 0. -1.
         25    1    1    2    0    0  0.30344941538E+02 -0.38977277522E+02  0.14099127549E+03  0.19479112763E+03  0.12500000000E+03 0.  0.
         25    1    1    2    0    0 -0.30344941538E+02  0.38977277522E+02  0.34737351913E+03  0.37246933489E+03  0.12500000000E+03 0.  0.
</event>
<event>
 4    0  0.2270578E-002  0.2261405E+03  0.7546771E-02  0.1129386E+00
         21   -1    0    0  502  501  0.00000000000E+00  0.00000000000E+00  0.26353629314E+03  0.26353629314E+03  0.00000000000E+00 0.  1.
         21   -1    0    0  501  502 -0.00000000000E+00 -0.00000000000E+00 -0.19405115433E+03  0.19405115433E+03  0.00000000000E+00 0.  1.
         25    1    1    2    0    0 -0.79123057603E+02 -0.68183625986E+02 -0.12395780849E+03  0.20469490317E+03  0.12500000000E+03 0.  0.
         25    1    1    2    0    0  0.79123057603E+02  0.68183625986E+02  0.19344294731E+03  0.25289254429E+03  0.12500000000E+03 0.  0.
</event>
<event>
 4    0  0.2270578E-002  0.2921201E+03  0.7546771E-02  0.1089247E+00
         21   -1    0    0  502  501  0.00000000000E+00  0.00000000000E+00  0.19019270280E+03  0.19019270280E+03  0.00000000000E+00 0. -1.
         21   -1    0    0  501  502 -0.00000000000E+00 -0.00000000000E+00 -0.44867211316E+03  0.44867211316E+03  0.00000000000E+00 0. -1.
         25    1    1    2    0    0  0.15426542414E+02 -0.23905725677E+03 -0.78526384871E+01  0.27032020671E+03  0.12500000000E+03 0.  0.
         25    1    1    2    0    0 -0.15426542414E+02  0.23905725677E+03 -0.25062677187E+03  0.36854460925E+03  0.12500000000E+03 0.  0.
</event>
<event>
 4    0  0.2270578E-002  0.1710376E+03  0.7546771E-02  0.1176770E+00
         21   -1    0    0  502  501  0.00000000000E+00  0.00000000000E+00  0.13501096617E+04  0.13501096617E+04  0.00000000000E+00 0.  1.
         21   -1    0    0  501  502 -0.00000000000E+00 -0.00000000000E+00 -0.21667771284E+02  0.21667771284E+02  0.00000000000E+00 0.  1.
         25    1    1    2    0    0 -0.20690031580E+02  0.10669511797E+03  0.49328534673E+03  0.52035310982E+03  0.12500000000E+03 0.  0.
         25    1    1    2    0    0  0.20690031580E+02 -0.10669511797E+03  0.83515654370E+03  0.85142432318E+03  0.12500000000E+03 0.  0.
</event>
<event>
 4    0  0.2270578E-002  0.3808975E+03  0.7546771E-02  0.1050603E+00
         21   -1    0    0  502  501  0.00000000000E+00  0.00000000000E+00  0.14826114338E+03  0.14826114338E+03  0.00000000000E+00 0.  1.
         21   -1    0    0  501  502 -0.00000000000E+00 -0.00000000000E+00 -0.97856338987E+03  0.97856338987E+03  0.00000000000E+00 0.  1.
         25    1    1    2    0    0  0.13336766618E+03  0.28887139136E+03 -0.16664915932E+03  0.38030324404E+03  0.12500000000E+03 0.  0.
         25    1    1    2    0    0 -0.13336766618E+03 -0.28887139136E+03 -0.66365308717E+03  0.74652128921E+03  0.12500000000E+03 0.  0.
</event>
<event>
 4    0  0.2270578E-002  0.2472530E+03  0.7546771E-02  0.1115053E+00
         21   -1    0    0  502  501  0.00000000000E+00  0.00000000000E+00  0.17510784581E+03  0.17510784581E+03  0.00000000000E+00 0. -1.
         21   -1    0    0  501  502 -0.00000000000E+00 -0.00000000000E+00 -0.34912217339E+03  0.34912217339E+03  0.00000000000E+00 0. -1.
         25    1    1    2    0    0 -0.17065651621E+03  0.33858912761E+02  0.43859196913E+02  0.21867487659E+03  0.12500000000E+03 0.  0.
         25    1    1    2    0    0  0.17065651621E+03 -0.33858912761E+02 -0.21787352450E+03  0.30555514261E+03  0.12500000000E+03 0.  0.
</event>
<event>
 4    0  0.2270578E-002  0.2350443E+03  0.7546771E-02  0.1123139E+00
         21   -1    0    0  502  501  0.00000000000E+00  0.00000000000E+00  0.16118180806E+04  0.16118180806E+04  0.00000000000E+00 0. -1.
         21   -1    0    0  501  502 -0.00000000000E+00 -0.00000000000E+00 -0.34275467460E+02  0.34275467460E+02  0.00000000000E+00 0. -1.
         25    1    1    2    0    0 -0.28278822849E+01 -0.19892834213E+03  0.81101059970E+03  0.84435992032E+03  0.12500000000E+03 0.  0.
         25    1    1    2    0    0  0.28278822849E+01  0.19892834213E+03  0.76653201345E+03  0.80173362775E+03  0.12500000000E+03 0.  0.
</event>
<event>
 4    0  0.2270578E-002  0.2658458E+03  0.7546771E-02  0.1103681E+00
         21   -1    0    0  502  501  0.00000000000E+00  0.00000000000E+00  0.34644602250E+03  0.34644602250E+03  0.00000000000E+00 0.  1.
         21   -1    0    0  501  502 -0.00000000000E+00 -0.00000000000E+00 -0.20399709791E+03  0.20399709791E+03  0.00000000000E+00 0.  1.
         25    1    1    2    0    0 -0.12207764247E+03  0.15537758120E+03  0.20219233208E+03  0.30911467562E+03  0.12500000000E+03 0.  0.
         25    1    1    2    0    0  0.12207764247E+03 -0.15537758120E+03 -0.59743407487E+02  0.24132844480E+03  0.12500000000E+03 0.  0.
</event>
<event>
 4    0  0.2270578E-002  0.2266217E+03  0.7546771E-02  0.1129040E+00
         21   -1    0    0  502  501  0.00000000000E+00  0.00000000000E+00  0.20794325601E+03  0.20794325601E+03  0.00000000000E+00 0.  1.
         21   -1    0    0  501  502 -0.00000000000E+00 -0.00000000000E+00 -0.24697800801E+03  0.24697800801E+03  0.00000000000E+00 0.  1.
         25    1    1    2    0    0 -0.93338267650E+02  0.16397237279E+03 -0.31111756204E+02  0.22845549374E+03  0.12500000000E+03 0.  0.
         25    1    1    2    0    0  0.93338267650E+02 -0.16397237279E+03 -0.79229957966E+01  0.22646577028E+03  0.12500000000E+03 0.  0.
</event>
<event>
 4    0  0.2270578E-002  0.1900533E+03  0.7546771E-02  0.1158413E+00
         21   -1    0    0  502  501  0.00000000000E+00  0.00000000000E+00  0.75162539943E+02  0.75162539943E+02  0.00000000000E+00 0. -1.
         21   -1    0    0  501  502 -0.00000000000E+00 -0.00000000000E+00 -0.48056171616E+03  0.48056171616E+03  0.00000000000E+00 0. -1.
         25    1    1    2    0    0  0.11939781735E+03 -0.62356596751E+02 -0.27358966793E+03  0.32957622843E+03  0.12500000000E+03 0.  0.
         25    1    1    2    0    0 -0.11939781735E+03  0.62356596751E+02 -0.13180950829E+03  0.22614802768E+03  0.12500000000E+03 0.  0.
</event>
<event>
 4    0  0.2270578E-002  0.4457592E+03  0.7546771E-02  0.1028994E+00
         21   -1    0    0  502  501  0.00000000000E+00  0.00000000000E+00  0.74193569532E+03  0.74193569532E+03  0.00000000000E+00 0.  1.
         21   -1    0    0  501  502 -0.00000000000E+00 -0.00000000000E+00 -0.26781469038E+03  0.26781469038E+03  0.00000000000E+00 0.  1.
         25    1    1    2    0    0 -0.37121954694E+03  0.17167073980E+03  0.37943514070E+03  0.57172617653E+03  0.12500000000E+03 0.  0.
         25    1    1    2    0    0  0.37121954694E+03 -0.17167073980E+03  0.94685864247E+02  0.43802420917E+03  0.12500000000E+03 0.  0.
</event>
<event>
 4    0  0.2270578E-002  0.1815472E+03  0.7546771E-02  0.1166314E+00
         21   -1    0    0  502  501  0.00000000000E+00  0.00000000000E+00  0.89011313684E+03  0.89011313684E+03  0.00000000000E+00 0.  1.
         21   -1    0    0  501  502 -0.00000000000E+00 -0.00000000000E+00 -0.37028327318E+02  0.37028327318E+02  0.00000000000E+00 0.  1.
         25    1    1    2    0    0  0.73118062000E+02 -0.10639707355E+02  0.14828791416E+03  0.20754218812E+03  0.12500000000E+03 0.  0.
         25    1    1    2    0    0 -0.73118062000E+02  0.10639707355E+02  0.70479689536E+03  0.71959927604E+03  0.12500000000E+03 0.  0.
</event>
<event>
 4    0  0.2270578E-002  0.1857102E+03  0.7546771E-02  0.1162388E+00
         21   -1    0    0  502  501  0.00000000000E+00  0.00000000000E+00  0.68198102494E+03  0.68198102494E+03  0.00000000000E+00 0.  1.
         21   -1    0    0  501  502 -0.00000000000E+00 -0.00000000000E+00 -0.50570728940E+02  0.50570728940E+02  0.00000000000E+00 0.  1.
         25    1    1    2    0    0 -0.81158829408E+02 -0.56423008914E+01  0.53395120082E+03  0.55438928201E+03  0.12500000000E+03 0.  0.
         25    1    1    2    0    0  0.81158829408E+02  0.56423008914E+01  0.97459095184E+02  0.17816247187E+03  0.12500000000E+03 0.  0.
</event>
<event>
 4    0  0.2270578E-002  0.1673942E+03  0.7546771E-02  0.1180593E+00
         21   -1    0    0  502  501  0.00000000000E+00  0.00000000000E+00  0.17709308322E+03  0.17709308322E+03  0.00000000000E+00 0. -1.
         21   -1    0    0  501  502 -0.00000000000E+00 -0.00000000000E+00 -0.15822648422E+03  0.15822648422E+03  0.00000000000E+00 0. -1.
         25    1    1    2    0    0 -0.98001630805E+02 -0.52816547053E+02  0.10817032581E+02  0.16773763882E+03  0.12500000000E+03 0.  0.
         25    1    1    2    0    0  0.98001630805E+02  0.52816547053E+02  0.80495664200E+01  0.16758192863E+03  0.12500000000E+03 0.  0.
</event>
<event>
 4    0  0.2270578E-002  0.1681941E+03  0.7546771E-02  0.1179744E+00
         21   -1    0    0  502  501  0.00000000000E+00  0.00000000000E+00  0.29650563309E+03  0.29650563309E+03  0.00000000000E+00 0. -1.
         21   -1    0    0  501  502 -0.00000000000E+00 -0.00000000000E+00 -0.95408783912E+02  0.95408783912E+02  0.00000000000E+00 0. -1.
         25    1    1    2    0    0  0.10087604292E+03 -0.45655679747E+02  0.77135964231E+02  0.18394394284E+03  0.12500000000E+03 0.  0.
         25    1    1    2    0    0 -0.10087604292E+03  0.45655679747E+02  0.12396088495E+03  0.20797047417E+03  0.12500000000E+03 0.  0.
</event>
<event>
 4    0  0.2270578E-002  0.2043012E+03  0.7546771E-02  0.1146160E+00
         21   -1    0    0  502  501  0.00000000000E+00  0.00000000000E+00  0.26288059298E+02  0.26288059298E+02  0.00000000000E+00 0. -1.
         21   -1    0    0  501  502 -0.00000000000E+00 -0.00000000000E+00 -0.15877542657E+04  0.15877542657E+04  0.00000000000E+00 0. -1.
         25    1    1    2    0    0 -0.11824437328E+03 -0.10580874385E+03 -0.65983282388E+03  0.69005911164E+03  0.12500000000E+03 0.  0.
         25    1    1    2    0    0  0.11824437328E+03  0.10580874385E+03 -0.90163338249E+03  0.92398321333E+03  0.12500000000E+03 0.  0.
</event>
<event>
 4    0  0.2270578E-002  0.1951476E+03  0.7546771E-02  0.1153899E+00
         21   -1    0    0  502  501  0.00000000000E+00  0.00000000000E+00  0.82921347269E+02  0.82921347269E+02  0.00000000000E+00 0.  1.
         21   -1    0    0  501  502 -0.00000000000E+00 -0.00000000000E+00 -0.45926132065E+03  0.45926132065E+03  0.00000000000E+00 0. -1.
         25    1    1    2    0    0 -0.10176672691E+01 -0.12183009746E+03 -0.66954587464E+02  0.18695326977E+03  0.12500000000E+03 0.  0.
         25    1    1    2    0    0  0.10176672691E+01  0.12183009746E+03 -0.30938538592E+03  0.35522939815E+03  0.12500000000E+03 0.  0.
</event>
<event>
 4    0  0.2270578E-002  0.2210778E+03  0.7546771E-02  0.1133082E+00
         21   -1    0    0  502  501  0.00000000000E+00  0.00000000000E+00  0.11746074575E+04  0.11746074575E+04  0.00000000000E+00 0.  1.
         21   -1    0    0  501  502 -0.00000000000E+00 -0.00000000000E+00 -0.41609989498E+02  0.41609989498E+02  0.00000000000E+00 0.  1.
         25    1    1    2    0    0  0.10488858342E+03  0.82512391806E+02  0.22470298865E+03  0.28970043639E+03  0.12500000000E+03 0.  0.
         25    1    1    2    0    0 -0.10488858342E+03 -0.82512391806E+02  0.90829447932E+03  0.92651701058E+03  0.12500000000E+03 0.  0.
</event>
<event>
 4    0  0.2270578E-002  0.2056712E+03  0.7546771E-02  0.1145041E+00
         21   -1    0    0  502  501  0.00000000000E+00  0.00000000000E+00  0.23733822315E+02  0.23733822315E+02  0.00000000000E+00 0.  1.
         21   -1    0    0  501  502 -0.00000000000E+00 -0.00000000000E+00 -0.17822936406E+04  0.17822936406E+04  0.00000000000E+00 0.  1.
         25    1    1    2    0    0  0.57694288798E+02  0.92223902127E+02 -0.34439098341E+03  0.38218323948E+03  0.12500000000E+03 0.  0.
         25    1    1    2    0    0 -0.57694288798E+02 -0.92223902127E+02 -0.14141688349E+04  0.14238442234E+04  0.12500000000E+03 0.  0.
</event>
<event>
 4    0  0.2270578E-002  0.2363139E+03  0.7546771E-02  0.1122273E+00
         21   -1    0    0  502  501  0.00000000000E+00  0.00000000000E+00  0.56243408841E+03  0.56243408841E+03  0.00000000000E+00 0.  1.
         21   -1    0    0  501  502 -0.00000000000E+00 -0.00000000000E+00 -0.99290322734E+02  0.99290322734E+02  0.00000000000E+00 0.  1.
         25    1    1    2    0    0 -0.10630579596E+03 -0.23513254292E+02 -0.42330300498E+01  0.16582133133E+03  0.12500000000E+03 0.  0.
         25    1    1    2    0    0  0.10630579596E+03  0.23513254292E+02  0.46737679572E+03  0.49590307981E+03  0.12500000000E+03 0.  0.
</event>
<event>
 4    0  0.2270578E-002  0.1662850E+03  0.7546771E-02  0.1181778E+00
         21   -1    0    0  502  501  0.00000000000E+00  0.00000000000E+00  0.45836048101E+03  0.45836048101E+03  0.00000000000E+00 0. -1.
         21   -1    0    0  501  502 -0.00000000000E+00 -0.00000000000E+00 -0.60325237967E+02  0.60325237967E+02  0.00000000000E+00 0. -1.
         25    1    1    2    0    0 -0.35434568017E+02 -0.94803749396E+02  0.26486176412E+03  0.30987112418E+03  0.12500000000E+03 0.  0.
         25    1    1    2    0    0  0.35434568017E+02  0.94803749396E+02  0.13317347892E+03  0.20881459479E+03  0.12500000000E+03 0.  0.
</event>
